/*--------------------------------*- C++ -*----------------------------------*\
| =========                 |                                                 |
| \\      /  F ield         | OpenFOAM: The Open Source CFD Toolbox           |
|  \\    /   O peration     | Version:  v1812                                 |
|   \\  /    A nd           | Web:      www.OpenFOAM.com                      |
|    \\/     M anipulation  |                                                 |
\*---------------------------------------------------------------------------*/
FoamFile
{
    version     2.0;
    format      ascii;
    class       volScalarField;
    location    "0";
    object      nut;
}
// * * * * * * * * * * * * * * * * * * * * * * * * * * * * * * * * * * * * * //

dimensions      [0 2 -1 0 0 0 0];


internalField   nonuniform List<scalar> 
5655
(
0.0001600297328023622
1.668517840860661e-06
2.997152006640016e-07
5.256243207775412e-07
9.778632246282894e-07
6.734006592013543e-07
3.819318439061264e-07
6.26088717782854e-07
6.543162745721629e-08
1.256229734664005e-07
7.514775184488898e-07
1.657259839411908e-07
1.723917329134925e-07
5.55177792320317e-07
1.130731577182443e-06
1.594511479291205e-06
1.33203855032889e-06
1.999922717587864e-06
1.174760095192237e-06
1.462805778540095e-05
7.053936576239364e-07
1.528962334731799e-06
1.028876165567628e-06
1.056298131747411e-06
1.190080582138153e-06
3.671362331922462e-06
7.663651271448489e-06
1.662555648992786e-05
1.828583091100593e-05
1.214943164169873e-05
7.417178229267708e-06
5.295975010231337e-06
3.723913937906431e-06
3.97057253649519e-06
8.365146717964762e-06
6.493994143312043e-06
1.757687797687837e-05
2.555596342186419e-05
2.951227620533774e-05
2.455907072275147e-05
4.603663859800197e-05
4.208699751155313e-05
3.103072746215688e-05
7.329519525115914e-06
1.580894031890653e-05
1.889701662920961e-05
1.183585133317726e-05
9.290464677653168e-06
1.50110881201991e-05
8.184976202211228e-07
1.054552200003694e-06
1.336003932385979e-06
4.638157027701423e-07
4.750556233039003e-07
5.349641444872575e-07
6.356070029406583e-07
3.669968362697542e-07
1.439567518084078e-06
4.895270930780779e-07
7.234777853094159e-06
1.055858255653516e-06
1.090318102157358e-06
1.011758207771784e-05
5.849269738841694e-06
1.323464972111233e-06
1.210128795921898e-07
1.290533710623705e-07
1.370233290468957e-07
1.716648459128661e-08
1.691772012982707e-08
8.746515646711225e-07
8.900424465255325e-07
1.468582814799475e-06
6.524265594908831e-06
6.831313900621375e-06
3.674312188348983e-06
6.367571721230846e-07
1.186996788795634e-07
5.244929603871646e-08
1.12495037019983e-07
3.61488157281962e-07
8.897079622194607e-07
7.768844422624546e-07
1.037368406226235e-07
3.055590876186443e-07
1.524150906614742e-06
8.33838985900467e-06
0.0001626162866437944
1.664564531783382e-06
3.032939183419666e-07
5.36465119508181e-07
1.017876693260492e-06
7.089903158622424e-07
3.98448463303178e-07
6.542222403960595e-07
6.792376274199386e-08
1.312206619612112e-07
7.812461328872999e-07
1.702246617991911e-07
1.766452031588289e-07
5.771868611373769e-07
1.171496842747194e-06
1.638001547693801e-06
1.336374043028547e-06
2.065164168949383e-06
1.180089693344337e-06
1.52992542710683e-05
7.373249845029715e-07
1.60666121081962e-06
1.067275010442045e-06
1.061190044225408e-06
1.210113227974972e-06
3.805332122686875e-06
7.901445304913231e-06
1.72150328073471e-05
1.907038034356867e-05
1.281024469010015e-05
7.829085994023594e-06
5.530191271614518e-06
3.755543520885825e-06
3.94202897632531e-06
8.651031205094536e-06
6.615353430582624e-06
1.786651185902856e-05
2.543635663121096e-05
2.889170151443859e-05
2.428349855824997e-05
4.62899617619459e-05
4.158517715757798e-05
3.143348757566886e-05
7.284371184058159e-06
1.589621977688807e-05
1.911712539240317e-05
1.190317255127974e-05
9.182260864167655e-06
1.527098332527545e-05
8.170434576909952e-07
1.054238329440204e-06
1.355304449357107e-06
4.796229062571902e-07
4.986190697690521e-07
5.529982342214877e-07
6.441112140784675e-07
3.65917065870219e-07
1.465151777494303e-06
4.95108852857302e-07
7.623419350075526e-06
1.088585193936295e-06
1.094038542000838e-06
1.062138724448867e-05
6.143706547213016e-06
1.371844918531332e-06
1.267414227293747e-07
1.352825676379386e-07
1.428719569948501e-07
1.72203492625428e-08
1.717336538726477e-08
9.076498518235062e-07
8.877313077207291e-07
1.489141866206846e-06
6.790812335316375e-06
7.192557849728139e-06
3.878606280538856e-06
6.641515804524683e-07
1.222786234707012e-07
5.245041236183705e-08
1.13814161023845e-07
3.668569972978691e-07
9.243108705709352e-07
8.071929704271178e-07
1.052171356666479e-07
3.2021682954012e-07
1.512040065336131e-06
8.49048883594193e-06
0.00016151962418526
1.649897590563682e-06
3.066379211029086e-07
5.568718202502195e-07
1.072089729437084e-06
7.88081682322253e-07
4.295794660341384e-07
6.927120140371511e-07
7.339595511150923e-08
1.425940769829423e-07
8.216525633023851e-07
1.811984899179432e-07
1.845174356289286e-07
6.067919353863495e-07
1.261361233797067e-06
1.751246224901987e-06
1.342629665208025e-06
2.245441841978887e-06
1.168309679128238e-06
1.62123935620214e-05
8.108870549099213e-07
1.766103774453182e-06
1.1192000904248e-06
1.093662370510654e-06
1.266053179255008e-06
3.992034110363644e-06
8.571215412057183e-06
1.879925973135221e-05
2.015089443148514e-05
1.426536571032054e-05
8.733099930613022e-06
5.849881127159093e-06
3.841377480464951e-06
3.914000001948484e-06
9.034222975729388e-06
7.025807606330042e-06
1.778194776948434e-05
2.51778072596748e-05
2.890335773690253e-05
2.464286537336758e-05
4.647576896069417e-05
4.187735143545991e-05
3.348341731433691e-05
7.305643281337088e-06
1.565828331788628e-05
1.96583159671345e-05
1.207837342053354e-05
9.033203587664608e-06
1.50390387801423e-05
8.112185829742233e-07
1.040515515897357e-06
1.34753998705605e-06
5.008825523084434e-07
5.494996305875992e-07
5.973779868223446e-07
6.534370369009387e-07
3.763680906011189e-07
1.540918350127766e-06
5.020205967339881e-07
8.486724128929562e-06
1.17941770508053e-06
1.099751054945279e-06
1.177254260393591e-05
6.815756193188156e-06
1.438721589691009e-06
1.400274341792105e-07
1.495197298572047e-07
1.508696162602832e-07
1.737657510576888e-08
1.818667996412375e-08
9.516625986199629e-07
8.980346577881503e-07
1.576158177872731e-06
7.154392781642882e-06
8.000869694137273e-06
4.328131149550714e-06
7.013364790500225e-07
1.30524874928866e-07
5.25640788783163e-08
1.162486800658096e-07
3.784126174572221e-07
9.910540693116769e-07
8.4943670836864e-07
1.060286172101778e-07
3.538317352179774e-07
1.506809428683329e-06
8.519710961229448e-06
0.0001563510002322681
1.624779097351161e-06
3.101461942861606e-07
5.90173913627042e-07
1.139604021186743e-06
9.240220654209833e-07
4.804077834919445e-07
7.409178062572837e-07
8.276819737149555e-08
1.616295069155287e-07
8.720264907345564e-07
2.005308057116531e-07
1.972847163240365e-07
6.435016390271055e-07
1.415468433220811e-06
1.953931384141281e-06
1.350725046827761e-06
2.57225386248336e-06
1.136725107032346e-06
1.735231552172936e-05
9.385776930797872e-07
2.033781067199142e-06
1.183790238174012e-06
1.159955922333269e-06
1.36777918722001e-06
4.22839052402637e-06
9.791364194844753e-06
2.165596360876822e-05
2.150947749709313e-05
1.676000069728674e-05
1.028142250289182e-05
6.249740337360685e-06
3.996241510254089e-06
3.882792239203775e-06
9.508364760146686e-06
7.798205008996194e-06
1.728591143654484e-05
2.478468646552999e-05
2.959755070229815e-05
2.573136490606268e-05
4.65912255967835e-05
4.305935141026524e-05
3.756498929632003e-05
7.39242010560203e-06
1.503907242558912e-05
2.061142851769446e-05
1.235834967725103e-05
8.821257450597749e-06
1.425040617301201e-05
8.011268535217656e-07
1.010645655692196e-06
1.309825037563964e-06
5.272426007957348e-07
6.36236369269327e-07
6.757330556069248e-07
6.634354931006245e-07
4.005548070416256e-07
1.680423616439947e-06
5.101506412851118e-07
9.970398584352133e-06
1.344317575580169e-06
1.107380711996681e-06
1.376647852653148e-05
7.979490621983513e-06
1.522989306600419e-06
1.631305947600053e-07
1.741838228569065e-07
1.608834582734972e-07
1.766419941410657e-08
2.014238473831205e-08
1.005960775148832e-06
9.232595074135862e-07
1.745723905729251e-06
7.608984073908939e-06
9.392869498193058e-06
5.098601404882547e-06
7.476952319235508e-07
1.448399353902842e-07
5.281471239279894e-08
1.197526248657699e-07
3.980700036124298e-07
1.100853125920173e-06
9.029063751053111e-07
1.062355650531401e-07
4.121035935753151e-07
1.508431572478941e-06
8.422013346450833e-06
5.579242050554977e-05
5.585851876062879e-06
3.471259846279612e-06
1.850931071590772e-06
6.105357786595136e-06
1.008035453968169e-05
3.060408427362122e-06
1.890580880178838e-06
2.041492517406655e-06
1.004567997909961e-06
6.352495085124343e-06
2.764313354340532e-06
8.400458235145087e-07
3.521014445610856e-06
4.046961398581146e-06
4.51382362756006e-06
2.959728711606518e-06
6.546717062725007e-06
8.56009209179071e-06
4.709670243374162e-05
2.517092239051739e-05
2.407654830645675e-05
2.982423530200023e-05
8.090833226275815e-06
7.918522016887131e-06
1.802102642720342e-05
3.705171827167279e-05
6.078508426661001e-05
8.111246831744132e-05
5.448620270978381e-05
4.405238654369343e-05
4.185468191722922e-05
2.292793832474321e-05
2.25618096383244e-05
2.055221569797406e-05
2.082646720442315e-05
2.099642233749292e-05
5.575427821118129e-05
8.801251723596559e-05
4.775698553928878e-05
5.998459592643142e-05
7.073548697876789e-05
4.557887433240092e-05
1.358518453181426e-05
2.108817420999869e-05
2.806989903166998e-05
1.634868800977067e-05
8.037185767445986e-06
5.788344414683903e-06
1.304411853681295e-06
2.595713675155868e-06
2.570607039542075e-06
2.614083856737499e-06
3.182800916551447e-06
5.885247641656337e-06
2.110495149184078e-06
1.166942619039587e-06
4.808383991367133e-06
1.671149400029352e-05
1.211226275484674e-05
8.071220415468964e-06
1.081745555678003e-05
3.472369623782294e-05
4.244916768561354e-05
2.524744424692962e-05
8.341376536577864e-06
1.043858003803877e-05
8.407255658814182e-07
1.400047845022813e-06
2.212791680819735e-06
4.109081647247884e-06
3.740460174551299e-06
4.693647530201963e-06
1.685333971819025e-05
3.431762664777602e-05
1.874869890560372e-05
5.453180524325355e-06
1.341757487803341e-06
7.66108614538533e-07
1.04814617447265e-06
3.4188594339633e-06
2.77516899225069e-06
2.656489885264008e-06
1.72794447152249e-06
3.558118031820003e-06
5.540190304544702e-06
1.161902832788505e-05
5.470755631182955e-05
5.847297247705887e-06
3.746783143478381e-06
1.942522462333122e-06
6.287890742882935e-06
1.083497114718341e-05
3.183829441838466e-06
1.91542870364285e-06
2.208123456634345e-06
1.060529597904286e-06
6.595018751456167e-06
2.938542268659946e-06
8.724332517961244e-07
3.668521239516529e-06
4.236226013248378e-06
4.712300607891148e-06
2.961690681374341e-06
6.953895496956779e-06
8.583759484048404e-06
4.776480834507345e-05
2.639197967212434e-05
2.592247585572727e-05
3.134551959837653e-05
8.591660228437825e-06
8.212812801607693e-06
1.814184954093906e-05
3.812037433192647e-05
6.269441227025134e-05
8.235913362473117e-05
5.613587882878457e-05
4.517820484406876e-05
4.245658230148503e-05
2.304282472940077e-05
2.323803470096638e-05
2.090571723810596e-05
2.195232781790493e-05
2.118069416838851e-05
5.579122283348024e-05
9.321574122390412e-05
4.899960382465043e-05
6.018331349174868e-05
7.272148129807287e-05
4.84683034676477e-05
1.383920711027696e-05
2.013642111434328e-05
2.868133101858271e-05
1.64225974531919e-05
8.391171965172965e-06
5.282545674075733e-06
1.355579009057779e-06
2.8006897932429e-06
2.608907663858078e-06
2.684059803922657e-06
3.393189929698762e-06
6.357243154080506e-06
2.182018797089123e-06
1.182865717058933e-06
4.916056053139821e-06
1.672587590786011e-05
1.296389073609929e-05
8.369990815685351e-06
1.121172036848346e-05
3.635590921632764e-05
4.440820922839885e-05
2.605441993005823e-05
9.001612700806012e-06
1.134000087673051e-05
8.656002803600006e-07
1.510196379439999e-06
2.363129107611975e-06
4.289340972420932e-06
3.89145353485882e-06
4.950555269254941e-06
1.69977468868791e-05
3.652912388800209e-05
1.976745917283607e-05
5.563047615447649e-06
1.442494519582688e-06
8.190789014522804e-07
1.08336256378177e-06
3.652472655059578e-06
2.902809208944151e-06
2.722600350692539e-06
1.829197628494199e-06
3.85016555568625e-06
5.767413036086221e-06
1.20061904744719e-05
5.392011884122953e-05
6.172014304855752e-06
4.108697693454083e-06
1.999542371729765e-06
6.490524471184202e-06
1.193648702343116e-05
3.366895544359975e-06
1.927791090384272e-06
2.451073723631147e-06
1.120968627236541e-06
6.881598099522698e-06
3.191829853360681e-06
8.98601627619891e-07
3.852248973014576e-06
4.438175001630307e-06
4.861471186626623e-06
2.9656713941049e-06
7.179051297790671e-06
8.821758178860162e-06
4.81380444472966e-05
2.840796914079916e-05
2.852699498562082e-05
3.332405579972889e-05
9.131208812437078e-06
8.647054391505677e-06
1.833803314925677e-05
3.897344217993578e-05
6.412158600887316e-05
8.356711333881032e-05
5.778111492569909e-05
4.645756627591844e-05
4.32708709058157e-05
2.349409382250168e-05
2.45703349062314e-05
2.124874976696243e-05
2.303135463558461e-05
2.194718615989331e-05
5.586389625904553e-05
0.0001015378378109433
5.019365730168263e-05
6.048749973666559e-05
7.393875712833753e-05
5.018126618499395e-05
1.409725143983444e-05
1.995497807288098e-05
2.958428557131563e-05
1.646501356560714e-05
8.805224481036933e-06
4.989664773578606e-06
1.422132203430017e-06
3.127175937096853e-06
2.722727365940859e-06
2.76574685534427e-06
3.591642018667709e-06
7.034949731425616e-06
2.276394193728579e-06
1.21115114688076e-06
5.000489142933446e-06
1.679380810013303e-05
1.338691638468558e-05
8.694563999133019e-06
1.16815395000545e-05
3.749402578033623e-05
4.710051539549667e-05
2.716539716716266e-05
9.988330426122883e-06
1.273105076790134e-05
8.955284935872328e-07
1.662140909721773e-06
2.599671456417128e-06
4.508654019240994e-06
3.967863967910779e-06
5.056345402749716e-06
1.706800249799158e-05
3.818935718379352e-05
2.036487167479366e-05
5.718807443282766e-06
1.58140570164726e-06
9.078719551515197e-07
1.126902272564416e-06
4.008181343421253e-06
2.975758892235094e-06
2.794832386174826e-06
1.976800989925409e-06
4.272641461987677e-06
6.062253797247132e-06
1.220445870872087e-05
5.336867540561874e-05
6.566077552384044e-06
4.640503897043487e-06
2.011692272541531e-06
6.712817465380826e-06
1.368973702057304e-05
3.669516481461286e-06
1.924750383630026e-06
2.836200667714531e-06
1.196438885472437e-06
7.215174662450543e-06
3.596168451448105e-06
9.203825697392473e-07
4.075692032612784e-06
4.689468204847275e-06
4.960906158126723e-06
2.971375721746313e-06
7.161717852163507e-06
9.448590333281607e-06
4.814807321648541e-05
3.190853370315776e-05
3.257585448751581e-05
3.581085827861288e-05
9.798656548792495e-06
9.364683584325423e-06
1.861745167290338e-05
3.973904417746958e-05
6.520853459763649e-05
8.469653521198345e-05
5.981542507433556e-05
4.830486271215488e-05
4.431892105795253e-05
2.463267733234476e-05
2.710736241801308e-05
2.157036401022379e-05
2.418636273043756e-05
2.36933303495555e-05
5.597518388521105e-05
0.0001155030678133842
5.155792531404314e-05
6.090941295418583e-05
7.410520890814871e-05
5.032803395410901e-05
1.435467201173418e-05
2.086526603638424e-05
3.099183981182736e-05
1.646547839096777e-05
9.370010013779243e-06
4.96108774108508e-06
1.505819566622941e-06
3.672896825464001e-06
2.967330618009559e-06
2.859620445506255e-06
3.796289181894777e-06
8.098566059754091e-06
2.396165260578393e-06
1.265816860805885e-06
5.078530664996352e-06
1.692092893323651e-05
1.32093736546994e-05
9.111200377025673e-06
1.223215903671424e-05
3.80932778116594e-05
5.131669396919254e-05
2.86160312336388e-05
1.158013258758227e-05
1.501299908388328e-05
9.308976530166728e-07
1.894290005890091e-06
2.994926771912391e-06
4.770381416689899e-06
3.944462399716244e-06
4.949796732261175e-06
1.70446300168424e-05
3.922762263401875e-05
2.04179023369077e-05
5.924850928931043e-06
1.793983762316776e-06
1.060879962359277e-06
1.179486077551793e-06
4.588329334438934e-06
2.977196635178393e-06
2.872658312904425e-06
2.212640479448238e-06
4.938977084640105e-06
6.431773939210475e-06
1.213146556347528e-05
5.299547736391119e-05
7.026622958729771e-06
5.402745080544349e-06
1.988650639762488e-06
6.952960776261625e-06
1.627178288057128e-05
4.11524298810366e-06
1.906093519563776e-06
3.403466881185785e-06
1.296049906651505e-06
7.593076972752151e-06
4.19068411883672e-06
9.408690564917071e-07
4.337259312138305e-06
5.018775640526039e-06
5.031207176325025e-06
2.979313941704263e-06
6.938583073228992e-06
1.047317231955843e-05
4.778699187293556e-05
3.717907864246598e-05
3.849145451391748e-05
3.878996126350165e-05
1.067847229280685e-05
1.042010623401202e-05
1.898171088721558e-05
4.046511494257857e-05
6.604526937042585e-05
8.573863973759079e-05
6.236825930126476e-05
5.079762951413945e-05
4.559831497583265e-05
2.64373563097997e-05
3.101663446589647e-05
2.186786021534383e-05
2.55831158113063e-05
2.652758842404396e-05
5.612709515338017e-05
0.0001364627437377288
5.321821604953647e-05
6.144936284000163e-05
7.346105022382389e-05
4.92091569423944e-05
1.460860637886897e-05
2.28577831880098e-05
3.307769575396025e-05
1.642575013533513e-05
1.014497052627844e-05
5.160269387124998e-06
1.606077863982096e-06
4.491501578545455e-06
3.357741812490115e-06
2.965069038245955e-06
4.039640005613194e-06
9.659598229570494e-06
2.54067085287031e-06
1.348201148819235e-06
5.151321915750533e-06
1.711043076500606e-05
1.251193373986045e-05
9.662604457220449e-06
1.285946106884467e-05
3.8299924463306e-05
5.741800619692394e-05
3.040020438015906e-05
1.393708643499731e-05
1.841552496922426e-05
9.714446745811739e-07
2.231576443407372e-06
3.58592812628475e-06
5.072532499799606e-06
3.83265038551522e-06
4.648960052111405e-06
1.692828145466576e-05
3.991908574729366e-05
2.001843777745873e-05
6.181447849843185e-06
2.102742236221365e-06
1.292357049647243e-06
1.240779400621962e-06
5.450771363714957e-06
2.918510657891453e-06
2.955553179452788e-06
2.559659076407292e-06
5.918657121365054e-06
6.873956775463297e-06
1.183089047978248e-05
0.000114498342641022
3.995294934682916e-05
1.172771591987411e-05
3.988098585942945e-06
2.402688357810517e-05
7.50712439703764e-05
3.278758731713292e-05
1.282925431889389e-05
1.68209890712319e-05
1.326990648329433e-05
2.44146876865644e-05
1.347148914641944e-05
3.600049328381568e-06
1.327702056384583e-05
1.186576080476781e-05
8.422963438545334e-06
4.71223818818214e-06
6.161633395641091e-06
1.176640281274421e-05
3.878836296740033e-05
7.993385822934283e-05
0.0001111637406020477
0.0001499789337681992
2.355779638731804e-05
1.926070985528443e-05
1.547555570073532e-05
6.188246315101032e-05
8.983849052045835e-05
8.963272461874696e-05
8.331155970241017e-05
0.0001219984319161755
0.0001280218431772649
3.9192848705211e-05
4.734565081587602e-05
4.770743729338031e-05
4.458653933029037e-05
4.342392459440775e-05
0.0001405549123885419
0.0003132171554372878
8.359882714059818e-05
6.610436982034271e-05
9.255383514668096e-05
6.321142919994672e-05
3.110197103270652e-05
6.171499926185386e-05
5.376628334214761e-05
2.381855048045773e-05
1.892320349410287e-05
1.686886773393306e-05
1.530525571707022e-05
1.088611545963226e-05
8.715388635417502e-06
7.533706959152255e-06
1.362699520489293e-05
1.368490031884211e-05
9.18393775696872e-06
1.539984627501481e-05
7.329551073951094e-06
9.981058629236521e-06
1.729486120648478e-05
1.564588638665122e-05
2.006718118853057e-05
4.709241536107873e-05
6.651267520494486e-05
7.459579983003213e-05
2.775243657915137e-05
5.155961716807203e-05
4.21297403502666e-05
1.665436349292309e-05
1.457065058012269e-05
1.369772634094473e-05
3.802854025025573e-06
7.996191590381937e-06
1.479176211332426e-05
3.018092489978432e-05
4.232951808766784e-05
1.806042313005074e-05
8.800770763503905e-06
9.252079697049782e-06
1.430527492331533e-05
2.018321512700469e-05
1.050417853015122e-05
1.565921765559422e-05
1.114255126067436e-05
2.189650328322721e-05
2.037117140294614e-05
1.466591268933308e-05
0.0001143857297299009
4.10282136360474e-05
1.204173180728683e-05
4.095972028770177e-06
2.403631807987821e-05
8.325719181297516e-05
3.729088633154703e-05
1.301169854428314e-05
1.816541734526629e-05
1.493888717414288e-05
2.483919361345183e-05
1.397503515306828e-05
3.610953746197486e-06
1.362310955471868e-05
1.195963623803154e-05
8.756252007368268e-06
4.949136977530751e-06
5.890835388953793e-06
1.197200031118965e-05
3.734787255395825e-05
8.123653899639899e-05
0.0001129789936536844
0.0001530010691753038
2.408960524242269e-05
1.963244565521868e-05
1.529205161763173e-05
6.229080844245528e-05
8.89511620704285e-05
8.939961516650453e-05
8.299713787280949e-05
0.0001274249005104124
0.0001309092352883001
3.967849807917721e-05
4.799623749486828e-05
4.825794251871249e-05
4.608964974554381e-05
4.47355581946061e-05
0.0001417389437164374
0.0003244980175843536
8.264391508584864e-05
6.621510396349655e-05
9.092824215788521e-05
6.082676989292051e-05
3.144289683535365e-05
6.570662570401402e-05
5.673797928772967e-05
2.380186499409192e-05
1.959047361478533e-05
1.829123226669453e-05
1.55073841787814e-05
1.133586132992627e-05
9.00974926138266e-06
7.704826566204882e-06
1.45444376830726e-05
1.396150866167881e-05
9.339891339448375e-06
1.723118537806267e-05
7.708922550066015e-06
1.020599343072715e-05
1.592223927171522e-05
1.580760454849436e-05
2.033903875701498e-05
4.688832999467072e-05
6.653439522456205e-05
7.690806789611293e-05
2.811838044443143e-05
5.2625668830416e-05
4.474640399158299e-05
1.922332595070034e-05
1.562229606362527e-05
1.383768150439102e-05
4.025780032374488e-06
8.276313414482592e-06
1.422426992756914e-05
2.979357621615189e-05
4.596261314340251e-05
1.849067508283618e-05
9.667482146967273e-06
1.027879087056793e-05
1.478030698610402e-05
2.230208655884041e-05
1.059462507151733e-05
1.619854925124638e-05
1.18890432526603e-05
2.279174691690674e-05
2.078424728957516e-05
1.504334326535461e-05
0.0001076223367781705
4.201214632081433e-05
1.212853458213082e-05
4.50378927947855e-06
2.377976932387886e-05
9.701155436040335e-05
4.72238307285081e-05
1.312027705530486e-05
2.03977767081422e-05
1.846923113464983e-05
2.522021077562527e-05
1.429143441752918e-05
3.781381226121663e-06
1.394454659525988e-05
1.144870027746979e-05
9.428326861603879e-06
5.299572598593481e-06
5.814671962574449e-06
1.166421977152669e-05
3.598941930296463e-05
7.683627151461162e-05
0.0001069352042816034
0.0001554296095011038
2.356942078732361e-05
1.970425392608169e-05
1.517041045106918e-05
5.992253870685606e-05
8.556785732465467e-05
8.920683733601908e-05
8.348258290365792e-05
0.0001328884106168616
0.0001335198474803973
3.991481469651118e-05
4.644064461185705e-05
4.904387927035449e-05
4.816587634801213e-05
4.468110456327503e-05
0.0001403596290567864
0.0003279750335044842
8.147444977834003e-05
6.615094496099167e-05
8.941413979103511e-05
6.103496462204431e-05
3.197735501607563e-05
7.019037784710663e-05
6.292025482684261e-05
2.412172915228167e-05
1.968749935350475e-05
2.086150557116356e-05
1.563782578083803e-05
1.143676381125644e-05
8.949418165055563e-06
7.923268818659175e-06
1.641426274291724e-05
1.315025194742542e-05
9.550738115066672e-06
2.061076510499601e-05
8.538785626134775e-06
1.042113462217489e-05
1.571154060198883e-05
1.601733379087214e-05
2.043634157801626e-05
4.847617006219115e-05
6.260950455786826e-05
8.007274234883409e-05
2.715328741731389e-05
5.132438170887489e-05
4.848358866009595e-05
2.458461216580647e-05
1.690136487564529e-05
1.388656163434157e-05
4.579975145323408e-06
8.534830300352202e-06
1.386511172405444e-05
2.885836461264302e-05
5.40362766672021e-05
1.889584557997614e-05
1.126357758257087e-05
1.229704546003825e-05
1.53244652378304e-05
2.57266296777557e-05
1.032573726268329e-05
1.684862991828979e-05
1.319695100316489e-05
2.243163821477033e-05
2.109600412917414e-05
1.554881465542832e-05
3.980865312137139e-05
6.351451087048573e-05
1.374045549542863e-05
1.361659073064781e-05
3.055746909348388e-05
0.0001547175420695988
0.0001759889491868534
2.159499103178298e-05
4.794351027116043e-05
5.312253045298705e-05
4.957154088244743e-05
2.504107205382073e-05
8.845884354041099e-06
1.821215858055674e-05
2.882352351567336e-05
3.096341780469038e-05
1.387293643924561e-05
4.992059424598113e-06
8.608257034167662e-06
6.027232096853293e-06
2.443215091191064e-05
4.588362316297981e-05
0.00014060829419114
0.0001315769532048958
1.728118003639994e-05
1.767703604297097e-05
3.283435613223413e-05
0.0001017512207527951
0.0001115077211189918
8.385572547359609e-05
0.0001070313978829082
0.0001155312758069395
3.139594669608514e-05
2.818680091959128e-05
8.599905416926289e-05
8.894557821286232e-05
5.049597668312002e-05
2.989316093470634e-05
0.0002467412440845713
7.652972163900399e-05
5.178984183624658e-05
3.946685951454599e-05
6.034001411154419e-05
8.021381103014505e-05
9.627972160467286e-05
9.928248214458248e-05
5.137403289011039e-05
4.032457632125353e-05
6.289082555407024e-05
2.316899471556507e-05
2.314596723021212e-05
1.901270833319876e-05
5.491215780149484e-05
2.795153602012286e-05
1.272461614222995e-05
1.000521179490794e-05
6.177328532494975e-05
2.132599701519267e-05
1.667818191355555e-05
1.364902854808386e-05
1.660002151527795e-05
3.731580757159914e-05
8.202663702317709e-05
6.803147683790156e-05
8.369578267965853e-05
2.236733765333671e-05
2.498089522245773e-05
0.0001042685790928543
7.89194350660668e-05
3.619079403268047e-05
2.926883634486744e-05
1.044419833523963e-05
1.332360278217654e-05
9.057350057818309e-06
3.667944696640603e-05
6.604893614306982e-05
3.747332183195626e-05
2.178616918910416e-05
2.459128083871584e-05
3.921257807638032e-05
5.897913741051951e-05
3.479974923647533e-05
3.242763304416766e-05
3.08928084377051e-05
3.244985862164759e-05
2.40322653588167e-05
1.756648646353792e-05
3.915817025276456e-05
6.489688372568032e-05
1.351291690238678e-05
1.670160822270482e-05
3.091123516486817e-05
0.0001448333193748886
0.0001998141757693076
2.226386650689823e-05
5.137909286795779e-05
5.415027074662306e-05
4.955885100586581e-05
2.707870373986756e-05
1.067454237956431e-05
1.7767502992907e-05
2.789878528945578e-05
3.489458098139879e-05
1.416878451351418e-05
4.920742763418431e-06
8.533405111980811e-06
5.808759408129725e-06
1.982877503726452e-05
4.127577553056806e-05
0.0001348879146690936
0.000151208062138414
1.90509778866425e-05
1.813377235416657e-05
3.651645500308794e-05
0.0001014702838811833
0.0001170759717623285
7.919054832918409e-05
0.0001017553855131575
0.0001147582852515434
3.106729865172906e-05
2.71274527588774e-05
8.713456278981304e-05
9.273611089069871e-05
5.216848300645332e-05
3.007024030968721e-05
0.0002201832915930671
8.25711621300414e-05
5.003559240819336e-05
4.009355851741745e-05
5.880490728273909e-05
8.347329033985397e-05
9.545521889425243e-05
9.952395008050314e-05
5.338626144413165e-05
3.824112437370476e-05
7.284285002253807e-05
2.388817072413476e-05
2.248905944183547e-05
1.920164822189804e-05
5.442352201531411e-05
2.895975536630331e-05
1.180726790554284e-05
9.792630106122324e-06
7.061233881913253e-05
2.163023522034546e-05
1.64385293614465e-05
1.303300614208825e-05
1.777149756075844e-05
3.614245003796792e-05
9.033465252911803e-05
6.923805599816097e-05
8.027418831513272e-05
2.210220044554461e-05
2.187729583375669e-05
0.0001046409929122117
8.066542830564769e-05
3.593252557128768e-05
2.962037944724896e-05
1.150486662154229e-05
1.588911816523552e-05
9.837824986288116e-06
3.571294868880977e-05
7.034891765808947e-05
3.965465242941552e-05
2.139781519499631e-05
2.413249241126228e-05
3.974885799679185e-05
5.441651540914272e-05
3.503542435958947e-05
3.312000634241806e-05
3.71578376106037e-05
3.329818850278562e-05
2.375567886046075e-05
1.734306685872633e-05
4.341679210166001e-05
0.0001116660821878942
4.942080147599523e-05
4.915777604739689e-05
2.30247643768199e-05
0.0001293764715532578
0.0002857900940565861
5.473893286983558e-05
7.812155454491312e-05
5.973882409387828e-05
4.793037903731307e-05
4.197363913301451e-05
2.295386503635748e-05
9.620677333836814e-06
5.397906822355919e-05
5.8088724279532e-05
1.198028142673917e-05
7.575045784897474e-06
1.383651413277665e-05
1.172934823595596e-05
9.244557187465405e-06
1.729585919443946e-05
3.71188057000916e-05
0.0001569308713993601
5.699886126375493e-05
2.015445635212678e-05
4.402005254207745e-05
7.014221120878995e-05
0.000188253121612759
0.0001096084448223419
7.949142387757662e-05
0.000145830010205877
7.720192144930359e-05
2.105440223924667e-05
5.759248598029657e-05
9.769425295305313e-05
8.588853065968047e-05
4.564892799782511e-05
8.630137851742526e-05
0.0001053896239175656
7.658248066116393e-05
3.250414058917092e-05
3.936030068869411e-05
0.0001125678477198029
9.791325526937065e-05
0.0001005415362175855
7.429529182902837e-05
4.543764931651339e-05
8.789847827408344e-05
3.875426078987141e-05
3.495442110496857e-05
2.502216496968946e-05
8.178995520195871e-05
0.0001008942331208203
1.448379658337227e-05
8.201927932131529e-06
0.000126225958478734
5.896980896450809e-05
2.271596184029364e-05
1.382295011946102e-05
1.96545199434289e-05
2.196418852967506e-05
0.0001678458019796945
0.0001220351767585993
7.540197841082868e-05
5.659813057637961e-05
1.258156389680135e-05
5.913504773257234e-05
7.676402409732129e-05
2.218942006045261e-05
2.132077574012881e-05
2.841405486569115e-05
3.277115341544849e-05
3.570342940836314e-05
3.747235835613641e-05
0.0001128110650219327
5.455060381078788e-05
6.86125634658134e-05
4.326037155645255e-05
2.203260875484937e-05
3.026992597844491e-05
1.646824772397381e-05
3.894224682922025e-05
6.043283430000334e-05
3.801659695424816e-05
1.712153540467953e-05
1.619897087204144e-05
4.300487408299749e-05
0.0001451466235405487
0.0001378769182732579
0.0001163747126685907
6.239627351896234e-05
4.057676891738113e-05
0.0002457102600375651
9.224794654246699e-05
9.695401114014015e-05
6.485140257184795e-05
3.604294974632938e-05
6.130999570838031e-05
3.164439392109599e-05
1.283423474546369e-05
7.375710372454273e-05
8.657492142829761e-05
6.877664240288278e-06
5.192348541850435e-06
1.588476191722514e-05
1.31305180548578e-05
1.61289644069295e-05
5.031310891447212e-05
1.552061959738933e-05
6.170921760801402e-05
3.357027396014878e-05
1.727237982030664e-05