/*--------------------------------*- C++ -*----------------------------------*\
| =========                 |                                                 |
| \\      /  F ield         | OpenFOAM: The Open Source CFD Toolbox           |
|  \\    /   O peration     | Version:  v1812                                 |
|   \\  /    A nd           | Web:      www.OpenFOAM.com                      |
|    \\/     M anipulation  |                                                 |
\*---------------------------------------------------------------------------*/
FoamFile
{
    version     2.0;
    format      ascii;
    class       volVectorField;
    location    "0";
    object      U;
}
// * * * * * * * * * * * * * * * * * * * * * * * * * * * * * * * * * * * * * //

dimensions      [0 1 -1 0 0 0 0];


internalField   nonuniform List<vector> 
5655
(
(-0.6181511527897136 0.09540229754319768 0.09171103704831783)
(-0.6476954278564744 0.008465020229596207 0.007430798474889473)
(-0.6620705675803344 0.001443232327871773 -0.002258950833986344)
(-0.6720270690379563 -0.0004265798319978498 -0.01434036778653847)
(-0.68554710989677 -0.002557852521708631 -0.02906854496569023)
(-0.6961262748707534 0.0005627001445791414 -0.03745402190279543)
(-0.7287737256024225 0.004426422631429467 -0.04280956682705479)
(-0.7325410455118789 0.005331868896435494 -0.03783037559160898)
(-0.7189780650191439 -0.002307469534276811 -0.02484257360761358)
(-0.7164348012300492 0.001825461076249936 -0.03702179860653862)
(-0.6788936885294999 -0.008919749378394362 -0.06528414536815041)
(-0.7092667932427548 -0.008226999371423835 -0.07729864096978672)
(-0.7258608465719775 -0.004208335052988798 -0.08720367427606157)
(-0.7201691570377931 -0.006485888940320999 -0.08688110804698575)
(-0.6969651895657551 -0.0080971557463699 -0.05703075619248951)
(-0.7463970120079796 0.002301536544594192 -0.01331012894948636)
(-0.8010768481682038 -0.004856859225780288 -0.01174758425260026)
(-0.7792478822761697 -0.01599271541357707 -0.05695316093753541)
(-0.7681037532593089 -0.002223611111873836 -0.03802867105450129)
(-0.7781844889269237 0.006311277694016226 0.03627572364222979)
(-0.7574791965782652 0.004931261249432503 0.04105596215558214)
(-0.7556970978859067 0.01375853387827024 0.03724146728368394)
(-0.8095365618383199 0.01582553920536782 0.03862744484382923)
(-0.8167194271324758 0.004735898855886541 0.02543175130152577)
(-0.8155097449506512 0.00597043431381713 0.02712288947644866)
(-0.7669040403425045 -0.01555753821169695 0.01764331950310993)
(-0.7307240334067565 -0.008917701612291242 0.01976463043500846)
(-0.7023097523754314 -0.005788358235329986 0.007607931831265943)
(-0.698262440712152 0.004994876176286529 -0.0102496767451428)
(-0.7094214421729508 0.0009587088921938708 -0.001578709476977417)
(-0.7111119290687428 -0.004004101998166552 0.007298842207218837)
(-0.6936416604850216 -0.01248004038845318 0.02370186946128355)
(-0.6990673621100807 -0.00897982008493565 0.04575533962599465)
(-0.7254977504502303 -0.0139771816522523 0.03935963309003114)
(-0.713292059625486 -0.01701131969857246 0.01819995082728879)
(-0.7707105640159327 -0.0006679011764786505 0.001216727379645993)
(-0.8481400802913429 0.01340322864681226 -0.03671675435001296)
(-0.8927822769707661 0.02016402357575927 -0.04437925003115956)
(-0.8590507948489869 0.01062900624930045 0.08003495109898777)
(-0.8463021517772155 0.006950442794976378 0.06885073211184083)
(-0.8970124948897045 0.01561014901711794 0.01375837708770334)
(-0.8760584506995343 -0.008537750245477111 0.02775549204152087)
(-0.8194531146382539 -0.007679239058496158 0.04521443588681958)
(-0.8859843670669241 0.01548533913546445 -0.002132248596350968)
(-0.9026733459172552 0.007608636578608762 -0.01922313761978613)
(-0.8527261418653199 0.01357445347687523 0.01384554302406146)
(-0.833919414429202 0.01435908402876881 0.01522642332170043)
(-0.8556803473407758 0.01593388747811531 -0.06688488080383875)
(-0.8451169126704545 0.01351229313322857 -0.06123960056376207)
(-0.80929446320687 0.0007335715376645519 -0.05656017771914213)
(-0.8224679458407882 0.007990884679301194 -0.07075262348216076)
(-0.7903605530291041 -0.004563179414337514 -0.05735423719176103)
(-0.7440162451632284 -0.003773610652722982 -0.0143019142353887)
(-0.7553028724586435 0.002665708948412817 0.009416099272939894)
(-0.7485307855999375 0.001904788528605946 0.02477192013475793)
(-0.7703909513601102 0.0001482380715086418 0.01099140052052624)
(-0.8023572595858229 -0.003134004384673441 0.0221047664805561)
(-0.8066376579061426 -0.003803413237345823 0.02017470785477381)
(-0.856121818446805 0.0007071809008554075 0.005011914615296986)
(-0.8313985449502689 -0.001981608878335623 -0.00780104997379087)
(-0.7975030553570134 -0.005900276471825885 -0.005881464389698957)
(-0.7978193456018503 0.002181653231872453 -0.003696509008516956)
(-0.7967600519661954 0.003078638518075765 0.01150386646363482)
(-0.7957381424025635 0.005972179301972729 0.01869489665723046)
(-0.7953012173008496 0.004681118020457443 0.0112335893771671)
(-0.7724125861786015 -0.00167257291960541 0.007773850990213915)
(-0.7602367772738553 -0.0001156091616898843 0.01177497709498895)
(-0.7821850880926441 0.001113018464106095 0.0138439671190053)
(-0.785325912163981 0.001287519105964738 0.004164994266988213)
(-0.7666773335091803 -0.0027469034499105 -0.003113756030704816)
(-0.7658722388088378 -0.00044568933254235 -0.009734136717283012)
(-0.7664182719889099 0.007273431430762074 -0.01795798438549506)
(-0.7528058029986764 0.006500969531418278 -0.01531920319802341)
(-0.7133619539318989 0.001760788519997859 -0.01814282644906801)
(-0.6836690467339652 -0.0006480888771581345 -0.01877213241117925)
(-0.6743768666001784 -0.002826883222605194 -0.01537970061558428)
(-0.659126550978864 -0.01087619391273007 -0.01917041384538023)
(-0.6312887570749012 -0.004780228443386148 -0.02913161782936846)
(-0.6403982732633623 -0.001097248560159153 -0.02006229550353122)
(-0.6258654604097937 -0.006444836735472836 -0.00778154503224406)
(-0.6125703663882639 -0.009316753616067054 -0.005721511848467271)
(-0.636421070779295 -0.005211898558350306 -0.0002551404946791345)
(-0.6704726628841219 -0.002787419247496114 -0.01077362178543403)
(-0.6596573259311532 -0.008441352567401156 -0.01017694734036034)
(-0.6442336574712525 -0.007094092328630475 0.01270934275425421)
(-0.6371260811356113 -0.002031405954809155 -0.001788633668442196)
(-0.6901805159083974 0.012218840965397 0.0002409734739261659)
(-0.615224926625575 0.09679164764958786 0.09245493540540696)
(-0.6450171914149122 0.008351609391082697 0.007763506746664726)
(-0.6587485977917203 0.001259255283571087 -0.001927818029214084)
(-0.6685251506177504 -0.0005833764114125208 -0.01402094928564646)
(-0.6821569614769066 -0.002532872610990175 -0.02874047579863329)
(-0.6922331983001597 0.0007627200763132965 -0.03744306925482016)
(-0.7260929740683859 0.004595271813638229 -0.04285902764651032)
(-0.7305841208408784 0.005221428732568146 -0.03755851951907649)
(-0.7158312122036585 -0.00238902246037706 -0.02430516350638828)
(-0.7136116195047099 0.001849972383812905 -0.03663297409248977)
(-0.6752499827484669 -0.008816875318505356 -0.06532221341488927)
(-0.7056858390651576 -0.00796060959015712 -0.07764326458431636)
(-0.7225685107586537 -0.004051560483732636 -0.08748555282716368)
(-0.7170331744169867 -0.006550270470639696 -0.08684051930102649)
(-0.6922786909328215 -0.008073567512912163 -0.05792655800498193)
(-0.7428234581560643 0.002181551941818892 -0.01416579868702834)
(-0.7990038954162872 -0.004878221507820196 -0.01127172389047019)
(-0.7769480427230103 -0.01622362142925643 -0.05766151422267132)
(-0.7665399608534912 -0.002493059160693885 -0.03909300111699214)
(-0.7770337443414712 0.006475029913735688 0.03608126400132937)
(-0.755141774927483 0.004780433226009516 0.04093708393855992)
(-0.7526217233738004 0.01370469150214543 0.03726807810136639)
(-0.8078173670217876 0.01602004003217031 0.03880581719386948)
(-0.8142451282713168 0.004889872996810206 0.02585008152139585)
(-0.8135782835914107 0.006324906335717173 0.02764806939841736)
(-0.7657699422821039 -0.01556018403452153 0.01763662069353443)
(-0.7288047837189813 -0.008847222965161926 0.01973895066867386)
(-0.6999027148239086 -0.00591129796716992 0.00768435034556267)
(-0.69659895936647 0.005185694237928599 -0.01036120722973815)
(-0.7072714197356172 0.001202352889435957 -0.001762917970602468)
(-0.7091388241071983 -0.00366750556190742 0.006908756936501616)
(-0.6918453362159015 -0.01239291974107635 0.02354438866877294)
(-0.697948404552705 -0.009207036380562693 0.0449810799164075)
(-0.7244159232155747 -0.01437629741403518 0.03857093367633586)
(-0.7108512143449642 -0.01712069254165742 0.01850243986001183)
(-0.7697032214871951 -0.0002389069846349384 0.00187186045263156)
(-0.8486026348588329 0.01407468438528532 -0.03597545221825406)
(-0.8922330467499776 0.02075606943236665 -0.04374068256409356)
(-0.856738688892389 0.01057226921014086 0.08236353836516601)
(-0.8445136603953202 0.00649478030489915 0.0698302441013008)
(-0.8963376024609065 0.01592242574372713 0.01343376799360477)
(-0.8734843517829745 -0.00823846665124686 0.02791539055009088)
(-0.8172522592661201 -0.007462651120548044 0.04532309992856034)
(-0.8847143299764313 0.01558694561068362 -0.002028213964787668)
(-0.9015668687217625 0.007434584772013338 -0.0193633153147359)
(-0.8509823101228886 0.01352779492619405 0.0143144407465605)
(-0.832381055669567 0.0144929822152763 0.01540873511434327)
(-0.853316969512609 0.01603863404516519 -0.06740910877099046)
(-0.8425472232474558 0.01351704912077664 -0.06142302055808567)
(-0.8076106915749889 0.0007334023356332132 -0.05696325883992516)
(-0.8203779181406626 0.008132545601596011 -0.071319588364396)
(-0.7874361097144924 -0.004759542709047699 -0.05810735124573019)
(-0.7413917366645053 -0.0038995799989805 -0.01477757852927591)
(-0.7521442973711284 0.002638136982068975 0.009292832601479161)
(-0.7449108776112318 0.001908690829085225 0.02516535452550443)
(-0.7676321413466364 0.0001211157007642846 0.01116989331690811)
(-0.798739943179973 -0.003193742952414964 0.02214472110970434)
(-0.803042298839742 -0.003835204234584126 0.02033014201616588)
(-0.8553267320226228 0.0006827773399864642 0.005272500273139013)
(-0.8295941173083988 -0.002015552641861473 -0.007988051265006912)
(-0.7947661743084258 -0.005924660250547082 -0.006318446095421533)
(-0.7960734095005533 0.002362967170693005 -0.004238382950706552)
(-0.794777606442566 0.003135184358700123 0.0111291755873365)
(-0.793642851715967 0.00609582262743819 0.01860328133247524)
(-0.7935679135642999 0.004753271890753481 0.01107609592288076)
(-0.7701314908482577 -0.001726321755547261 0.007486909806554268)
(-0.757409432785987 -0.000119083249621323 0.01146323264825887)
(-0.7804231405310422 0.001118940462545597 0.01380288716396724)
(-0.7831746319935338 0.001264427787473658 0.00412489935791151)
(-0.7641061443834126 -0.002801961971213197 -0.003094115668504045)
(-0.7640954734949481 -0.0003909869126185155 -0.009794721995799061)
(-0.7646670722861435 0.00733370703374003 -0.01829070196910282)
(-0.7510906011507263 0.006517167146946391 -0.01557137149048935)
(-0.7120092121613024 0.00186595866047306 -0.01852604987389179)
(-0.6813465597875445 -0.0005556240931625111 -0.01932562634743444)
(-0.6718625280368513 -0.002803168237721321 -0.01577396762879893)
(-0.6568150818101178 -0.01096022398551065 -0.01924968102720275)
(-0.6284176209330699 -0.004729523905908185 -0.02955692246942505)
(-0.6375871970437484 -0.001202716447509201 -0.02070948273211764)
(-0.6231059952370985 -0.006601231936637563 -0.008168109714642395)
(-0.6084764347680277 -0.009525985775953545 -0.006289994363936175)
(-0.632157043091594 -0.005268766018159229 -0.0003876035010494101)
(-0.6675873486743295 -0.002780955757478372 -0.01056910240029803)
(-0.6569164885505345 -0.008604381368083343 -0.01037231588019442)
(-0.6418123038524016 -0.007174860346024332 0.01285177645942032)
(-0.6346720136207877 -0.002086651762892899 -0.00204448026394982)
(-0.6881937485343186 0.01245706696112761 -0.0001179483827874949)
(-0.6083425720887062 0.09686077704695464 0.09258664942305188)
(-0.6414529148115671 0.008166395206449998 0.008226617003821718)
(-0.6512256982772119 0.0008078227996016324 -0.0007574573415407484)
(-0.6601970804604289 -0.001140856327655287 -0.0127090242459334)
(-0.6774948838642485 -0.00251131506349832 -0.02828280534527523)
(-0.6833807814652426 0.001137574384471416 -0.03746204463672291)
(-0.7194225893597729 0.00480514726234043 -0.0431647713123558)
(-0.7279219795947577 0.005048172061139356 -0.03719521968405337)
(-0.7088786273551815 -0.002374241345908659 -0.02333563866053727)
(-0.7069705774364381 0.001712403225787439 -0.03584387630868987)
(-0.6703235698586711 -0.008692686184602907 -0.06536980466153468)
(-0.6973629374928112 -0.007450306193482517 -0.07819671522256291)
(-0.7156919233791308 -0.003942328126141627 -0.08784195267629877)
(-0.712813059405314 -0.006655790929005182 -0.08673842055734578)
(-0.6836541256033825 -0.007930761691450777 -0.05944804967909834)
(-0.7367446583159967 0.002159408649131793 -0.01597334733281397)
(-0.7962659806668697 -0.004963055287212473 -0.01072035177731378)
(-0.7734935193797713 -0.01647266002125895 -0.05816097260126711)
(-0.7652608907994655 -0.003195193566267057 -0.04095045447113373)
(-0.7756005132883067 0.006675551266336933 0.03581025861417329)
(-0.7519193481014235 0.004617040680804894 0.04061118108142611)
(-0.7484635296805727 0.01365431654714475 0.03718765401779599)
(-0.8055324685278165 0.01628541300746796 0.03901232215543258)
(-0.8104294922777235 0.005204978018238555 0.02633400674778429)
(-0.8098338367382868 0.00679555431152749 0.02820060076592286)
(-0.7642716291421503 -0.01556252112705801 0.01767136382160968)
(-0.7263254033176344 -0.008581989618127967 0.01953987774314982)
(-0.696746368040585 -0.005785770617517472 0.007680634776229536)
(-0.6945314468897295 0.005430719853261886 -0.01055430567351408)
(-0.7029510191798282 0.00173591307573407 -0.002440943966699752)
(-0.7046749098023215 -0.003165264250679927 0.005882784288066604)
(-0.6894253814856192 -0.01227104166122432 0.02328977204176486)
(-0.693754452059377 -0.0101404678535775 0.04375378046462326)
(-0.7193646798824639 -0.01529283206007463 0.03752671497995677)
(-0.7075306646657892 -0.01721680364178893 0.01898412222343889)
(-0.7648227872701971 0.0001889898574650079 0.003648993862656826)
(-0.8469373559413531 0.01493307746538865 -0.03455689358445601)
(-0.8910218628677402 0.02151258756553568 -0.04300012684656427)
(-0.8517775130313135 0.01116455811299444 0.08493235331071095)
(-0.8425225213946131 0.00657116228056809 0.07057416986501781)
(-0.8952210163477287 0.01647295552721111 0.01305228913770326)
(-0.8701454460333314 -0.006974385865262502 0.02623832503639149)
(-0.8146582624560437 -0.006805338550793867 0.04512775710495815)
(-0.8829594735788276 0.01567505308262433 -0.001978065308220535)
(-0.8993727814450659 0.007468835235921422 -0.02014204031298594)
(-0.8491381465370909 0.01361810872683868 0.01402333187716479)
(-0.8303241495529123 0.01470994065721748 0.01562399196663852)
(-0.8473859572277058 0.01555414189763266 -0.06789897361255387)
(-0.8372650138033495 0.01331188149332205 -0.06244620129621943)
(-0.8054262795679588 0.0007345238347392171 -0.05756245899373387)
(-0.8151105801339674 0.008019575465112517 -0.07220098506926786)
(-0.7821145146044541 -0.00512782448103149 -0.05971907868960617)
(-0.7379918671678156 -0.004050144013330015 -0.01533992378873555)
(-0.7462223844864997 0.002450459927797182 0.008903332688093906)
(-0.7387331216871363 0.001972229727127274 0.02573188556392278)
(-0.7639090279503995 8.887761983207516e-05 0.01149580906540749)
(-0.7922095505544291 -0.003228929268293327 0.02213005994020696)
(-0.7962347800712741 -0.003602594530919414 0.02079363321372166)
(-0.8542335152634097 0.0006645745697896333 0.005558854712465222)
(-0.8263287328877353 -0.002040651322416472 -0.008320155393557484)
(-0.7895946204120076 -0.005656366475643997 -0.007422958529056339)
(-0.7937539818431502 0.002603262143561145 -0.005029187624322128)
(-0.7914803494358527 0.0034746098529484 0.009945297466748092)
(-0.7898057996945222 0.006349871939140345 0.01798512183819882)
(-0.7912649371221123 0.004843002459130951 0.01085293504446099)
(-0.7657954871405788 -0.001814071571769814 0.006858868379377107)
(-0.7527093724419676 -5.373420469636982e-05 0.01074208735124149)
(-0.7781172239841809 0.001132715945527506 0.01370965176172543)
(-0.779215670418826 0.001171996579097368 0.004078906045567391)
(-0.759425472381448 -0.002819612814884098 -0.003101641303504666)
(-0.7617663981668833 -0.0003268433533514088 -0.009871453845742791)
(-0.761837526388836 0.007394139017899945 -0.01942924251772698)
(-0.7482080592652819 0.006529904500544578 -0.01649121822614454)
(-0.7101988590847687 0.002006461711766098 -0.01910860218761833)
(-0.6772213727994171 -0.0002859013566129305 -0.02084259736476985)
(-0.6669843893346554 -0.00277536655700394 -0.01670238117503669)
(-0.6537887502427669 -0.01105227164322594 -0.01929500759422837)
(-0.6225302707317462 -0.004758965416651036 -0.03008237361635652)
(-0.6319663247270513 -0.001328870663578739 -0.02183482814711848)
(-0.6193657070685197 -0.006825078588485088 -0.008659669288199933)
(-0.6007008782544456 -0.009781916594187732 -0.006916916481201366)
(-0.6240793065702235 -0.00529320015566955 -0.0003544239421815217)
(-0.6636933928076387 -0.002766330712331055 -0.01020713270339865)
(-0.6513197100719268 -0.008938816409104995 -0.01075834232894049)
(-0.6367474630145189 -0.007245201496394426 0.01291087903724787)
(-0.631469600073571 -0.002134923274626342 -0.002313959502502517)
(-0.6814126380442168 0.01271725184402297 -0.0008034970088715097)
(-0.5963002515996215 0.09553425416186211 0.09208143566918175)
(-0.6370615523359104 0.007912552821434372 0.008812580940286793)
(-0.6382256206733992 1.107966928541506e-05 0.001464733078684024)
(-0.6456188961061377 -0.002199998307915619 -0.01016365385626898)
(-0.6716380253954226 -0.002493545012844008 -0.02770301311146917)
(-0.668065609387693 0.001747892780693948 -0.03751481260043204)
(-0.7076138128086511 0.005085970865924105 -0.04378470097591849)
(-0.7245985200742726 0.004815095987208754 -0.0367465332581094)
(-0.6969484631968969 -0.002254736173398192 -0.02177706312999778)
(-0.6953793152811946 0.001384039933451056 -0.03452436672450329)
(-0.6641960908872309 -0.008549182539312273 -0.06542593568547284)
(-0.6828827559327806 -0.006612898781011431 -0.07904453223151886)
(-0.7040875104855375 -0.003869382455002384 -0.08832442336776926)
(-0.7075791582042911 -0.006800661315656422 -0.08657654716016837)
(-0.6696934742860008 -0.007642433082502044 -0.06183869768014119)
(-0.7271993105831648 0.002240603564110016 -0.01903170434424742)
(-0.7929093120883538 -0.005109794468549547 -0.01010202478866438)
(-0.7683566517928746 -0.01677523591441044 -0.05850300983899415)
(-0.7641212574873497 -0.004450897937124816 -0.04389669942060948)
(-0.7739088751427887 0.006909356572453598 0.0354671152349007)
(-0.7473318617330476 0.004418504587580569 0.04002121360469943)
(-0.7426076888826266 0.01360154492957896 0.03698088268492603)
(-0.8027206815751073 0.01661710678618796 0.03924338675265781)
(-0.8046837726218912 0.005733617164662702 0.02694982846796762)
(-0.8036635123396569 0.007452242689847269 0.02885388372991646)
(-0.7624349000151076 -0.01556444841251091 0.01774688530231081)
(-0.7229304924971532 -0.008072411060257387 0.01912975422187344)
(-0.6923821414571811 -0.005376105386349388 0.007588651251068482)
(-0.6920941875197453 0.005726023317484672 -0.01082609526540616)
(-0.6957467809624424 0.002649340891390968 -0.003737269181235993)
(-0.6969643634578282 -0.002420750206739573 0.00404299488537163)
(-0.6864217667597148 -0.01211657329571895 0.02294247332552254)
(-0.6857202729866489 -0.01194980619595677 0.04188456167869647)
(-0.7094080808062061 -0.01688069263172618 0.03607519296603329)
(-0.7033852191457173 -0.01729809536300838 0.0196374750659394)
(-0.7551556081220139 0.00067032066405605 0.006862324107452347)
(-0.8427737809890289 0.01610256341806144 -0.03222985046689296)
(-0.8891692807814553 0.02242107852255637 -0.04216992944158485)
(-0.8433311667091002 0.01252874862877719 0.08808537003762013)
(-0.8400481373230229 0.007228451588470793 0.07115779715427056)
(-0.8936817509039392 0.01725270063251117 0.01261890395490938)
(-0.8655661515352864 -0.004511386543548513 0.02236866112379692)
(-0.8113074138507863 -0.005590032331886844 0.04457878041579888)
(-0.8807482054791199 0.01574819124024612 -0.001982258817251365)
(-0.8957315730791839 0.007729731963135827 -0.02170869858026193)
(-0.8469467810041382 0.01386783677691393 0.01288002010087018)
(-0.8277830218272395 0.01500629216738734 0.01586847001354359)
(-0.8368611393135398 0.01437444873351465 -0.06841469699753765)
(-0.828391466588575 0.01285473232531645 -0.06450092627809222)
(-0.8027769707317822 0.0007367300684854243 -0.05834734051232637)
(-0.8057586120913571 0.007619696620820045 -0.07353421809073525)
(-0.7735360371273011 -0.005728514054860027 -0.06245787715671156)
(-0.733873103666596 -0.004222915639546562 -0.01597989620973772)
(-0.7365762757898069 0.002067295892422923 0.008177435187465798)
(-0.7290171904116359 0.002107917407618955 0.02655755336104935)
(-0.7592840000773824 5.209510132271822e-05 0.0119634473340717)
(-0.7817133726635678 -0.003241906334338334 0.02205495569857071)
(-0.785104680893519 -0.003056031924885723 0.02164604881099974)
(-0.8528605157264184 0.0006528830109580421 0.005866294208248107)
(-0.8210771965530801 -0.002059229946826432 -0.008851518890787301)
(-0.7811442921917133 -0.005040121355293586 -0.00938547866007608)
(-0.790899423138675 0.00289872200178637 -0.00605581432851809)
(-0.7863485437039783 0.004160906914612439 0.007740291549272834)
(-0.783606904747562 0.006776768620030628 0.01672242843210679)
(-0.7884305466172382 0.004948740453846516 0.01056754425952722)
(-0.7586972518651792 -0.001949771726661104 0.005783713691585525)
(-0.7453948950913155 9.387402304676272e-05 0.00948915412559672)
(-0.7753055863662673 0.001154071410890503 0.0135659698339305)
(-0.7728084048552645 0.0009935806000068081 0.004020632692513086)
(-0.7518782047669118 -0.002799851009251456 -0.003139782485543422)
(-0.7589235836765871 -0.000254323422426733 -0.009963199944691753)
(-0.7574889915342482 0.007462841438633569 -0.0215792897073171)
(-0.7437028670913381 0.00654093018629234 -0.0182462498126667)
(-0.7079616073392077 0.0021800134733481 -0.01988094390282134)
(-0.6706324548402282 0.0002086900584004361 -0.02358900230746647)
(-0.6589436662189307 -0.002739318723952043 -0.01832313089515117)
(-0.6500978447943028 -0.01115092556587557 -0.01930579036437597)
(-0.6126506525416132 -0.004878245390764245 -0.03078327182956109)
(-0.622610441221401 -0.001492713427184857 -0.02361668828124169)
(-0.6147071580411831 -0.007112573230792393 -0.009248068633836582)
(-0.5879751438371501 -0.0101210251295951 -0.007687091314623008)
(-0.6108743048483868 -0.005285669027015487 -0.0001386291994041989)
(-0.6588561674027422 -0.002743769370604242 -0.00969408421360177)
(-0.641939818566102 -0.009500307344853355 -0.01139957734334138)
(-0.6281946664347041 -0.007313583642694287 0.01288932477600256)
(-0.6275713777042559 -0.002175555133131248 -0.00259289637519198)
(-0.6685933526324749 0.01303694063056208 -0.00193123042558438)
(-0.3963185869756669 0.1062911708770488 0.07970561383711104)
(-0.3781341330124093 -0.002353280063429369 0.04325428869203422)
(-0.3871210015099704 -0.01811367723572012 0.03492461149250019)
(-0.3707342129382431 -0.02389391352869247 0.02587273914454143)
(-0.3586031014141987 -0.01086904459728523 0.006098311075035064)
(-0.3857249403632134 0.007876271576047282 -0.03390010154784003)
(-0.4718895318492078 0.01258983230615085 -0.04728328096883401)
(-0.503762824650597 0.001766516641803639 -0.01304515402373556)
(-0.4758306361796367 -0.006888571918705967 0.008284385209307462)
(-0.4581948950440254 -0.00863964574426767 -0.01051114015840308)
(-0.3438820802724905 -0.00864388421710037 -0.05633134275041335)
(-0.4011261550920721 0.007202164834336889 -0.08892460545884653)
(-0.4632009542229404 0.001625835474870487 -0.09259294371942989)
(-0.4193331458618322 -0.007929152267570809 -0.0850949793624106)
(-0.3982228075888328 -0.005497159719740441 -0.1067721024773426)
(-0.4983846803143217 0.001219564066123525 -0.07689981162650696)
(-0.5728340915831249 -0.01157046155662127 0.00216893063643785)
(-0.6151444848192067 -0.01840486593745994 -0.06268501433902511)
(-0.6724788647375262 -0.01958623005376176 -0.09303846807709518)
(-0.685968694552938 2.498598400150088e-05 -0.002548181961207725)
(-0.6374800906908528 -0.003808725302505771 0.02304834380454945)
(-0.6098856113860468 0.0119077224116967 0.0305836144148654)
(-0.641882939741121 0.03129338801384479 0.04623966981792907)
(-0.675807373900987 0.005774700700795892 0.03801761518094498)
(-0.6885936479933511 0.01279396906098761 0.03878022045758893)
(-0.6530085583395268 -0.005043870555760903 0.02423634527338638)
(-0.6448646084608788 0.00223064128154271 0.01413531668793789)
(-0.5979727059805763 0.009000380395228432 0.004245198316710196)
(-0.5666276623851501 0.01554686052025368 -0.03601225229090797)
(-0.5464903048023314 0.01185776985164878 -0.0331262560516046)
(-0.5374107128897917 0.01115764345391655 -0.02642028651589536)
(-0.52251734596469 -0.004434593753690123 0.000790161556118483)
(-0.5320469821898205 -0.02675401898734218 0.0006876078413477595)
(-0.5415002937762554 -0.03871782575574614 -0.008702738310125732)
(-0.4992905216618802 -0.02260410700570839 0.03603500716994653)
(-0.5793859825982682 0.01218061085237191 0.05199382148626513)
(-0.7329155977091277 0.04125303811386274 0.01733043007068897)
(-0.7592542415620358 0.06289917784168624 0.02542700744060497)
(-0.6624906506601348 0.03838137180515636 0.152692320849333)
(-0.7276969764871017 0.02279941619127605 0.09960960167384367)
(-0.7809759445590343 0.04652334710860069 0.003554428779659913)
(-0.7268072677416935 0.03034480221914235 -0.0182472534439275)
(-0.670206010383148 0.01848966976917859 0.03692388373604312)
(-0.7324944878517259 0.02686031192656989 0.008837722363811584)
(-0.7703448404447867 0.01401679481517753 -0.04337079867974579)
(-0.7420637362485579 0.01560109682875218 -0.008729799024321867)
(-0.6808313951274263 0.01765456424281505 0.0171840650868338)
(-0.6380629080502657 0.004172527355749411 -0.08183914323511997)
(-0.6409057826503299 0.006797238379412473 -0.09688850634599791)
(-0.6062449596735087 -0.002135134406799658 -0.10602530630835)
(-0.6078010295578617 -0.001396404898007483 -0.1083884018191171)
(-0.5776099955200148 -0.02022568356733532 -0.1098537370621817)
(-0.5020903968322993 -0.01898012765967552 -0.06350330208801153)
(-0.5288139732424667 -0.008322850758190409 -0.01420265165002257)
(-0.5306938272234566 8.327858801050899e-05 0.03376550155753381)
(-0.528041204956303 9.232310995869195e-05 0.02855085652080102)
(-0.5700063377163419 -0.004259339118996329 0.02348672142949793)
(-0.5788959344168763 -0.001895619324670034 0.03605809987382361)
(-0.6848052548537878 0.008655970012395445 0.01505390399138572)
(-0.693043486500162 -0.0006719775975195995 -0.004236616887167443)
(-0.6379042405630234 -0.00114686083083191 -0.03035109073068892)
(-0.6440967157789773 0.0170111192768889 -0.05428460818824381)
(-0.668702830073404 0.01642364000996886 -0.04123545060701282)
(-0.6588027194281915 0.01546304800113036 -0.01171548670205784)
(-0.6377268530533885 0.01062197306068957 -0.007669400390407723)
(-0.6116124243523601 -0.0005431995898649597 -0.02238149739137104)
(-0.5897370850950946 0.001934833750803578 -0.01968194537786658)
(-0.5852761424460047 0.002635796222736709 -0.002467666843251112)
(-0.6102201017403928 -0.001219200673573812 0.0001939561485420648)
(-0.5841417419838687 -0.004448481162369931 -0.007397180178873438)
(-0.5884459998106355 0.002300390052025169 -0.02254113928291491)
(-0.6459686694751149 0.007900178928887613 -0.05202728495899694)
(-0.6313441816134416 0.00421145606854648 -0.05301988500375882)
(-0.5693682807361004 0.008082584062934238 -0.05860181417678246)
(-0.5336770522927929 0.006704507217869347 -0.0649761940991246)
(-0.4950091159869483 -0.004595653615308695 -0.05066911024855586)
(-0.4472829241804907 -0.01957507811259927 -0.03495942300364336)
(-0.4158494056034041 -0.009035409588235392 -0.05188086053741089)
(-0.4275284259194351 -0.005475359910457593 -0.05899730384699613)
(-0.3744380554237624 -0.02078009585186035 -0.04433705988571836)
(-0.3455184762087775 -0.01823312855464636 -0.02757425495469835)
(-0.3656516161783115 -0.005809948957947588 -0.002564754530498223)
(-0.4121858696873908 -0.004973659296492204 0.001842576727872859)
(-0.4400780000890993 -0.0145812946610071 -0.01675800666556751)
(-0.4428750559180838 -0.009437023281073646 0.0158560472701177)
(-0.4157362889075779 -0.00335307716751082 -0.01327483836696432)
(-0.4642423632484908 0.01820503978327827 -0.02738111090113431)
(-0.3813457706276646 0.1108292251891528 0.07178292424152335)
(-0.3719935883831062 -0.002499776727723365 0.04398500355336028)
(-0.3704785781933436 -0.01935687860295821 0.03670596264527176)
(-0.3530737175484988 -0.02544658658931943 0.02780601268857661)
(-0.3518759064948549 -0.01130242500839265 0.007104145976205318)
(-0.366979820256224 0.008548688192057605 -0.03400566129846114)
(-0.4566580588196598 0.01351409016231287 -0.04806887923692181)
(-0.4986706938658411 0.001843255082065412 -0.01263708879926282)
(-0.4611932337882066 -0.007044227018123973 0.01002060012840325)
(-0.4434532118925883 -0.00938795020612666 -0.008915761788382538)
(-0.3366537964608272 -0.008880090057085704 -0.05581227830734369)
(-0.3832438726838294 0.008445161675746266 -0.08977595240492105)
(-0.4485392961890372 0.002184167581462307 -0.09291744960801221)
(-0.4126343278824021 -0.007939251651734664 -0.08503352051965235)
(-0.3787800025501614 -0.005235800465597843 -0.1104401672855337)
(-0.4810550382950393 0.001218350826464779 -0.08226282764451724)
(-0.5660083983717062 -0.01163479858764513 0.002621313066564653)
(-0.603126738309914 -0.01829284441724167 -0.06329820479891148)
(-0.6650132971188206 -0.02113753776924772 -0.09751130730635392)
(-0.6841087065870788 -0.0003442470258818364 -0.003687902069612184)
(-0.6283325214621674 -0.004804610477422946 0.021873234461944)