/*--------------------------------*- C++ -*----------------------------------*\
| =========                 |                                                 |
| \\      /  F ield         | OpenFOAM: The Open Source CFD Toolbox           |
|  \\    /   O peration     | Version:  v1812                                 |
|   \\  /    A nd           | Web:      www.OpenFOAM.com                      |
|    \\/     M anipulation  |                                                 |
\*---------------------------------------------------------------------------*/
FoamFile
{
    version     2.0;
    format      ascii;
    class       volScalarField;
    location    "0";
    object      nut;
}
// * * * * * * * * * * * * * * * * * * * * * * * * * * * * * * * * * * * * * //

dimensions      [0 2 -1 0 0 0 0];


internalField   nonuniform List<scalar> 
2838
(
4.382123233223959e-08
5.096467190539047e-08
1.876349224622683e-07
4.174797005092058e-08
1.294136054301284e-07
1.829295037400136e-07
3.041115877878064e-07
3.644525660903331e-08
2.758317528122345e-08
8.780434616874421e-09
4.411187669099089e-08
1.591337982796164e-07
4.596795279343967e-08
8.022338740288986e-09
1.203353759040629e-08
2.828973817182946e-08
2.573036304213282e-08
8.127928152037037e-08
1.82173117423893e-06
5.057211910787837e-07
1.175405571121671e-07
2.388883854523417e-07
1.022743014500361e-07
7.733256643419374e-08
5.815242382335717e-08
2.270214210094749e-07
3.589710012691244e-07
2.526829932192049e-08
1.455238067124049e-08
2.918761099642111e-08
7.073450714638946e-08
4.258310179133179e-07
2.619578761284702e-08
2.41106528681464e-07
2.121526067489056e-07
2.753816164363362e-07
2.16153700972677e-07
2.886907304080065e-07
7.767341141735846e-08
1.00905631629281e-08
4.269188850040219e-08
5.000082671725019e-09
6.083652360653982e-09
5.200648636203566e-08
9.829736950957734e-08
2.024097250516716e-08
4.926380901813047e-08
0.0001
0.0001
0.0001
0.0001
0.0001
0.0001
0.0001
0.0001
0.0001
0.0001
0.0001
0.0001
0.0001
0.0001
0.0001
0.0001
0.0001
0.0001
0.0001
4.841279907970727e-08
2.960123854260739e-08
1.859942991002798e-07
4.227478519003365e-08
1.319770266486101e-07
1.95221931506873e-07
3.373532808198417e-07
3.945856126225458e-08
1.625902221056962e-08
9.039219875743661e-09
4.564339277007031e-08
1.55918788442927e-07
3.350307233576339e-08
8.688040107349162e-09
1.282774251633689e-08
2.294600289722477e-08
2.69653751675512e-08
8.802342087193784e-08
1.699881501125854e-06
4.156117303865566e-07
1.222753309824039e-07
2.554041776341171e-07
4.587012604172476e-08
8.170357665462e-08
5.845604970182624e-08
2.267914094775381e-07
3.017711645894042e-07
2.474330459921145e-08
1.465359152709454e-08
1.469394741348456e-08
7.446060115484737e-08
4.851357093395393e-07
2.228149433299811e-08
2.302033187878189e-07
2.121198191402342e-07
2.915102789039763e-07
1.77141826511658e-07
3.036195983122524e-07
8.590614997156402e-08
9.072515779809506e-09
3.884218506114863e-08
5.529284231376774e-09
6.376510624421561e-09
2.202898317628515e-08
1.059474821067733e-07
2.111147893787814e-08
4.381579220557815e-08
0.0001
0.0001
0.0001
0.0001
0.0001
0.0001
0.0001
0.0001
0.0001
0.0001
0.0001
0.0001
0.0001
0.0001
0.0001
0.0001
0.0001
0.0001
0.0001
7.61326199748406e-08
9.829063188053803e-08
2.836505237895472e-07
4.801768101288056e-08
1.417089064301661e-07
1.793000842954197e-07
5.092168816182769e-07
5.759156485585868e-08
5.433258121080075e-08
1.625787650661981e-08
5.512513389340872e-08
2.772151222444355e-07
9.648338574066909e-08
1.216732525170334e-08
1.947944223317457e-08
3.976344824480789e-08
4.312279162208487e-08
1.138869225332772e-07
3.64033880164247e-06
9.698797583800638e-07
1.452264978454478e-07
3.767013196884834e-07
1.900169530407274e-07
1.322339746499259e-07
5.870648214965344e-08
2.78942484310877e-07
7.398776989574735e-07
2.575995571769063e-08
1.75601463653812e-08
4.868972224512651e-08
1.212057037219287e-07
7.507577922042177e-07
3.556027883793162e-08
3.022700134073565e-07
2.250300711839667e-07
4.424086676034636e-07
3.042132059531177e-07
4.171341592740392e-07
1.250045779151102e-07
1.202209885833704e-08
8.438988113761191e-08
7.885866178081367e-09
1.081063591145839e-08
1.078354382386559e-07
1.546809446807087e-07
2.656272195863469e-08
7.483690907140045e-08
0.0001
0.0001
0.0001
0.0001
0.0001
0.0001
0.0001
0.0001
0.0001
0.0001
0.0001
0.0001
0.0001
0.0001
0.0001
0.0001
0.0001
0.0001
0.0001
2.980017806407723e-07
1.254024024273961e-06
7.059793691355738e-07
1.232990301183016e-07
2.129488615740504e-07
2.948450166425183e-07
2.451590439642414e-06
7.015152916480917e-07
2.046384491020191e-07
1.488425182910637e-07
2.194394659314978e-07
9.150338654705635e-07
4.465124637918062e-07
2.409394758343832e-07
3.353870358141847e-07
2.173068663387271e-07
4.057652364698589e-07
4.603047434592244e-07
1.406823826863652e-05
3.55256280470881e-06
8.36154479564713e-07
3.688205134737025e-06
1.707785610168684e-06
2.158091656851817e-06
7.346774352714235e-07
1.508602908061844e-06
3.084031379641481e-06
2.150772765839678e-07
2.098405734339336e-07
5.802103176384685e-07
1.493431174848042e-06
3.967882306666565e-06
6.891424722677095e-07
9.594931522888573e-07
2.138473138269001e-06
1.913471521857578e-06
1.449079517950156e-06
1.270071398864946e-06
5.267001838875748e-07
7.344598189772822e-08
2.943051271560237e-07
1.12334111144052e-07
4.264659547894217e-07
8.397124224353594e-07
5.271137359456208e-07
2.429229752787799e-07
3.657012991201555e-07
0.0001
0.0001
0.0001
0.0001
0.0001
0.0001
0.0001
0.0001
0.0001
0.0001
0.0001
0.0001
0.0001
0.0001
0.0001
0.0001
0.0001
0.0001
0.0001
3.128379366199387e-07
1.735327731753741e-06
7.452810402916624e-07
1.35858690092828e-07
2.081853621526623e-07
3.460737513351368e-07
2.608304886211851e-06
9.259993594878092e-07
2.127503092927344e-07
1.941243420937175e-07
2.508570358972787e-07
9.723757392330691e-07
4.878062776793367e-07
3.279455280055713e-07
4.585650387385098e-07
2.697641747747105e-07
5.225502130993921e-07
4.914373515361162e-07
1.525793364357802e-05
3.592006753730764e-06
1.095753161862747e-06
4.977439520620825e-06
2.263615738510379e-06
2.988333064095411e-06
1.028291864391419e-06
1.936649927644706e-06
3.336772949513955e-06
2.931964875843891e-07
2.95258935092719e-07
7.949503527369908e-07
1.973061560541629e-06
4.702826272307072e-06
8.554810092820633e-07
1.127880791032747e-06
2.8719458628285e-06
2.189006891973697e-06
1.809820555790613e-06
1.3249453437112e-06
5.539182342579031e-07
1.00563239634409e-07
2.963873019889232e-07
1.406318264255544e-07
6.235957229878259e-07
9.472780042554435e-07
5.372736233026726e-07
3.081379403316162e-07
4.608301977646706e-07
0.0001
0.0001
0.0001
0.0001
0.0001
0.0001
0.0001
0.0001
0.0001
0.0001
0.0001
0.0001
0.0001
0.0001
0.0001
0.0001
0.0001
0.0001
0.0001
7.429273076640185e-07
8.945308174184869e-06
1.950879256907217e-06
2.869440571912361e-07
1.433415513378754e-07
1.496909476453857e-06
3.268423602602142e-06
4.653311744839445e-06
3.86458572282988e-07
1.172533637506398e-06
7.184785694773433e-07
2.237597988652286e-06
9.465252549336866e-07
2.05516912694366e-06
2.248967819661054e-06
2.593845291524535e-06
2.441750615884317e-06
5.955208297004753e-06
3.3305303613221e-05
6.193692298774252e-06
7.208198533060479e-06
2.066759894497667e-05
1.081705155087291e-05
1.340859200938686e-05
6.408365983654983e-06
7.81428061444228e-06
6.837249658012853e-06
2.130156940782389e-06
3.248566920103227e-06
5.611965226711653e-06
8.647901974213916e-06
1.370769178638965e-05
4.670897334103866e-06
5.101560213271034e-06
1.917095113737694e-05
7.157830848427515e-06
7.783847166928291e-06
1.880521284486191e-06
1.205222061526272e-06
1.188258129015466e-06
1.431565418217578e-07
5.579027171260751e-07
4.648031538083446e-06
5.53971469802353e-06
2.738513053387432e-06
1.149175380122472e-06
2.155250696373698e-06
0.0001
0.0001
0.0001
0.0001
0.0001
0.0001
0.0001
0.0001
0.0001
0.0001
0.0001
0.0001
0.0001
0.0001
0.0001
0.0001
0.0001
0.0001
0.0001
2.021523542211411e-06
4.222512601463767e-06
1.158069123855976e-05
1.333142826798803e-06
9.820227558994882e-07
2.90644189987728e-06
2.887622267610508e-06
6.133846057600476e-06
3.467601042955633e-06
4.376836807830957e-06
2.472430023296728e-06
1.412545171471399e-05
3.595449558526255e-06
6.955682581644305e-06
3.279775920775861e-06
1.507452590605621e-05
4.001774206406416e-06
9.427697719366747e-06
7.350400291682978e-05
1.140832487959158e-05
1.204124883462955e-05
7.226690488819879e-06
5.358392028017631e-06
7.466972745309051e-06
1.127072120125186e-05
5.498496979818184e-06
2.626223779186939e-05
1.588260719675517e-05
1.562318157507718e-05
2.307558508753108e-05
1.478620813831372e-05
1.333961571906432e-05
1.474399985177203e-05
3.244037980861585e-06
1.735141203013483e-05
1.231369324322304e-05
1.078648272046375e-05
6.089531994284348e-06
4.454014781348758e-06
1.022594370106615e-05
2.646137316982594e-06
1.495836792005587e-06
1.194779748242866e-05
4.376621732664569e-05
2.706800054867126e-05
2.654413564467395e-06
3.218882793775126e-06
0.0001
0.0001
0.0001
0.0001
0.0001
0.0001
0.0001
0.0001
0.0001
0.0001
0.0001
0.0001
0.0001
0.0001
0.0001
0.0001
0.0001
0.0001
0.0001
9.520365741372589e-06
4.668241139617388e-06
1.195823242243476e-05
1.154105069441e-05
3.675334332637143e-06
7.903422501842696e-06
5.860065610684017e-06
4.640221178786946e-06
1.642896206772829e-05
9.033966655614915e-06
4.599847666770287e-06
4.194757061313979e-05
2.556686906740726e-05
2.152770263654281e-05
2.888127572006569e-06
1.109688135343277e-05
4.06669435446094e-06
2.854067593272882e-05
9.742238379993506e-05
3.29879618211008e-05
1.05655381133657e-05
1.465671491905269e-05
1.376394700390292e-05
1.280786766174503e-05
8.482385480948927e-06
3.731944702043192e-06
2.376623694203135e-05
5.944010283628825e-05
1.821755185136396e-05
9.666904207421136e-05
4.092067421375857e-05
3.076241953709208e-05
2.330661397925638e-05
1.121201004942599e-05
2.061120118794431e-05
1.065622457566953e-05
2.247092466885708e-05
7.001959811059247e-06
6.534055671851761e-06
4.89457315699933e-05
1.239614002511681e-05
5.852281041408672e-06
7.83394011233627e-06
4.289822245356294e-05
6.592085011758313e-05
1.530467669305688e-05
1.262735797071101e-06
0.0001
0.0001
0.0001
0.0001
0.0001
0.0001
0.0001
0.0001
0.0001
0.0001
0.0001
0.0001
0.0001
0.0001
0.0001
0.0001
0.0001
0.0001
0.0001
4.844968461936292e-05
4.273794562036562e-05
6.437894723962998e-06
4.846892222726969e-06
2.887348141091787e-06
6.079449147053739e-06
1.136566973462369e-05
8.129551870731579e-06
3.478569080716701e-05
2.012434891749433e-05
9.07949112545763e-06
9.288856320347633e-06
2.13618395579274e-05
5.551507738801074e-05
5.60050550814019e-06
5.348709536808681e-06
5.077696442729377e-06
7.77331419892024e-05
3.185594909946127e-05
4.692348958390883e-05
3.407675555989992e-05
7.083996054815667e-05
2.051101736865654e-05
9.310815222307475e-06
2.221922139237009e-05
2.080301160750192e-05
9.937194344577716e-06
1.948383170391305e-05
5.439186594706838e-05
0.0001200187530844304
2.27583051190573e-06
6.576177462826264e-06
5.632437022908394e-05
0.0001036717557869815
1.006849222656406e-05
8.41203692959022e-06
2.007954212689611e-05
8.429958803850275e-06
1.120839202482539e-05
6.289869198871896e-05
3.909953004940752e-06
3.13882884206126e-05
5.76677766713217e-06
1.593776164441192e-05
6.823484340483027e-05
3.711706652005396e-05
2.090528858282204e-06
0.0001
0.0001
0.0001
0.0001
0.0001
0.0001
0.0001
0.0001
0.0001
0.0001
0.0001
0.0001
0.0001
0.0001
0.0001
0.0001
0.0001
0.0001
0.0001
1.22101587366516e-05
4.646626633718475e-05
1.047030382851987e-05
1.35668413822137e-06
4.381439301672268e-06
6.717993523691326e-06
4.245749204661545e-06
5.356395317592866e-06
6.178655301110792e-05
1.268019419048063e-05
1.172387335230944e-05
2.899760298511561e-06
1.527459462599224e-05
7.793051980441848e-05
4.686321327778667e-06
6.850736855977381e-06
6.603229461120695e-06
4.316717316162439e-05
2.50408706120431e-05
2.19427627750183e-05
2.318782304064869e-05
4.404710665892227e-05
4.678516688265484e-05
1.255935509844022e-05
8.791539790947098e-06
0.0001120087648907187
1.110010263205088e-05
1.670179663523789e-05
5.186506212076625e-06
8.242392988526039e-05
4.548929400850906e-06
8.774067761867802e-06
4.770619822011218e-06
7.216951405060238e-05
4.906859177464182e-06
1.240280007043201e-05
5.284831039614847e-05
1.298861894403431e-05
7.17640162960292e-06
5.4874418550761e-05
1.564287969469301e-05
1.397647715780289e-05
9.625781960438934e-06
1.313158900445303e-05
1.033515557729366e-05
3.57808947935262e-05
7.427993852362214e-06
0.0001
0.0001
0.0001
0.0001
0.0001
0.0001
0.0001
0.0001
0.0001
0.0001
0.0001
0.0001
0.0001
0.0001
0.0001
0.0001
0.0001
0.0001
0.0001
1.074909604378898e-05
1.393097550606856e-05
3.266617953880665e-05
6.374778473249377e-07
3.453640566869578e-06
3.081454698133143e-06
2.21197043196691e-06
5.049005008315248e-06
2.439563700880042e-05
5.472267670815511e-06
7.511017703544898e-06
3.585965654654103e-06
1.437927250830702e-05
9.18678460808811e-05
2.600190801286183e-06
5.55610127501798e-06
5.135493725197151e-06
8.904518466683328e-06
1.717580325011282e-05
2.154397275595263e-05
3.185914679622552e-05
1.313021099528606e-05
7.89997833922149e-05
6.084076872194548e-06
9.646010693628275e-06
9.606569408008354e-05
2.412104983633391e-05
3.116160561983843e-05
1.111571932167563e-05
2.633047372475432e-05
1.633545405977307e-05
7.737079286406644e-06
1.467404739607641e-05
3.751996848940134e-05
5.741292043720512e-06
1.347516748534108e-05
3.341218423426035e-05
5.194604884848833e-05
3.843810387950775e-06
1.925617011009736e-05
6.030882618341182e-05
6.832380534713608e-06
4.721242336995258e-06
1.1067381674462e-05
1.309632512393074e-05
1.206202074625383e-05
2.130567773459832e-05
0.0001
0.0001
0.0001
0.0001
0.0001
0.0001
0.0001
0.0001
0.0001
0.0001
0.0001
0.0001
0.0001
0.0001
0.0001
0.0001
0.0001
0.0001
0.0001
6.823222034685932e-06
3.805241321062856e-05
5.212939206808164e-05
3.260206326240975e-06
1.872168338177073e-06
2.090382154067479e-06
1.657663790301737e-05
2.985714105586178e-05
2.367708629155868e-05
4.239756656581445e-06
8.599765574804091e-06
4.646773756143771e-06
5.609998652313424e-06
0.0001246024998880693
4.383591690999036e-06
3.857956097943362e-06
5.782540682850194e-06
4.970737869888178e-06
4.373574499202276e-06
1.249330349393517e-05
4.024712334053258e-05
5.498232661842912e-05
2.308074639317207e-05
1.022869615872597e-05
2.094640504204412e-05
1.384937632038925e-05
5.103705919258981e-05
4.423804597397759e-05
1.043725949725187e-05
5.586637862871785e-06
8.236041510865577e-05
2.402738904070652e-05
1.723674294053988e-05
4.07060474961585e-06
1.597871326939605e-05
1.634449375587257e-05
1.739569755650814e-05
9.190105763334844e-05
8.863841696844404e-06
1.246834847181225e-05
1.635814802966084e-05
5.340980773912747e-06
1.107004932117004e-05
6.888920774492526e-06
8.558325489127601e-06
6.528513067619135e-06
1.341100465238546e-05
0.0001
0.0001
0.0001
0.0001
0.0001
0.0001
0.0001
0.0001
0.0001
0.0001
0.0001
0.0001
0.0001
0.0001
0.0001
0.0001
0.0001
0.0001
0.0001
3.769919299593894e-06
2.889433055832145e-05
1.49282940544794e-05
1.851233875338134e-05
2.773189817590928e-06
2.074758301728094e-05
1.544538669688322e-05
4.913733939481941e-05
2.022501487217761e-05
4.618560227572959e-06
5.922647258204625e-06
5.590705085042834e-06
3.44673134660986e-06
0.0001082192886531814
1.577844259706114e-05
3.154171291106051e-06
7.679996430750113e-06
4.116569608562715e-06
3.366380418135077e-06
6.195304190060179e-06
2.520763619308421e-05
1.172332445921197e-05
6.915159460899238e-06
1.143814805143884e-06
7.788563600918289e-06
7.235070747014774e-06
8.396465670003516e-06
1.08967903581686e-05
1.528617837953598e-05
3.641303078822001e-05
8.270772870083541e-05
7.302378489160613e-05
5.290620370753269e-05
6.403609480202413e-06
7.353727243445979e-06
4.643589063891141e-05
1.349281098967757e-05
1.456642799633479e-05
7.863322306251542e-06
8.345613230500649e-06
1.158796770908175e-05
4.03668575082378e-06
5.826097683682671e-06
5.18582082206936e-06
4.858624074345427e-06
9.157033694227815e-06
2.935038230895386e-06
0.0001
0.0001
0.0001
0.0001
0.0001
0.0001
0.0001
0.0001
0.0001
0.0001
0.0001
0.0001
0.0001
0.0001
0.0001
0.0001
0.0001
0.0001
0.0001
3.742120939201687e-05
9.8707994202029e-06
9.952347113038517e-06
2.973088519681445e-05
4.582434014367535e-06
8.47171812554891e-05
5.892764404005798e-06
5.561949060470126e-05
9.019517922787599e-06
1.366812735020017e-06
2.591486245071346e-06
5.162881897719413e-06
9.088821142700963e-06
6.016401014727466e-05
8.392038478341165e-06
3.936711884652807e-06
8.007442330135456e-06
1.037000797871139e-05
8.506856576699078e-06
4.594499183894573e-06
1.07570229904682e-05
6.057982917314606e-06
6.242764012587979e-06
4.210724132207018e-06
3.220673371434928e-06
3.325014129072935e-06
7.957583287230926e-06
1.170610701526877e-05
3.880324066672883e-05
1.322173134486118e-05
3.204464128066879e-05
0.0001740767407775552
8.913298162497641e-05
1.553495797172413e-05
7.175625207654313e-06
2.506939636090279e-05
1.608700958017747e-05
1.05032055041462e-05
1.770180437183192e-06
4.346739483986263e-06
2.243866731100242e-06
3.31488415679024e-06
5.543754206954368e-06
1.013344393738772e-05
3.519348076830293e-05
5.198353403399741e-05
4.834465202543931e-06
0.0001
0.0001
0.0001
0.0001
0.0001
0.0001
0.0001
0.0001
0.0001
0.0001
0.0001
0.0001
0.0001
0.0001
0.0001
0.0001
0.0001
0.0001
0.0001
5.240463717724406e-05
7.818120118172863e-06
1.861974460190231e-05
2.482015563739729e-05
6.252566946411165e-06
9.017485602109356e-05
1.001325810439748e-05
3.649083891658879e-05
1.330544260900406e-05
1.872590192231909e-06
6.241880837029565e-06
6.483346108931331e-06
8.148513089088957e-06
8.887070234028422e-06
6.019775577125226e-06
1.334411235235865e-05
1.787296808253233e-05
5.162632188508261e-06
1.382122597038851e-05
1.78717449309337e-06
3.284466707280613e-06
1.979606204527944e-06
4.45414533165336e-06
7.149328745403745e-06
7.219944126282832e-06
2.270436431715822e-06
3.788349955508575e-06
8.179632595094701e-06
1.628627373022089e-05
7.653110599126016e-06
1.447182247301274e-05
0.0001185006480869878
0.0001363485828546398
5.025912701920293e-05
9.927192182830388e-06
1.172267839567236e-05
2.333786802228671e-05
1.327398519975015e-05
2.805871609086398e-06
3.014856813082935e-06
2.370177244079529e-06
3.290516472200709e-06
8.650050883056413e-06
1.757001461908132e-06
4.550347918173222e-05
4.908438258371226e-05
5.487827066256805e-06
0.0001
0.0001
0.0001
0.0001
0.0001
0.0001
0.0001
0.0001
0.0001
0.0001
0.0001
0.0001
0.0001
0.0001
0.0001
0.0001
0.0001
0.0001
0.0001
2.345961551634186e-05
7.892335436704656e-06
8.002951799464255e-06
3.188455976678184e-06
6.957756922506394e-06
7.012981804470883e-05
2.671508565696243e-05
4.961464917766486e-06
1.870524093764542e-05
2.442110298349613e-06
1.360717901868672e-05
2.653556672081695e-06
2.066843120820536e-05
5.013327245878667e-06
8.073497515460394e-06
1.047986840234349e-05
2.771652837449272e-05
3.90686340281701e-06
4.952247701008131e-06
4.38882813490144e-06
3.192275241521809e-06
2.061118175552938e-06
2.099796922473328e-06
3.703888174592056e-06
3.220614537043537e-06
3.796943178139309e-06
2.727788184983071e-06
3.370788944593525e-06
4.2772995724702e-06
1.462039463744672e-06
7.709675303276447e-06
7.815099563885449e-06
4.601663812677623e-05
3.064876189401257e-05
1.377777100103992e-05
1.00661080407864e-05
4.718278275547019e-06
3.308729045845309e-06
2.031610005313489e-06
4.27688705863979e-06
2.178536816587125e-06
2.390886473919404e-06
5.024033567467118e-06
1.37247343232031e-06
3.144729236389146e-05
2.409335321121499e-05
4.636699872777897e-06
0.0001
0.0001
0.0001
0.0001
0.0001
0.0001
0.0001
0.0001
0.0001
0.0001
0.0001
0.0001
0.0001
0.0001
0.0001
0.0001
0.0001
0.0001
0.0001
1.078610099991619e-05
8.477072505216005e-06
1.177258824155105e-05
2.505791287256358e-06
1.144833771353311e-05
1.961931055731948e-05
4.172866075483291e-05
8.434179460706992e-06
1.703707684324267e-05
3.555667868374438e-06
6.207256409290713e-06
3.685599022165343e-06
1.064697675703112e-05
4.443572176350532e-06
1.14730753218333e-05
6.82409912035018e-06
1.95015942227622e-05
6.971808656245639e-06
1.814575582914703e-06
2.497899169026867e-05
1.10076037020589e-05
2.515937353102022e-06
1.864940650832674e-06
3.097177260027328e-06
2.966379460375593e-06
4.235391297335482e-06
3.961371228603997e-06
2.503430434117472e-06
2.688701103132702e-07
1.804426308746912e-06
4.300249668340801e-06
3.170642731943253e-06
8.0140894012639e-06
1.882166136651858e-05
1.340386327206061e-05
1.258176346165846e-05
3.303373207291216e-05
4.039361672239082e-06
2.074095712786761e-06
7.256838641868639e-06
1.596453294190485e-06
1.905053806952286e-06
1.014780101870343e-06
3.963617130325693e-06
1.346514973308411e-05
2.77430447495965e-05
3.933950641143481e-06
0.0001
0.0001
0.0001
0.0001
0.0001
0.0001
0.0001
0.0001
0.0001
0.0001
0.0001
0.0001
0.0001
0.0001
0.0001
0.0001
0.0001
0.0001
0.0001
9.866185925748384e-06
5.946715676386922e-06
1.559604593358938e-05
1.074679210497397e-05
1.141202232776057e-05
1.031864464266968e-05
4.66241249327442e-05
5.670004740496776e-06
1.170696120190904e-05
6.229831014630957e-06
2.583269456584555e-06
4.502526556910188e-06
6.82636441838132e-06
5.85541976432628e-06
1.899269416705279e-05
5.074813965814609e-06
2.859469606172108e-06
1.510530115097682e-05
1.106796779941822e-05
5.560343680704349e-05
1.74117439252907e-05
2.376843250764935e-06
1.426957472654359e-06
3.843796498964493e-06
1.148531675452751e-05
2.155337460634089e-05
9.343601138574225e-06
3.043115205939383e-06
1.731851840298227e-06
5.624172717355297e-06
3.778482737159239e-06
6.27518163684312e-06
3.465890265985928e-06
7.088434450293405e-06
1.340825323366358e-05
1.845379605271069e-05
4.760131625203888e-05
2.596321252352969e-06
1.461545242729054e-05
1.298422575369348e-05
5.445406084806697e-07
2.287756873892679e-06
2.449201143413977e-06
1.884840373364214e-05
4.760782199216553e-06
6.495447756461838e-06
7.62201868249884e-06
0.0001
0.0001
0.0001
0.0001
0.0001
0.0001
0.0001
0.0001
0.0001
0.0001
0.0001
0.0001
0.0001
0.0001
0.0001
0.0001
0.0001
0.0001
0.0001
2.000820378431636e-05
3.827689872081974e-06
1.074500858953137e-05
9.265810352791468e-05
4.648632854804981e-06
1.125896131781905e-05
1.026109964352683e-05
1.039077023577814e-05
1.452354253513227e-05
6.283304978693249e-06
2.952310866964947e-06
5.867891845536498e-06
4.61519656794778e-06
3.40328251563985e-06
2.046547975368656e-05
7.514440606600498e-06
2.713738151309016e-06
1.230853874206908e-05
1.629107846265454e-05
3.79740282741749e-05
2.679121970960565e-05
3.369849594464055e-06
2.039351970798666e-06
1.741196896646737e-06
7.919165264011043e-06
2.749741652095317e-05
4.905529421779154e-06
2.315568816959725e-06
2.850085516638844e-06
1.173053016475164e-05
6.143123388181967e-06
1.19582995968917e-05
4.219186153638421e-06
2.848074065774284e-06
5.2089835904749e-06
1.759005210557395e-05
2.899779457906516e-06
4.52704636882392e-06
9.251172282801383e-06
1.199759339811303e-05
4.165437076363361e-07
2.388412955422234e-06
3.16976955271723e-06
5.378417464498417e-06
5.276333749043013e-06
1.06866989782674e-05
7.730624725372954e-06
0.0001
0.0001
0.0001
0.0001
0.0001
0.0001
0.0001
0.0001
0.0001
0.0001
0.0001
0.0001
0.0001
0.0001
0.0001
0.0001
0.0001
0.0001
0.0001
6.883576607949128e-05
6.425259913718566e-06
8.793215148022716e-06
0.0001300718783559098
8.850809274233311e-06
6.823327368100417e-06
8.432600529862352e-06
1.144113801102122e-05
1.527671012540791e-05
7.105614063582436e-06
3.116819055875873e-06
5.569028323541739e-06
3.759858620293854e-05
2.382426512174882e-06
1.547149045498832e-05
2.143506199738349e-05
2.930339197620643e-06
3.834784941310081e-06
1.212658239387838e-05
1.248186106906792e-05
5.454665610570872e-05
5.043521302873637e-06
2.605700329482966e-06
5.37153816882639e-06
7.004123748667e-06
1.239272246440632e-05
3.660750656027825e-06
8.952478232235085e-06
3.678794488686979e-06
2.768556924437287e-06
5.878393311697267e-06
2.275797009388132e-05
2.709958323193629e-05
1.815691667852318e-05
2.236463044425581e-06
1.516295208564714e-05
5.613578716042215e-06
1.636948684431511e-05
1.939088598214196e-05
1.216708189395022e-05
9.214806589697564e-07
2.44356784243176e-06
2.828821515868206e-06
5.946623619475883e-06
4.318932067778499e-06
2.631622803437009e-06
5.862213802336797e-06
0.0001
0.0001
0.0001
0.0001
0.0001
0.0001
0.0001
0.0001
0.0001
0.0001
0.0001
0.0001
0.0001
0.0001
0.0001
0.0001
0.0001
0.0001
0.0001
9.319948356804657e-06
5.200665619983379e-06
8.069474532207155e-06
9.207350235421107e-05
9.050063569951967e-06
4.67782812067211e-06
7.07312712159725e-06
1.780093946548174e-05
9.738781341432571e-06
7.877541603423284e-06
4.183092203054124e-06
4.458782662248618e-06
3.017560790064141e-05
3.427497143642442e-06
7.993944795979343e-06
2.035788625899845e-05
1.588766365777788e-06
1.312708403313946e-07
8.279520149440313e-06
8.014751215138787e-06
4.638725344333057e-05
1.211014189169697e-05
2.162301416822659e-06
5.451445980341605e-06
1.115262855541026e-05
4.633542610976199e-06
4.402989386690617e-06
3.764537311978472e-06
8.766956862391856e-06
6.183786489011789e-06
1.06221061513011e-05
5.32676381292239e-05
2.535590528842036e-05
1.315632364778752e-05
1.833010581493474e-06
5.75912665960041e-06
3.1909692257406e-05
1.084396901260767e-05
1.738430502669638e-05
1.775606875095438e-05
2.447006053202618e-06
2.393998553445855e-06
3.333408121495603e-06
1.514691750148504e-05
4.334465184466655e-06
1.896605633843324e-05
3.196359935951503e-06
0.0001
0.0001
0.0001
0.0001
0.0001
0.0001
0.0001
0.0001
0.0001
0.0001
0.0001
0.0001
0.0001
0.0001
0.0001
0.0001
0.0001
0.0001
0.0001
4.562095985729726e-06
6.298882282442251e-06
6.337841528501553e-06
1.437052191491836e-05
4.762666251261788e-06
3.449576616629317e-06
3.307357453113036e-06
1.017510824862017e-05
1.0072619179508e-05
7.064000031914792e-06
4.251161919642948e-06
3.705678286876029e-06
5.59237694296154e-06
4.613457280991681e-06
3.423675027672048e-06
1.32695404363041e-05
4.245030842789036e-07
5.047877246964724e-07
1.304441069046787e-06
9.278853611147472e-06
1.908387484653734e-05
1.436448701157264e-05
1.252868537206664e-06
4.331079060980655e-06
1.528360453540075e-05
1.894317367298282e-05
2.669236901714713e-06
4.061904429715038e-06
8.904224313679384e-07
6.542809914760789e-06
3.446333642321676e-05
5.507276426124095e-05
1.77623168231218e-05
3.870274115106322e-06
1.677254890874709e-05
3.481419162169702e-06
2.946158703587324e-05
3.801110398372204e-06
2.187030318471268e-05
1.513459590398336e-05
3.713626028840138e-06
4.596888484775523e-06
4.852558329792159e-06
2.667396465448753e-05
4.792387550005272e-06
4.017429080373965e-05
5.65844342969166e-06
0.0001
0.0001
0.0001
0.0001
0.0001
0.0001
0.0001
0.0001
0.0001
0.0001
0.0001
0.0001
0.0001
0.0001
0.0001
0.0001
0.0001
0.0001
0.0001
6.277848965425836e-06
6.508648541104996e-06
4.315402957455242e-06
3.32956356505603e-06
2.948470006920716e-06
3.53443471898235e-06
2.65739947203962e-06
4.479255392803436e-06
8.913622017380744e-06
5.339554356987359e-06
3.688264273006745e-06
3.286227342864024e-06
1.99567630585107e-05
5.468737701111837e-06
2.607870270884074e-06
7.80909218626649e-06
4.25773113047951e-07
7.246121018787235e-07
3.678704584960031e-06
5.129370317906041e-06
5.387434056272253e-06
1.022349454266405e-05
1.597858333350402e-06
3.068317284043243e-06
9.203779358305715e-06
3.503217881019639e-05
3.252104715250696e-06
6.020519202889235e-06
1.619333437302716e-06
5.483763358827129e-06
3.367580049481423e-05
3.803724097330076e-05
1.201471673204812e-05
3.313569712388455e-06
2.213574487409738e-05
8.874365189214999e-06
1.18643377999257e-05
4.946481714043554e-06
2.138297177630017e-05
5.706530576508642e-06
4.206679970291483e-06
5.687579694876936e-06
5.493250457703661e-06
1.155520829204341e-05
9.788106784458709e-06
3.234849537390021e-05
6.608753589033203e-06
0.0001
0.0001
0.0001
0.0001
0.0001
0.0001
0.0001
0.0001
0.0001
0.0001
0.0001
0.0001
0.0001
0.0001
0.0001
0.0001
0.0001
0.0001
0.0001
4.789157888629564e-06
1.148484330188013e-06
3.632485434665254e-06
2.934007647871954e-06
1.366771093157071e-06
3.177022270257498e-06
2.727224002228705e-06
1.720284843285633e-06
5.026232487824378e-06
3.400337148704818e-06
1.736843612881446e-06
6.368063465691895e-06
2.216055422722034e-05
3.605796759411902e-06
3.01258389070681e-06
3.180497576911844e-06
8.731629526139906e-07
1.354880807733178e-06
6.141736143366288e-06
7.390757370216551e-06
1.509781192830633e-06
3.448365780336298e-06
7.949715796625641e-06
4.188809397120141e-06
6.662168841988962e-06
4.552309993748191e-05
3.390334406898527e-06
1.689903308838785e-05
2.688081772595194e-06
1.037605207217094e-05
4.204686725401103e-06
1.975294682261719e-05
6.465787276511222e-06
9.510451760770735e-06
1.304016797370921e-05
1.4610454857203e-05
3.702533876947243e-06
6.144067463067403e-06
1.062190271604739e-05
6.900366218132562e-06
5.269937254688793e-06
6.655376426068513e-06
4.356233271435672e-06
3.439557972008694e-06
2.774533262586258e-05
9.304538878180356e-06
4.982723263684424e-06
0.0001
0.0001
0.0001
0.0001
0.0001
0.0001
0.0001
0.0001
0.0001
0.0001
0.0001
0.0001
0.0001
0.0001
0.0001
0.0001
0.0001
0.0001
0.0001
2.655716744740503e-05
2.450737208131878e-06
4.570070811581822e-06
3.363652975439595e-06
3.923741290660694e-06
3.158092607412045e-06
3.152597713622649e-06
4.72854380722878e-06
3.976805408623125e-06
6.604011916513782e-06
1.80527148680689e-06
1.310173242639244e-05
7.556928330423794e-06
3.528646466920177e-06
3.177816842951218e-06
7.810353188863109e-06
8.86345561288838e-07
1.853400327168903e-06
3.258321013979462e-06
2.53822541627949e-05
3.243021663185578e-06
3.586382515347006e-06
2.810192273262744e-05
8.909031040067906e-06
5.943321625736405e-06
4.809339198287869e-05
4.332665576556909e-06
3.798635855424284e-05
9.323806479740701e-07
2.693233404549458e-05
5.213793907068398e-06
1.698446321007853e-06
4.072359301563171e-06
2.631076033556608e-05
3.277351096573189e-06
1.133160097912052e-05
3.966491574279687e-06
5.855362745214882e-06
7.740834945274702e-06
6.483786564837388e-05
6.654857530771726e-06
1.54061091328256e-05
4.211055590089998e-06
2.938892834063836e-06
6.000990694442986e-05
1.859141107516783e-05
2.287998376330213e-06
0.0001
0.0001
0.0001
0.0001
0.0001
0.0001
0.0001
0.0001
0.0001
0.0001
0.0001
0.0001
0.0001
0.0001
0.0001
0.0001
0.0001
0.0001
0.0001
2.800951872099641e-05
3.00445173952708e-06
4.541132005026689e-06
4.077434243622598e-06