/*--------------------------------*- C++ -*----------------------------------*\
| =========                 |                                                 |
| \\      /  F ield         | OpenFOAM: The Open Source CFD Toolbox           |
|  \\    /   O peration     | Version:  v1812                                 |
|   \\  /    A nd           | Web:      www.OpenFOAM.com                      |
|    \\/     M anipulation  |                                                 |
\*---------------------------------------------------------------------------*/
FoamFile
{
    version     2.0;
    format      ascii;
    class       volVectorField;
    location    "0";
    object      U;
}
// * * * * * * * * * * * * * * * * * * * * * * * * * * * * * * * * * * * * * //

dimensions      [0 1 -1 0 0 0 0];


internalField   nonuniform List<vector> 
2838
(
(0.1737553291776904 0.005271366563321811 -0.02814152121404898)
(0.1722915066042256 -0.0008194151252347366 -0.0348021654296364)
(0.174339477477771 -0.001779795360922839 -0.02499586016319219)
(0.1638214980405426 0.010026440530487 -0.004078848138971962)
(0.1711123993767795 0.00862790454620193 -0.02752602123087684)
(0.1930438610754736 0.004968793339800355 -0.04908975512963692)
(0.2266719290806075 -0.004698983968139915 -0.03997409325336734)
(0.2252046856669725 -0.00083608725375072 -0.0009104637473857078)
(0.2171773426711735 -0.003304661949057547 0.001407345151819844)
(0.2267727272164999 -0.00384052300740513 0.0009304654515226779)
(0.243128495121103 0.00102424242743172 -0.006321907465785562)
(0.2549413498330522 0.003463650075373757 -0.005195362122285391)
(0.271390601041989 0.001967584488712342 -0.002825495634553839)
(0.2787965725753467 -0.0005132774895280634 2.897669732697304e-05)
(0.2950654207604095 -0.002391758000532438 -0.000977867117810222)
(0.3166383096175522 -0.001163102648382952 -0.03613017209962871)
(0.3384672643714604 -0.00100178652793487 -0.06132431949303657)
(0.349918335138398 -0.000366050039036242 -0.05212251192965023)
(0.2977393277678271 0.005883138472802647 -0.0828600392206667)
(0.296136443766213 0.004155854547644455 -0.03618697721440853)
(0.3060888486162231 -0.004178870821827523 -0.02126663726375207)
(0.2952355259189344 -0.001933054088710409 -0.01637456680064442)
(0.2840543063063629 -0.001428872784538435 0.005771278520862249)
(0.285902780266625 -0.0002133312949303998 -0.02541367022090093)
(0.2923317500997126 -0.00156573816608669 -0.03870122835938086)
(0.2963539454921396 -0.01087532527224473 -0.01649925312344391)
(0.2639051207948012 -0.004013258024302281 0.0003640200150157758)
(0.2493220954047617 0.0003748519378752772 -0.005427726344341182)
(0.2372857427905044 -0.001912946098906384 0.01868997760743667)
(0.2393832938980194 -0.002966393197494391 0.01541898321062106)
(0.2856092273917269 -0.008674125414644601 0.01350196196923109)
(0.333198958557087 -0.01513384475898967 0.0194797505506923)
(0.346464540021827 -0.005586451058333966 0.02637450320829153)
(0.3710880650283597 0.01190574675669225 0.01015812409670659)
(0.3341647390420966 -0.003837473379333386 -0.02978129502532777)
(0.3087768796895723 -0.01069095108151227 -0.05482560895533137)
(0.2828115251415534 -0.004851081302604467 -0.03291591743799558)
(0.2326226278986668 -0.006689618536635974 0.02544184977083454)
(0.1908595971578234 0.003088250010842708 0.02829879851652214)
(0.1525657299128281 0.007550911104742854 0.00483379618078863)
(0.1541656378621119 0.0004979482137688186 -0.0085177852874402)
(0.1632486404263705 0.001367310806631202 -0.02500964872340217)
(0.1689491223477622 0.001001361258243185 -0.02883147109087141)
(0.1822075421874187 -0.003282154231765329 -0.02993622065535132)
(0.1706047725221774 0.001354219415507681 -0.01818917482187896)
(0.1595276527275395 0.001876240396098627 0.003166191183181292)
(0.1682862627590228 0.001983585812528227 -0.01605636064923934)
(0 0 0)
(0 0 0)
(0 0 0)
(0 0 0)
(0 0 0)
(0 0 0)
(0 0 0)
(0 0 0)
(0 0 0)
(0 0 0)
(0 0 0)
(0 0 0)
(0 0 0)
(0 0 0)
(0 0 0)
(0 0 0)
(0 0 0)
(0 0 0)
(0 0 0)
(0.1779772484954571 0.005296307455302044 -0.02824123927809193)
(0.1588776114404435 -0.001158177498050417 -0.03388177874684269)
(0.1752660193646775 -0.001862818580170707 -0.02522238367727734)
(0.1678540459478157 0.00991433391606476 -0.004238013193672552)
(0.1707294833078699 0.008702132222076541 -0.02749248453826108)
(0.1814729056549078 0.004565469413830099 -0.04718937870584031)
(0.2313708175200394 -0.004321024366190531 -0.04230144543887337)
(0.2298262553527306 -0.0009404291206513995 -0.001371024647411061)
(0.2039049813329581 -0.003297803066625007 0.002008183232392822)
(0.2280058863381246 -0.003900495085822181 0.0009060509696128244)
(0.2465116998979731 0.001105573731000754 -0.00590729502500457)
(0.2540029431359014 0.003443605742940318 -0.005416103765191996)
(0.2636843262079237 0.001979630833672647 -0.004089179643563728)
(0.2837638097940606 -0.000662672528431059 0.0005543737510953224)
(0.2992264360862359 -0.00253413742247534 -0.0005985276229069491)
(0.299182512361897 -0.0009175496157761639 -0.03827039169897742)
(0.3415327948576297 -0.001131396531793155 -0.06134184627702772)
(0.3559225616559135 -0.0004456160260804638 -0.05272172949322899)
(0.2951839553164645 0.006090428790072801 -0.08358767448502614)
(0.2874164739022678 0.004386903548818262 -0.03324435621401778)
(0.3133791065039676 -0.004620660578424763 -0.02157814677794664)
(0.3004302709917773 -0.002198015237843846 -0.01690090243188902)
(0.2538750376620464 -0.0007525905970292453 0.007091587170530971)
(0.2900294953353313 -0.0003225569176963526 -0.02545890819044243)
(0.3012559563914793 -0.001861861303510191 -0.0395919914275832)
(0.2898305527068639 -0.01074737066613432 -0.01582812313387314)
(0.2561941064140554 -0.004164038457155241 -0.0001098509485539465)
(0.2548400885734745 0.0002454869283832699 -0.005744348648568381)
(0.2409271429787092 -0.00191820685277865 0.01860331412594881)
(0.209391209807276 -0.002218013987236378 0.01839029503985552)
(0.2904679614304803 -0.008840797195570434 0.01266657615249929)
(0.3409184706413972 -0.01514972874720045 0.01919098570169822)
(0.3414307535413906 -0.005782392450490361 0.02593043079301788)
(0.36555508851125 0.01265242800910455 0.009241316214112521)
(0.3447944553236317 -0.004104133109314917 -0.02837857288716032)
(0.3153405108335567 -0.0107602255526156 -0.05466138032773141)
(0.2445035820379543 -0.003863181137169984 -0.02733151657252637)
(0.2388307287898765 -0.006889829841036629 0.02505441047733642)
(0.1965144307398369 0.003279011444753896 0.02899866482367358)
(0.146804200210006 0.007835324883984304 0.004531836551155947)
(0.1513920146809843 0.0004981849436140563 -0.008378877337246462)
(0.1686609531115844 0.001414633003002105 -0.02518467185537396)
(0.1716857000270929 0.0009926329292719673 -0.02897167804225774)
(0.1592918411323362 -0.003494928653782943 -0.02982662193972297)
(0.1739449234860493 0.001599622146142391 -0.01898383895320246)
(0.1638519771071413 0.001677068477247796 0.003201242589023628)
(0.1621941337116725 0.002449617771169564 -0.01626496206139778)
(0 0 0)
(0 0 0)
(0 0 0)
(0 0 0)
(0 0 0)
(0 0 0)
(0 0 0)
(0 0 0)
(0 0 0)
(0 0 0)
(0 0 0)
(0 0 0)
(0 0 0)
(0 0 0)
(0 0 0)
(0 0 0)
(0 0 0)
(0 0 0)
(0 0 0)
(0.1998628016830951 0.005507208125879493 -0.02867224790345252)
(0.2133923949560307 0.0001583782147447897 -0.03864409760950992)
(0.2081912820036671 0.0009046977561286325 -0.03090152932815448)
(0.1848246871502769 0.009273898413838621 -0.004984270489864925)
(0.2019261249865592 0.008604069277695898 -0.02889684192701969)
(0.2310162456697109 0.006560017427958125 -0.05598164486455628)
(0.2555134265193643 -0.002079214729696664 -0.0541924720968555)
(0.2569571916000245 -0.001604328530597548 -0.004230892517679924)
(0.250337895752522 -0.003628380632336011 0.000144105719594184)
(0.2518220379727663 -0.003878652710614509 0.001715243605228033)
(0.2605363533475437 0.001285209036199754 -0.003615302513542018)
(0.2791653834294816 0.00420593722449361 -0.0009056661647699896)
(0.3020417084099344 0.001816032790751317 0.002353308863231246)
(0.3084535862254164 -0.001381653757640326 0.003022169893630716)
(0.3262567848391384 -0.003394837830976121 0.001283609842206999)
(0.3564872219043561 -0.002367941543595831 -0.03134628395261593)
(0.3771094519045234 -0.002433663712348623 -0.05969649608751015)
(0.3805516708763858 -0.0008213942135177871 -0.05538034297466658)
(0.3402558024487259 0.003912809799109692 -0.08461922007425453)
(0.3416970895516124 0.00335298448384776 -0.04925193887230472)
(0.3477894701912689 -0.006600984152760782 -0.0228522317953912)
(0.3405602256169513 -0.004289201396907496 -0.02037779152370508)
(0.3397970688113757 -0.00281649469096991 0.005426352937188836)
(0.3369774562414647 -0.001515180746972708 -0.02629755629978187)
(0.3399746595631053 -0.003085877031671373 -0.04340496088757766)
(0.3655159928142868 -0.01227233164559919 -0.02621922102786057)
(0.3114679678570481 -0.002979366299699608 0.003056860483735828)
(0.2809451265272371 -0.0003989849810590044 -0.00643732134150291)
(0.2763255285427817 -0.002193106804532774 0.0178840973574269)
(0.2907183288984041 -0.00437745454863952 0.008885232712862234)
(0.3345167957109288 -0.01003941422788587 0.006967458998693483)
(0.3739730646231296 -0.01508302818059689 0.01847712344046236)
(0.384245345103726 -0.005000789403618471 0.02738362010913468)
(0.4204670172584654 0.007359918084199384 0.01990359108334113)
(0.3903799129157607 -0.005702881446768108 -0.02300359870416033)
(0.3795332493147403 -0.01135396839582347 -0.05242147825004358)
(0.3546334471712444 -0.006565411785489749 -0.04335760901280757)
(0.2878269791762477 -0.008135945527711561 0.02033492823288054)
(0.2226794128320407 0.003771849741140284 0.03226180906099863)
(0.1850472919904814 0.006125962418730384 0.007443851961321736)
(0.188726581795424 -0.000355365272620468 -0.007832431870995178)
(0.1917635061383366 0.001693108521703372 -0.0262812852660224)
(0.2056445963433205 0.001220660646801246 -0.03102923543528108)
(0.2281736565685522 -0.002744467065790108 -0.03141206043340864)
(0.1963306870729505 0.003221347979200468 -0.02461160644705486)
(0.1844040680412098 0.0007430408601993006 0.003107886449213558)
(0.1975145960585668 -0.0003839904195704848 -0.01530494459268836)
(0 0 0)
(0 0 0)
(0 0 0)
(0 0 0)
(0 0 0)
(0 0 0)
(0 0 0)
(0 0 0)
(0 0 0)
(0 0 0)
(0 0 0)
(0 0 0)
(0 0 0)
(0 0 0)
(0 0 0)
(0 0 0)
(0 0 0)
(0 0 0)
(0 0 0)
(0.3965672465228634 0.007418643814879825 -0.0313213106906068)
(0.4611009234769048 0.006283931425560343 -0.05738646629480922)
(0.4359769144119177 0.01695085781146165 -0.06582104949209241)
(0.3867492712593965 0.005963767455968796 -0.01668856014778668)
(0.4121260543648066 0.00758144824542346 -0.03698964923480051)
(0.4674617121269571 0.01338334903289639 -0.09396020463289295)
(0.4787587479855843 0.01574620831912432 -0.1507614277855486)
(0.4928633289543798 -0.004554876789074149 -0.03561145341156166)
(0.4640496184826736 -0.005910928279374559 -0.008626466754969491)
(0.4302043629595935 -0.004336204063680637 0.001334715077726274)
(0.4224137585215966 0.004341974870086932 0.01599355889580592)
(0.4428324919559163 0.008772494052679186 0.02530201252268499)
(0.4941960573235826 0.00098797855817798 0.03550188219376565)
(0.5329432490915801 -0.008054355345016938 0.02959098964865046)
(0.5498814235242644 -0.01133628737510812 0.02074558010288233)
(0.5985120627891158 -0.01048412930734544 -0.001601403759845467)
(0.6295744545449927 -0.01166909082179671 -0.04640626262032698)
(0.6269266420352613 -0.0037211735230189 -0.0785453858480453)
(0.6037995926000921 -0.010577741022958 -0.09505129269047009)
(0.6228380167458432 -0.001496931531999866 -0.1316953175779482)
(0.6547057863546357 -0.02439819283984111 -0.03697901832260499)
(0.6431328471750363 -0.0214237866946889 -0.04517025059304732)
(0.6721835789123733 -0.01352706796873477 0.001322446701037963)
(0.6785337769768379 -0.01200937268124502 -0.03127322510830376)
(0.7206691431751995 -0.01729424100491101 -0.0794670097716207)
(0.7859485999961836 -0.02259452665431682 -0.08572309900474302)
(0.6215411799653494 0.003646085049608966 0.01137897803657325)
(0.545872827507732 -0.00627993141279741 -0.01146360393776286)
(0.5516398319363515 -0.004132822427204797 0.008450801556121218)
(0.6023804880749909 -0.01271893819539268 -0.03524609765135284)
(0.6660158614383767 -0.02159879155048695 -0.04363280271155705)
(0.700053932292632 -0.01627431367220607 0.005890552746116123)
(0.637016895065036 -0.002490166153891047 0.03014145068965425)
(0.7280199099671302 -0.01826103240474191 0.07239622546663516)
(0.8297032792935091 -0.02373775835045967 0.0278193294469887)
(0.8485514826932408 -0.01766890799480283 -0.03637131028847269)
(0.7876464033500951 -0.01709956192523184 -0.09806575991385962)
(0.6760062534595367 -0.01619222229351688 -0.01915069586040856)
(0.489088185513693 0.01039430252548451 0.05500145064067604)
(0.4005191119335034 -0.0007162354304725906 0.0269337535475077)
(0.410321200260686 -0.008314007535194217 -0.0001620408284851155)
(0.4253881257321414 0.002085799293237872 -0.03262214674690463)
(0.4518793411278551 0.002080817500633442 -0.0432945343825216)
(0.5018827738572996 0.001406604582089971 -0.04480290589833037)
(0.4008967914549286 0.01724240682988596 -0.06884753650623281)
(0.3916795096335027 -0.005861465629191057 -0.006402509890520817)
(0.3924826080788821 -0.01398337504684461 -0.01091785917008339)
(0 0 0)
(0 0 0)
(0 0 0)
(0 0 0)
(0 0 0)
(0 0 0)
(0 0 0)
(0 0 0)
(0 0 0)
(0 0 0)
(0 0 0)
(0 0 0)
(0 0 0)
(0 0 0)
(0 0 0)
(0 0 0)
(0 0 0)
(0 0 0)
(0 0 0)
(0.4151890598836853 0.007559046697754243 -0.03100876961417675)
(0.4828414687251383 0.00614686993252254 -0.05698565175514084)
(0.461879961053675 0.01837585540230913 -0.06833834167316835)
(0.4098303824502778 0.006665030422800686 -0.01925692374933509)
(0.4358645652817059 0.007170797500729607 -0.03700845045598227)
(0.4903290129635312 0.01306492955644196 -0.09548650074920345)
(0.5006426923394245 0.01694809806119956 -0.1572414834426978)
(0.5166285225262858 -0.003890737965496643 -0.04153667384410251)
(0.4878015863066931 -0.006139091732280025 -0.009783035102066922)
(0.4518974139023773 -0.004493910794103055 -0.0004937058789424793)
(0.4391240487663708 0.004728743084514515 0.0163423060742668)
(0.4605652728490749 0.009430647114343891 0.02712009472134817)
(0.5127318323400987 0.001018835404592002 0.03915755693792927)
(0.5522818357470813 -0.008867762455240173 0.03338960011878305)
(0.5696410790975143 -0.0123942954171344 0.02388018588030169)
(0.6188712200540326 -0.01142612292918012 0.00177461254861624)
(0.6509050231934512 -0.01278998544796364 -0.04428051518870798)
(0.6438203769947072 -0.004378669090673734 -0.07822584438270146)
(0.6269873853560959 -0.01333290483255718 -0.09369887376302359)
(0.6493324969453718 -0.001504187169172948 -0.1408026714603644)
(0.6777200830641505 -0.02575563811284788 -0.03873260392225147)
(0.66579274745825 -0.02348773731527738 -0.04666871225703902)
(0.6993696904617092 -0.01504312429064047 6.159873633904307e-06)
(0.7089787535381913 -0.01360575103535635 -0.03098757649248371)
(0.7498836523079074 -0.01902179539644353 -0.08141022614904996)
(0.8197300140821869 -0.02467417933337664 -0.0907878128535626)
(0.6544214420380055 0.004363375397841078 0.009833025232313775)
(0.5724328858639131 -0.006454391220899593 -0.01154008650301441)
(0.5775728342280175 -0.004104494405405501 0.006424844544250971)
(0.6299747300414132 -0.01320600954072961 -0.04138829800896193)
(0.6958912951859643 -0.02351464675571029 -0.05088012075172279)
(0.7279071413085606 -0.01743764387541179 0.00115975032616036)
(0.6660810588786833 -0.00212135908177915 0.0273123153614619)
(0.7564268304307735 -0.01943078478812037 0.07338203399068255)
(0.862961841611616 -0.02603039453162929 0.03100821443483621)
(0.889814726818707 -0.01922086885359198 -0.03334087126773369)
(0.8257662772307486 -0.0183562875089438 -0.09966801492859888)
(0.71473557650116 -0.01671057499451733 -0.02405344275012966)
(0.519392488529305 0.01164004486306834 0.05453601134811294)
(0.4263271596086046 -0.0004088987809092122 0.03003705795542402)
(0.4328255206342291 -0.01012022307225844 0.001855702491768495)
(0.4445447487612961 0.001368035180274757 -0.03204302049544707)
(0.4746385699046882 0.001748762353879552 -0.0433372382337832)
(0.5273622573295939 0.001389333994574783 -0.04503584754445231)
(0.4270823912389757 0.01893634966218183 -0.07307118463817842)
(0.4165481233056011 -0.005548453939014776 -0.01031055166838321)
(0.4165494587369119 -0.01493428971282664 -0.01084098028313438)
(0 0 0)
(0 0 0)
(0 0 0)
(0 0 0)
(0 0 0)
(0 0 0)
(0 0 0)
(0 0 0)
(0 0 0)
(0 0 0)
(0 0 0)
(0 0 0)
(0 0 0)
(0 0 0)
(0 0 0)
(0 0 0)
(0 0 0)
(0 0 0)
(0 0 0)
(0.5636608834028962 0.008494414492369847 -0.02051066262168232)
(0.6169342319365098 -0.001995971945586725 -0.02435335783041841)
(0.6756067516209482 0.0246927606661728 -0.07146332289207512)
(0.6729021850219372 0.02413815379186617 -0.05649260287548253)
(0.6456560040471704 0.002608143946483259 -0.02963399391736031)
(0.6673779543667859 -0.001380579629969497 -0.07558497753607737)
(0.6720848110735643 0.0164143355441814 -0.158670525106254)
(0.6984319998000192 0.01156697328388197 -0.1125469009851376)
(0.7130121620513006 -0.008954429375056026 -0.02116938307979371)
(0.6622405812989647 -0.007276982442032171 -0.03333846712340347)
(0.6145722242403171 0.00890857674917386 -0.005719517043095922)
(0.613915759618633 0.01629413908198657 0.02610854325659318)
(0.6525966982273513 0.002948408637604206 0.06873373187873597)
(0.6710698529477727 -0.0166754730330652 0.07471658645510064)
(0.6834378953373512 -0.02443649310310549 0.06045458467449824)
(0.732647243182317 -0.02189439733537583 0.03187468670476983)
(0.7501513849266925 -0.02269079489561092 -0.01962801802424121)
(0.7096965116492886 -0.01269113869037024 -0.04116603456275378)
(0.7463334539537074 -0.04891094113022337 -0.0517654820578176)
(0.8187315277323314 0.002443650076319253 -0.2053552849149279)
(0.7646768779332518 -0.02814670636420633 -0.06000728440026447)
(0.7240464801707539 -0.03916315274385547 -0.03946147534398099)
(0.8274310573381789 -0.03632927593885911 -0.02043780302954816)
(0.8617697291051317 -0.03468313580698232 -0.02234080354118785)
(0.8932335132430749 -0.03949594733917301 -0.07944675576951173)
(0.9445564287003749 -0.05209282885095245 -0.1129729669988552)
(0.9091796744835229 0.005595900147814636 -0.03485106231252823)
(0.7993618383123462 -0.001612316816799379 -0.00978026918577676)
(0.739902123470637 0.0016673843847558 -0.02786772784876836)
(0.7971068169188459 -0.01224316644080009 -0.1168132166275815)
(0.853185189593249 -0.04616219947787945 -0.1304631321853702)
(0.902393484620603 -0.04126780046662456 -0.08008054161260733)
(0.9271178746278139 -0.002276883375203782 -0.03355428071620881)
(0.9320892192206155 -0.009894599982969484 0.02322773542865957)
(1.01683298927312 -0.05092395657530585 0.02888326553650524)
(1.096464880339271 -0.04173346541107308 -0.0004255677228603189)
(1.058680682647013 -0.03229483538679424 -0.05985709642899015)
(0.9795844390803841 -0.01611504335611234 -0.06466035219899179)
(0.8122602142465472 0.02895186458597852 0.01948142099109507)
(0.6777577913404242 0.01567117265778989 0.06506348307448334)
(0.6096028669920875 -0.03209731170888672 0.03426582772209048)
(0.5685965041083993 -0.01685687916142431 -0.008752630746526879)
(0.6027404073592619 -0.009057165573357525 -0.0252855970321118)
(0.6968662850318769 -0.004145542755975631 -0.0347731007878535)
(0.6847535724618727 0.03247072964202668 -0.09575891783176793)
(0.6747082163964446 0.00610396548605879 -0.07321127938762775)
(0.6616363103640102 -0.01575866263069638 -0.01903799905612092)
(0 0 0)
(0 0 0)
(0 0 0)
(0 0 0)
(0 0 0)
(0 0 0)
(0 0 0)
(0 0 0)
(0 0 0)
(0 0 0)
(0 0 0)
(0 0 0)
(0 0 0)
(0 0 0)
(0 0 0)
(0 0 0)
(0 0 0)
(0 0 0)
(0 0 0)
(0.7255976511026548 0.02244866472431852 -0.02873791378796821)
(0.7140247242015445 0.00935696131518441 -0.01044965011344468)
(0.7787197126742239 0.01183119787432656 -0.04514613865332085)
(0.8320363964318651 0.0187985871404172 -0.06456707936239994)
(0.8429744658320918 0.01800709352794427 -0.04404246599635793)
(0.8396078617203047 0.01039327404569716 -0.05827536603193426)
(0.793002125351999 0.01906519020913717 -0.1312000494290154)
(0.7960409502182318 0.01695603117506341 -0.1166004643556287)
(0.8264210218535772 -0.01672815854982548 -0.001188680788821976)
(0.8329176761736793 -0.01377964887603411 -0.01631209880539903)
(0.7547465680221312 0.007823517941030126 -0.05592693298993925)
(0.7472163305005494 0.02241208908568008 -0.01399526750830387)
(0.7877118960259841 0.01149823809527784 0.05105266097625919)
(0.7577320464651625 -0.01613032346431427 0.06811387877722526)
(0.7437986907141663 -0.037032518870837 0.07071959001171504)
(0.7767080311071707 -0.02864020841598692 0.03409208242229837)
(0.7823542657884235 -0.02553913049775509 -0.004602704354941332)
(0.7238466376624714 -0.01426354473319429 0.01615149197098833)
(0.7615301303031525 -0.08731315258899769 0.01936731119250942)
(0.8745619622974856 -0.008704036236839885 -0.1531741952930134)
(0.7682204140144864 -0.0002830601971808154 -0.06169317304122009)
(0.6863737190510946 -0.02062805927904559 0.02165629953151989)
(0.8041287517743176 -0.05337002577810944 -0.01230743151484546)
(0.8505872768923117 -0.06692206972712994 -0.02752572717474714)
(0.8727216921874045 -0.05672255700330815 -0.05908312207475188)
(0.9259079133702838 -0.05883983125516026 -0.1005612387124711)
(0.9082273725677494 -0.03574183293247973 -0.05360929230039639)
(0.8757098128642178 0.009908996827430658 -0.02620402095890785)
(0.7965779808831188 0.03106933101694223 -0.07540587589340918)
(0.8318924288601556 -0.007146585843081907 -0.1755935836870658)
(0.8681255063698182 -0.06418778556197975 -0.1716144315956082)
(0.9305713271824114 -0.07987367750857229 -0.1206720970288623)
(1.018901602418034 -0.03399250232311532 -0.07427824056690203)
(1.01360579605885 -0.007555116195072932 -0.03204215168299786)
(1.041319917638561 -0.04715595929799885 -0.02457750927586651)
(1.115929443693596 -0.06182786104488407 -0.01335956877388472)
(1.095069018459599 -0.06281861031242583 -0.04803114867656921)
(1.049708204261397 -0.01589458333957915 -0.05683345486810525)
(0.9385050679209284 0.04030889603049501 -0.005087259821256618)
(0.807523099028321 0.03432803938147687 0.03995243809843518)
(0.8132563268810307 -0.008297769207166732 0.05092061467490881)
(0.6571519854403948 -0.03095983433914199 0.01519507218310833)
(0.6109417001543294 -0.03742477076902187 0.007497796477163123)
(0.7041628211694427 -0.02119272577497064 -0.0007052179621788843)
(0.7851806454922938 0.01896839755247665 -0.08143737154230049)
(0.8271599635702248 0.004697929077230927 -0.09987495951878204)
(0.8165431597502194 -0.01455673598065655 -0.04747756753604727)
(0 0 0)
(0 0 0)
(0 0 0)
(0 0 0)
(0 0 0)
(0 0 0)
(0 0 0)
(0 0 0)
(0 0 0)
(0 0 0)
(0 0 0)
(0 0 0)
(0 0 0)
(0 0 0)
(0 0 0)
(0 0 0)
(0 0 0)
(0 0 0)
(0 0 0)
(0.7960668250654995 0.02018366173240108 -0.03088925979544269)
(0.7880901584340037 0.024964711788986 -0.01072351396114623)
(0.8269105596787498 0.01452894100632783 -0.02254521134850022)
(0.88096897696466 0.01573304941654079 -0.04563150523393332)
(0.9203707291825246 0.02136509884269841 -0.04347512501316351)
(0.9478781759991114 0.02167795696475578 -0.0513267474142081)
(0.9367669332652389 0.03570558025391338 -0.1140684591285722)
(0.909532164463533 0.02973622961612373 -0.1327652387858474)
(0.9268365634679528 -0.02200870039873715 -0.02176653081405243)
(0.9158932055021981 -0.04692665390064277 0.02493331051407702)
(0.8643256964710022 0.01319367454179819 -0.05602950582872233)
(0.8219479167685402 0.02338779772654836 -0.04915043659984426)
(0.8559352087101821 0.02003038945995798 0.02585910667764298)
(0.8300145851766939 -0.007280867073230412 0.02548161145478522)
(0.807540749434722 -0.04668718892916956 0.04264450052793763)
(0.8057183208048994 -0.03554330183539274 0.02198328341355629)
(0.8193106757555392 -0.02593825655423888 -0.0002250666026578445)
(0.7701052850981382 -0.01634194953291762 0.06330394295021281)
(0.7978177889302356 -0.1112472058204435 0.09822213158865425)
(0.8590867270188297 -0.06005863801811626 -0.09412966791618073)
(0.7264690667879493 0.05764738461686764 -0.02343096787527331)
(0.6791915709410342 0.01104244833200071 0.1078427223903694)
(0.7589338870687306 -0.05327846632058675 0.02718864201848556)
(0.7792074974868162 -0.08188765204661842 -0.007415634968089479)
(0.7962127437704546 -0.05421068750175378 -0.00580211616384327)
(0.8676374403036936 -0.0562645929300483 -0.05010033963765258)
(0.8641474071013309 -0.04812238038741562 -0.06801542825185308)
(0.8493721123956065 0.0201582393547414 -0.05292646145767538)
(0.8299090029130345 0.06836461754234874 -0.1019281076033412)
(0.8704011666355427 -3.095601718658544e-05 -0.1734549781098022)
(0.8762141140731488 -0.06068431958438857 -0.1627766020710218)
(0.9272063377004196 -0.09719774967830082 -0.1228729550751416)
(1.026704425552676 -0.07177463310784346 -0.08096488276131432)
(1.066645066323581 -0.01116408740099498 -0.05554913835988698)
(1.066987857912832 -0.04008177843942667 -0.05790282072758308)
(1.11111714649405 -0.07211016528635648 -0.02005256800628146)
(1.084380081689988 -0.07155789984134872 -0.04304701517567096)
(1.046668999411537 -0.02306222282320133 -0.05100914395603078)
(0.9854054736655498 0.06674267050375741 -0.01587980760788615)
(0.8199711111242822 0.03869019600256141 -0.01742733667872443)
(0.8905088226642162 -0.006359780594176879 -0.03237373219681149)
(0.877584257740836 -0.001993712323143174 0.02472526878487705)
(0.672501285409587 -0.04829167503712602 0.01324116014306587)
(0.6758403545752012 -0.0412588444821896 0.05522273741888045)
(0.7690546531592808 -0.008135166205152863 -0.04598421749680585)
(0.8540276222445711 -0.004810490092035204 -0.08688120920017112)
(0.8423548797417826 -0.01416050580020378 -0.05265348162468442)
(0 0 0)
(0 0 0)
(0 0 0)
(0 0 0)
(0 0 0)
(0 0 0)
(0 0 0)
(0 0 0)
(0 0 0)
(0 0 0)
(0 0 0)
(0 0 0)
(0 0 0)
(0 0 0)
(0 0 0)
(0 0 0)
(0 0 0)
(0 0 0)
(0 0 0)
(0.7295487794402619 -0.0008055565228229909 0.001678558499439939)
(0.7721588446129402 0.02652046013896122 0.02404007173914768)
(0.8339576738416289 0.03863712687513203 0.01065909382799784)
(0.8879334981114302 0.03421613381110412 -0.01208233882672079)
(0.9444687974500104 0.03264026919287171 -0.02598046407704142)
(0.9928966901431634 0.03293235081162201 -0.04006142981994303)
(1.032446265152421 0.03500752085636795 -0.07772677889881952)
(1.048948612120124 0.04337566269247459 -0.1347555020445914)
(1.040295334095049 -0.01999441965562037 -0.04649141815794015)
(1.011611550040789 -0.06346177587432332 0.03260253090365157)
(0.9115301489717165 0.002744972637572372 -0.005752000764288711)
(0.8902712129114306 0.03733033441703681 -0.05453629375696549)
(0.8991010219514968 0.04570757179527261 -0.003138414766449341)
(0.8861381603818174 0.007552024883237371 -0.08300775478739726)
(0.9405592057456094 -0.06148831306542819 -0.07985118464569799)
(0.9905280740889596 -0.05170925487488789 0.01945535235474567)
(0.908335068395396 -0.02392870432566055 -0.02893850131571419)
(0.9148232323024542 0.006022594014945898 0.01291055666870262)
(0.9307159311008755 -0.1223005033604087 0.103417952168557)
(0.7873089828427017 -0.09014775038679926 -0.06696667519331335)
(0.7224916385088095 0.1267518756269786 0.05838522810724087)
(0.7859587063313441 0.04062373611764939 0.1200810809081152)
(0.7755629122285238 -0.01242405151613682 0.1243723020013638)
(0.8070624003679744 -0.05913717774305746 0.0415695057934893)
(0.853600516785705 -0.04253137086478827 0.04293069647630954)
(0.884110409817039 -0.01938597481355096 0.07325685216577468)
(0.8920231454247243 -0.03168599770463416 -0.01085311637557761)
(0.8482006483131638 0.01586099542802099 -0.07647460171551895)
(0.8962421430919575 0.09366836432739131 -0.08427405916616895)
(0.9002067736544341 0.007338268085104059 -0.09800395396749105)
(0.8561908261122211 -0.02366213582880174 -0.08453013852059277)
(0.9067731483102573 -0.06389691333872904 -0.05046885827507314)
(1.002366394028116 -0.07639040029713327 -0.01584839667795997)
(1.074536527273602 -0.02696374913859546 -0.02584659479525526)
(1.087555923617065 -0.02187513296201075 -0.0602116468761497)
(1.093243174615921 -0.06911604997203596 -0.002744098781397852)
(1.071735858437361 -0.05464487203070018 -0.02139306809632579)
(1.064738395960717 -0.04021088652160467 -0.04906128949916252)
(1.008355163250454 0.1088109882292677 -0.02119597641285476)
(0.8944316695801632 0.01163912172195776 -0.04788078830150754)
(0.9790650255711049 -0.01330494948062397 -0.09023791589568937)
(1.034544391716786 0.006851772247977349 -0.02427329805528264)
(1.0465040879324 0.009913880675500395 -0.01027868794237631)
(0.7892379851334819 -0.03466080032825614 0.05633552304485699)
(0.7454930344311734 -0.02766166801366503 0.04232649301764117)
(0.7823886623978967 -0.02004579598400374 -0.03158025147265996)
(0.7754524638011063 -0.004681594875227099 -0.0323075896667462)
(0 0 0)
(0 0 0)
(0 0 0)
(0 0 0)
(0 0 0)
(0 0 0)
(0 0 0)
(0 0 0)
(0 0 0)
(0 0 0)
(0 0 0)
(0 0 0)
(0 0 0)
(0 0 0)
(0 0 0)
(0 0 0)
(0 0 0)
(0 0 0)
(0 0 0)
(0.7342786218159809 0.0173202067499197 0.02457082870896107)
(0.7203138729958718 0.01553091662213436 0.08390855279656938)
(0.8126723881252492 0.0526567885414243 0.0457565586363578)
(0.900568865597841 0.05588369302437836 -0.002693111571398586)
(0.9743549261207248 0.03236571180776601 -0.01995291592891298)
(1.017310364688324 0.02648600305753055 -0.037977007079762)
(1.048043658210563 0.027047789075252 -0.06949113230697374)
(1.083525904848128 0.03750587974051069 -0.1085350426189226)
(1.103506267830477 -0.003402445367253874 -0.0764333795511678)
(1.04901780843877 -0.06491935821811134 0.01573400664937788)
(0.9857792862475927 0.01299725481783729 0.03008121820677246)
(0.9459142857596714 0.04362996669341187 -0.0372967517015779)
(0.9349367584799302 0.0754018077948161 -0.02053380193642022)
(0.9526675256740641 0.01592987344130571 -0.1243356866750417)
(1.03520915941804 -0.08075643651590432 -0.06593650955391109)
(1.071697828129578 -0.03625197757690234 -0.07216707934086405)
(1.034280006278021 -0.01523405104112905 -0.01630776932534049)
(0.9459539315759691 0.03263799023630737 -0.03805232171927348)
(0.9721306397115536 -0.06286948508695837 -0.02573044352333736)
(0.8313932494259251 -0.06351424568894812 -0.04039512520424197)