/*--------------------------------*- C++ -*----------------------------------*\
| =========                 |                                                 |
| \\      /  F ield         | OpenFOAM: The Open Source CFD Toolbox           |
|  \\    /   O peration     | Version:  v1812                                 |
|   \\  /    A nd           | Web:      www.OpenFOAM.com                      |
|    \\/     M anipulation  |                                                 |
\*---------------------------------------------------------------------------*/
FoamFile
{
    version     2.0;
    format      ascii;
    class       volScalarField;
    location    "10000";
    object      nut;
}
// * * * * * * * * * * * * * * * * * * * * * * * * * * * * * * * * * * * * * //

dimensions      [0 2 -1 0 0 0 0];


internalField   nonuniform List<scalar> 
3770
(
5.723311815488362e-06
5.723301968015498e-06
5.72330148056189e-06
5.723301636192845e-06
5.723301550251983e-06
5.723301501720259e-06
5.723301744885855e-06
5.723301651160382e-06
5.723301551190172e-06
5.723301890085348e-06
5.723301267654443e-06
5.723301559941307e-06
5.723301560526745e-06
5.723301529451083e-06
5.72330150345285e-06
5.723301489124489e-06
5.723301566890073e-06
5.723301598530027e-06
5.723302019418006e-06
5.723300601613135e-06
5.723302158456985e-06
5.723301453950371e-06
5.72330171643986e-06
5.723301279809425e-06
5.723301594613076e-06
5.723301403968405e-06
5.723301646613857e-06
5.723301427057679e-06
5.723301626051282e-06
5.723301501852408e-06
5.723301876080206e-06
5.723300672922315e-06
5.723301970909111e-06
5.72330161511532e-06
5.723301690784153e-06
5.723300761450414e-06
5.723302563278848e-06
5.723301142365465e-06
5.723301389386212e-06
5.723301444827288e-06
5.723301654889394e-06
5.723301386322601e-06
5.723301306804282e-06
5.723301470414763e-06
5.723301512647693e-06
5.72330156142948e-06
5.723301623977418e-06
5.723302212549803e-06
5.723301112987245e-06
5.723301683526712e-06
5.723301687980191e-06
5.723301759547019e-06
5.72330171638768e-06
5.723301756642077e-06
5.723301811652457e-06
5.723301665948381e-06
5.723301195346387e-06
5.723299345858697e-06
1.206615578402538e-06
1.206604560831194e-06
1.206607920250397e-06
1.206606154820046e-06
1.206606350548301e-06
1.206605938945227e-06
1.206606488474152e-06
1.206605796870971e-06
1.206605359791702e-06
1.206605688532496e-06
1.206604599040998e-06
1.206605555674545e-06
1.206605070654983e-06
1.206605190121748e-06
1.206604967707423e-06
1.206604918089671e-06
1.206605162400756e-06
1.206604856211369e-06
1.206605122182793e-06
1.206603972806409e-06
1.206606166648025e-06
1.206604392358158e-06
1.206605104241423e-06
1.206604397188869e-06
1.20660480590036e-06
1.20660442792651e-06
1.206604865470985e-06
1.206604478727026e-06
1.206604827249785e-06
1.20660463774374e-06
1.206604876779459e-06
1.206604039851708e-06
1.20660601596664e-06
1.206605024708593e-06
1.20660499989916e-06
1.206604373369355e-06
1.206606472428911e-06
1.206605248411575e-06
1.206605214655821e-06
1.206605518045672e-06
1.206605715605525e-06
1.206605928221581e-06
1.206605860765352e-06
1.206606242039613e-06
1.206606239565254e-06
1.206606770213931e-06
1.206606746499789e-06
1.206607953422281e-06
1.206606125949081e-06
1.206607098071983e-06
1.206606885589019e-06
1.206607327254941e-06
1.20660724533604e-06
1.206607347104326e-06
1.206607717463447e-06
1.206608368264164e-06
1.206609288241649e-06
1.206609867957777e-06
3.992138751787963e-06
3.99206189991534e-06
3.992089463313034e-06
3.992076409646148e-06
3.992079772902041e-06
3.99207679142669e-06
3.992078637117469e-06
3.992074027526732e-06
3.992072186814298e-06
3.992075543573199e-06
3.992065685980305e-06
3.992073782392999e-06
3.992069998945056e-06
3.992071916109425e-06
3.992069838491001e-06
3.992069788039075e-06
3.992073230936046e-06
3.992068818906526e-06
3.992070708088916e-06
3.99206261906578e-06
3.992079907061738e-06
3.99206683275147e-06
3.992071874308024e-06
3.99206707821374e-06
3.992070269085023e-06
3.992067524028347e-06
3.992070120049954e-06
3.992068107555305e-06
3.992070098639737e-06
3.992069314460961e-06
3.992069846512673e-06
3.992065093187972e-06
3.992080043990935e-06
3.99207050080811e-06
3.992071379467631e-06
3.99206923389262e-06
3.992077790055267e-06
3.992074629710969e-06
3.992072994685224e-06
3.992075108597525e-06
3.992076065638026e-06
3.992076110852743e-06
3.99207771181441e-06
3.992080177491397e-06
3.992079925762258e-06
3.992084611750645e-06
3.992083137636443e-06
3.992088871212744e-06
3.992077412154372e-06
3.992085389378596e-06
3.992084027872436e-06
3.992086275153779e-06
3.992085431887111e-06
3.992084518858349e-06
3.992087920650341e-06
3.992092636754787e-06
3.992097377031253e-06
3.992100008472458e-06
1.247401194322571e-05
1.247391071051778e-05
1.247394354253342e-05
1.247392711834792e-05
1.247392092176765e-05
1.247391729739665e-05
1.247392781811232e-05
1.247391752735178e-05
1.247390661140646e-05
1.247391994556298e-05
1.247390411280322e-05
1.247391550898942e-05
1.247390372799349e-05
1.247391590324232e-05
1.247389934941924e-05
1.247390410951566e-05
1.24739224802205e-05
1.24739035145754e-05
1.247390954212781e-05
1.247389072778377e-05
1.247393969303486e-05
1.247390655959201e-05
1.247391766636848e-05
1.247390732351595e-05
1.247391471872094e-05
1.247390759023387e-05
1.247391102218399e-05
1.247391199918257e-05
1.247391502256439e-05
1.247391895540325e-05
1.247391168227837e-05
1.247390626094116e-05
1.24739540846824e-05
1.247390973858547e-05
1.247391956013828e-05
1.247392243132423e-05
1.247394893503493e-05
1.247392147272488e-05
1.247392387203913e-05
1.247393535913182e-05
1.247393267767743e-05
1.247392991637697e-05
1.247393209104975e-05
1.247394076243102e-05
1.247393702998803e-05
1.247395403989208e-05
1.24739427807927e-05
1.247395748838504e-05
1.247392577684736e-05
1.247394457699135e-05
1.247394406915797e-05
1.247394630828975e-05
1.247394625358511e-05
1.247393977988149e-05
1.24739442188052e-05
1.247395291085097e-05
1.247393074978297e-05
1.247392423431587e-05
2.955408687710976e-05
2.955391556840416e-05
2.955393179245097e-05
2.955391817865965e-05
2.955392566880205e-05
2.955390883373517e-05
2.955390436281749e-05
2.955393157506009e-05
2.955388850715574e-05
2.955391950979144e-05
2.955391062708904e-05
2.95539070141794e-05
2.955388822471845e-05
2.955392636553058e-05
2.955387184819766e-05
2.955388733099511e-05
2.955394196810957e-05
2.955389306366235e-05
2.955390357038909e-05
2.955387062354028e-05
2.955397097538898e-05
2.955391895151876e-05
2.955393126192886e-05
2.955391384373629e-05
2.955392577418851e-05
2.955390047155148e-05
2.955392139379599e-05
2.955392461623797e-05
2.955392153358931e-05
2.955394567338858e-05
2.955391790247899e-05
2.955391579731057e-05
2.955401430129969e-05
2.955391774606772e-05
2.955393357968193e-05
2.955394746948053e-05
2.955399775510917e-05
2.955393171492924e-05
2.955394089818674e-05
2.955397627102886e-05
2.955395511705544e-05
2.955394353324143e-05
2.955395450732182e-05
2.955396725011676e-05
2.955395609588647e-05
2.955400096005412e-05
2.955396389148375e-05
2.955398613896339e-05
2.955392893009205e-05
2.955394899601909e-05
2.955396569150384e-05
2.955394834610826e-05
2.955395416730052e-05
2.955394112988611e-05
2.955395068150461e-05
2.95539784650754e-05
2.955389219769021e-05
2.955383311022514e-05
5.735805686396027e-05
5.735790673292067e-05
5.735788212672589e-05
5.73578842524941e-05
5.735790560005361e-05
5.735785404931505e-05
5.735788263885206e-05
5.735794173346237e-05
5.735786969183535e-05
5.735789630280778e-05
5.735792090695731e-05
5.735786912738631e-05
5.735786815848189e-05
5.735793851432656e-05
5.735781191528178e-05
5.735784648966141e-05
5.735796610485967e-05
5.735788971393347e-05
5.735785574136499e-05
5.73578533865874e-05
5.73579922745522e-05
5.735794901173535e-05
5.735794262552356e-05
5.735793756021393e-05
5.735794815496249e-05
5.735786066554967e-05
5.735791816148787e-05
5.735793334109741e-05
5.735792551390338e-05
5.735798396257714e-05
5.735792213834652e-05
5.735792304377419e-05
5.735806408712381e-05
5.735795989065408e-05
5.735794849837008e-05
5.735796784257008e-05
5.735807878314098e-05
5.735793660300038e-05
5.73579699967825e-05
5.735802875410976e-05
5.735797679144969e-05
5.735793708779323e-05
5.735800312303241e-05
5.7357966428166e-05
5.735795369822061e-05
5.735804450446826e-05
5.73579519257191e-05
5.735800726661329e-05
5.735790618016825e-05
5.735790097678111e-05
5.735795348132846e-05
5.735791893533447e-05
5.735790428678993e-05
5.735792760033588e-05
5.735791663935487e-05
5.735795849581408e-05
5.735778935332854e-05
5.735773691936695e-05
9.707784032265049e-05
9.707748950550176e-05
9.707746674725214e-05
9.707748702856288e-05
9.707750865181513e-05
9.70773949389318e-05
9.707747171646546e-05
9.707761559968313e-05
9.707749596333134e-05
9.707747003472916e-05
9.707762281692548e-05
9.707746789429897e-05
9.707744757235097e-05
9.707762843353547e-05
9.707739314204918e-05
9.707745738132053e-05
9.70776721931908e-05
9.707752473108509e-05
9.707747885012308e-05
9.707750791884468e-05
9.707769029351571e-05
9.70776698922221e-05
9.707760445204402e-05
9.707761033737453e-05
9.707769848204355e-05
9.707746056157559e-05
9.707753845050207e-05
9.707760435936868e-05
9.707758654205714e-05
9.707769801670347e-05
9.707760236249623e-05
9.707756840618413e-05
9.707781170394915e-05
9.707763361192034e-05
9.707762048056026e-05
9.707764889850423e-05
9.707785881642903e-05
9.707755021471906e-05
9.707763397321864e-05
9.707774709071367e-05
9.707760824421421e-05
9.707759193664505e-05
9.707771599481229e-05
9.70775764322172e-05
9.707756544363254e-05
9.707774763809129e-05
9.707757516314394e-05
9.707763940592143e-05
9.707752947766315e-05
9.70774653362448e-05
9.707757072813358e-05
9.707747638867301e-05
9.707755091879605e-05
9.707749094878555e-05
9.707748777790669e-05
9.707755520187107e-05
9.707735882083603e-05
9.707718936657797e-05
0.0001495784198444964
0.0001495781373657223
0.0001495781057970273
0.0001495782883401929
0.0001495780525489086
0.0001495780236193714
0.0001495781504392611
0.0001495784019743173
0.0001495781833844398
0.0001495781365757611
0.0001495783881268229
0.0001495781139243647
0.0001495780911763108
0.0001495783997265392
0.0001495780246965456
0.0001495781312709442
0.0001495784902826564
0.0001495781340407531
0.0001495782497802624
0.0001495782852326919
0.0001495784741725654
0.0001495785243879867
0.000149578333766974
0.0001495783327530649
0.0001495785426556672
0.0001495781031750641
0.0001495782294133798
0.0001495783367147456
0.0001495783021880158
0.0001495785060570538
0.0001495783758980676
0.0001495781949769141
0.0001495786829012994
0.0001495783050742252
0.0001495783534788133
0.0001495783912435862
0.0001495786282518704
0.0001495783602273842
0.000149578360188115
0.0001495785340553557
0.0001495783197978335
0.000149578312995537
0.0001495785198665563
0.0001495782207875318
0.0001495782204645133
0.0001495785049291145
0.0001495782333531244
0.0001495783598966963
0.0001495781667880838
0.0001495781012626701
0.0001495782067678485
0.0001495780834153346
0.0001495782617958368
0.0001495781097020986
0.0001495780131668739
0.0001495781674440238
0.0001495778894661028
0.0001495778712387098
0.0002164273607068254
0.0002164266770429583
0.0002164265534998813
0.0002164269750676814
0.00021642661598031
0.0002164266347300815
0.0002164267475536912
0.0002164271509144144
0.0002164267545093071
0.0002164267895966832
0.0002164271427667535
0.00021642667024226
0.0002164266740269967
0.0002164271321233519
0.0002164266208120083
0.0002164267581089173
0.000216427262302913
0.0002164267090725842
0.0002164269509032234
0.0002164270047515527
0.0002164272507132136
0.000216427348750186
0.0002164270247514813
0.0002164269893669532
0.0002164273334952924
0.0002164266714531861
0.0002164268409522821
0.0002164270324411687
0.0002164269451676341
0.0002164272688598137
0.000216427054629822
0.000216426790337804
0.0002164274944448694
0.0002164269675534648
0.0002164269656831768
0.0002164270515300241
0.0002164273669102232
0.0002164270416246702
0.0002164270698725144
0.0002164272924304751
0.0002164270007997582
0.000216426812515501
0.0002164272382913741
0.0002164267498177051
0.0002164267679591286
0.0002164271741234079
0.0002164268968183627
0.0002164269380671916
0.0002164267499425807
0.0002164266308946937
0.0002164267881576375
0.0002164265800751898
0.0002164269021863521
0.0002164266176397386
0.0002164264472740622
0.000216426748559098
0.0002164263571791292
0.000216426164628609
0.0003009976983616881
0.0003009971140873785
0.0003009970402754071
0.0003009975589738541
0.0003009969294739119
0.0003009969231304082
0.0003009972403810503
0.0003009977664569426
0.0003009972230438142
0.0003009973163550901
0.0003009976303285779
0.0003009970779882297
0.0003009970696907554
0.0003009976921863184
0.0003009970308612633
0.0003009971941608414
0.0003009978482361054
0.0003009972020814715
0.000300997378748505
0.0003009976068083832
0.0003009979332891098
0.0003009980298401707
0.0003009975845241333
0.000300997391621503
0.0003009979398318679
0.0003009971059780337
0.0003009972901092085
0.0003009975369171138
0.0003009974810625397
0.000300997873046631
0.0003009974754207439
0.0003009972350099565
0.0003009981295531564
0.0003009975402645227
0.0003009974275365241
0.000300997586933739
0.000300997741897121
0.0003009976717240735
0.0003009976122552435
0.0003009978857590336
0.0003009974383970527
0.000300997215687411
0.0003009978231960757
0.0003009970340340934
0.0003009971141600037
0.0003009976839302173
0.0003009972238480203
0.0003009974082151591
0.000300997068486132
0.0003009969411883797
0.0003009971359316035
0.0003009969793557268
0.0003009973638209359
0.0003009969529736855
0.0003009966942531629
0.0003009971318378796
0.0003009965461929458
0.0003009965083502293
0.0004093644005765595
0.00040936289607673
0.0004093624780566589
0.0004093633936306194
0.0004093627027724799
0.0004093627418337128
0.0004093629646723103
0.0004093635958741356
0.0004093632403225586
0.0004093632449787934
0.0004093634075634864
0.0004093628164757712
0.0004093628308876188
0.0004093636166707599
0.000409362769566122
0.0004093629584761149
0.0004093637695030543
0.0004093631034725782
0.0004093630606908
0.0004093634706122433
0.0004093639276523246
0.0004093640505212183
0.0004093634353884209
0.0004093630548085674
0.0004093637897342914
0.0004093630591433335
0.0004093630589462576
0.0004093633307733773
0.0004093633054593421
0.0004093638285285658
0.0004093631341145824
0.000409362961966963
0.0004093641466927146
0.0004093631657380942
0.0004093632469083098
0.0004093634498772693
0.000409363853563836
0.0004093634342145288
0.0004093634590186817
0.0004093638201285287
0.0004093628629485847
0.0004093628885087069
0.0004093636700250929
0.0004093625432451936
0.000409362705353422
0.0004093634129632017
0.0004093631288837409
0.0004093630919073426
0.0004093625193257338
0.0004093625033144587
0.0004093628807450823
0.0004093627022788746
0.0004093631492617962
0.0004093625251766334
0.0004093622422503073
0.0004093628293262778
0.0004093619137990032
0.0004093616307278517
0.0005507875376625357
0.0005507858601375904
0.0005507852280743512
0.0005507864775333014
0.0005507852132787262
0.0005507854978424992
0.0005507864692274628
0.0005507864511775275
0.0005507865411973912
0.0005507859091584226
0.0005507856770687504
0.0005507856076080487
0.0005507858187539205
0.000550786552864244
0.0005507855887513204
0.0005507857427987507
0.000550786808939659
0.0005507859285698123
0.0005507859076024432
0.0005507864113414616
0.0005507868912908566
0.0005507871707514931
0.0005507859728139037
0.0005507858571861943
0.0005507867060310548
0.0005507858589270067
0.0005507858646516812
0.000550786135479019
0.0005507860970019283
0.0005507868269340473
0.0005507858726233733
0.0005507856729597084
0.0005507872891442521
0.0005507855919484748
0.0005507862356671371
0.0005507862658286145
0.0005507867552518576
0.0005507864380370918
0.0005507863724827067
0.0005507867495114267
0.0005507855487854494
0.0005507853865128745
0.0005507866085936782
0.0005507850717953076
0.0005507853332816616
0.0005507863262052774
0.0005507858403948685
0.0005507854306403644
0.0005507854880531708
0.0005507853818787651
0.0005507856808826082
0.0005507855546469651
0.000550786012311282
0.0005507851990528615
0.0005507851851768116
0.0005507854569137555
0.0005507841384868818
0.0005507842537898556
0.0007380877723763768
0.0007380847334664231
0.0007380843509991315
0.0007380857979063055
0.000738084432558524
0.0007380847572483331
0.0007380860884713319
0.0007380853685290077
0.0007380855689447905
0.0007380856604891038
0.0007380848809272883
0.0007380853564664391
0.0007380854160869048
0.0007380859064847379
0.0007380846950795666
0.0007380847073875112
0.0007380862259304986
0.0007380848689061303
0.0007380856179543628
0.0007380857356377643
0.0007380857734991919
0.0007380865045152878
0.000738084907790047
0.0007380848510302942
0.0007380860551288697
0.0007380844210304814
0.0007380844965807751
0.0007380851986893963
0.0007380852535115792
0.0007380861401062709
0.0007380850173568414
0.0007380846207591657
0.0007380865321753578
0.0007380845174228211
0.0007380854471591098
0.0007380850437530936
0.0007380862444425374
0.0007380854355387744
0.0007380854154761882
0.0007380859853763311
0.0007380841921785197
0.0007380842253222211
0.0007380857132412052
0.0007380841121469817
0.0007380841125185128
0.0007380855029450623
0.0007380848009279242
0.0007380837549095946
0.0007380849049242218
0.0007380845955684542
0.0007380849834281608
0.0007380847843478783
0.0007380852921412769
0.0007380844496632166
0.0007380839510221552
0.0007380833971761385
0.0007380830102836599
0.0007380825733802553
0.0009899583397925311
0.0009899528652503784
0.000989953407365048
0.0009899544451460358
0.0009899542035363656
0.000989954102691717
0.0009899553181164371
0.000989953429587164
0.0009899544422191228
0.00098995421031037
0.0009899540512966084
0.0009899544738522085
0.0009899537632400504
0.0009899546977756354
0.000989953289311571
0.0009899533291916438
0.0009899548655047591
0.0009899545310083939
0.0009899548813456726
0.0009899541912800208
0.0009899535711661506
0.0009899551668147817
0.0009899533697821602
0.0009899533467941225
0.0009899545359989246
0.0009899530060592839
0.000989952892369041
0.0009899539429497409
0.000989953840511662
0.0009899548849618912
0.0009899538184971678
0.0009899531564958966
0.0009899551432950783
0.0009899530702762716
0.0009899536805529072
0.0009899541963983949
0.0009899550251964806
0.0009899541391668917
0.0009899536801140957
0.0009899546633089925
0.0009899527990514471
0.0009899528352860505
0.0009899545686254743
0.0009899526698506145
0.0009899528242014186
0.0009899543185788626
0.0009899534038244693
0.0009899522292455322
0.0009899538612162626
0.0009899535530933892
0.0009899539974166699
0.0009899538018727939
0.0009899542040218505
0.0009899533958835343
0.0009899530367271118
0.0009899519655916431
0.000989951455852296
0.0009899518714132094
0.001346309459443178
0.001346305919030605
0.001346306113207191
0.001346306224019892
0.001346305770049969
0.001346305943263757
0.001346306926674423
0.001346305085836031
0.001346306123741226
0.001346305225079301
0.001346306211387856
0.001346305389839409
0.001346305089787103
0.001346305771018243
0.00134630465845358
0.001346304758976627
0.001346306050592207
0.001346305492839427
0.00134630625110726
0.001346304610043352
0.001346304951398904
0.001346305817720818
0.001346304480781377
0.001346304446350188
0.001346305156263488
0.001346304406758226
0.001346304767984974
0.001346304900186127
0.001346304238814238
0.001346305665164227
0.001346305493190305
0.001346304564245512
0.00134630578235394
0.00134630425941493
0.001346304618103659
0.001346305369366833
0.001346306055697496
0.00134630483672482
0.001346304824377151
0.001346305671350406
0.00134630428381341
0.001346304227052921
0.001346305678166492
0.001346304085123047
0.001346304536456764
0.001346305694586817
0.001346304944746401
0.001346304252888425
0.001346305789080594
0.001346305355714558
0.001346306070105808
0.001346305813691775
0.001346306187413054
0.001346305540899493
0.001346305648268394
0.001346303972580742
0.001346303476720008
0.001346303414674627
0.001943438451810028
0.001943434907963756
0.001943435233050519
0.001943434641381827
0.001943434328964299
0.001943434439485936
0.001943434943931653
0.001943434109854911
0.001943434162135364
0.001943433633444848
0.001943433994333966
0.001943433055373431
0.001943432762879594
0.001943432685186541
0.001943432629140867
0.001943432630983889
0.001943433238688185
0.001943433165626034
0.001943433135012366
0.001943432527254175
0.001943432704622138
0.001943432583365661
0.001943432601096565
0.001943432586897042
0.001943432263227537
0.001943432129554364
0.001943432541014205
0.001943432662339673
0.001943432317143682
0.001943432901589106
0.001943433039392988
0.001943432077071036
0.001943432779974801
0.001943432455848514
0.00194343244874431
0.001943432942129281
0.001943433348563704
0.00194343237593553
0.001943432669155962
0.00194343323435818
0.001943432641847614
0.001943432497053443
0.001943433498171652
0.001943432841979308
0.001943433039238173
0.001943433663756576
0.001943433874169511
0.001943433437157365
0.001943434523942178
0.00194343430039691
0.001943434940669761
0.001943434751618347
0.001943435233237456
0.001943434932627562
0.001943435062258741
0.001943433188597141
0.001943433006120364
0.001943433264076269
0.002750303850790311
0.002750300382380973
0.002750300538159454
0.002750300024881237
0.002750299638302334
0.002750299709768372
0.002750300162263691
0.00275029920414728
0.002750298872843181
0.002750298574783536
0.002750298723979706
0.00275029797717034
0.002750297735164103
0.002750297544267765
0.002750297573711296
0.00275029748016672
0.002750297351479658
0.002750297555410765
0.002750297296606248
0.002750296964970335
0.002750297027081672
0.002750297015937135
0.002750296953427531
0.002750296868608437
0.002750296896950808
0.002750296969974753
0.002750297065863193
0.002750297133017437
0.002750296982499379
0.00275029724387716
0.002750297263040705
0.002750296875739923
0.002750296990591476
0.00275029716188811
0.002750297208751066
0.002750297359172587
0.002750297586959025
0.002750296635568608
0.002750297361408089
0.002750297722944215
0.00275029764658561
0.002750297497670006
0.002750298237523573
0.002750298167344286
0.002750298298232794
0.002750298522076902
0.002750299028511952
0.002750298984651723
0.002750299943284807
0.002750299820262544
0.002750300423416821
0.002750300318615502
0.002750300774337708
0.002750300540308054
0.002750300472538442
0.002750299584492409
0.002750298704823547
0.002750298883613259
0.003700565488174895
0.003700563004135366
0.003700562770130823
0.003700562557140516
0.003700561875173702
0.003700561953232653
0.003700562311683567
0.003700561634753728
0.003700561215104295
0.003700560549002714
0.003700560721747432
0.003700560009613159
0.003700559848927991
0.003700559560279731
0.003700559472604285
0.003700559176831787
0.00370055920889927
0.003700559203593322
0.003700558964564493
0.003700558535781133
0.003700558571219196
0.003700558740355386
0.003700558521992266
0.003700558321233482
0.003700558500068312
0.003700558625646893
0.003700558629327765
0.003700558658590345
0.003700558673907805
0.003700558883575009
0.003700558758594335
0.003700558472722448
0.00370055851624958
0.003700558872368174
0.003700558988124035
0.003700559038699776
0.003700559266295537
0.00370055829127169
0.003700559106988442
0.003700559594506412
0.003700559592004394
0.003700559524826013
0.003700560362169219
0.00370056043592431
0.003700560432849923
0.00370056055818138
0.003700561421442771
0.00370056148325166
0.003700562425525621
0.003700562452282269
0.003700562867351278
0.003700562721958146
0.003700563074890394
0.003700562953403082
0.003700563001607382
0.003700562204953583
0.003700561072360593
0.003700561256950963
0.00473984217939172
0.004739840215950187
0.004739839676343272
0.004739839512669276
0.004739838695012431
0.004739839007802025
0.00473983917122792
0.0047398387131337
0.004739838323322104
0.004739837503681797
0.004739837661584837
0.004739837050701698
0.004739836799369074
0.004739836394284323
0.00473983629760011
0.004739835893908953
0.004739835922033598
0.004739835933967591
0.004739835595297121
0.004739835078453283
0.004739835104481986
0.004739835393450353
0.004739834973462803
0.004739834677287572
0.004739834953355927
0.004739835112580746
0.004739835084886823
0.004739835263080551
0.004739835069643369
0.00473983547499186
0.004739835257503696
0.004739835004341444
0.004739835119601889
0.004739835388480081
0.0047398356323863
0.004739835644214439
0.004739835859820237
0.004739834895338442
0.004739835809101191
0.004739836228959259
0.004739836283682328
0.004739836323651362
0.004739837261239352
0.004739837181962626
0.004739837099131511
0.004739837030963291
0.004739838440745716
0.004739838536948227
0.00473983953811538
0.004739839618580228
0.004739839827032408
0.004739839719749566
0.004739840067173097
0.004739839980346629
0.004739839986182667
0.004739839460953231
0.004739838090079251
0.004739838076883066
0.005836149168349233
0.005836148150582971
0.005836147229787736
0.005836147049288207
0.0058361460937638
0.005836146354371061
0.00583614660840209
0.005836146206557688
0.005836145822234281
0.005836145043682385
0.005836144890505599
0.005836144575213117
0.005836144196981124
0.005836143692072724
0.005836143633117714
0.00583614316735742
0.005836143144182153
0.005836143161070103
0.005836142810878072
0.005836142253571461
0.005836142277752313
0.005836142429083915
0.00583614195564547
0.00583614162195654
0.005836141888568252
0.005836142095837204
0.0058361419671691
0.005836142201101655
0.005836142168541271
0.005836142534739659
0.005836142336865951
0.005836142039726599
0.005836142259219185
0.005836142621145728
0.005836142683014355
0.005836142827553891
0.005836143051566454
0.00583614211551715
0.005836142936539948
0.005836143456073875
0.005836143382214072
0.005836143841570871
0.005836144531133764
0.005836144446815924
0.00583614453720609
0.005836144268061189
0.005836145881977961
0.005836146000096978
0.005836146995006239
0.005836147090477957
0.005836147235016752
0.005836147086803204
0.005836147724821522
0.005836147649427582
0.00583614786461958
0.005836147104472509
0.005836145370748876
0.005836144959458692
0.006977848616178717
0.006977848802828012
0.006977847285441531
0.006977847293759847
0.006977846068210974
0.00697784582867737
0.006977846743776851
0.006977846204202918
0.006977845809689028
0.006977845124518387
0.006977845077489531
0.006977844612202284
0.006977844206258401
0.006977843776144381
0.006977843621202424
0.006977843141918067
0.006977843002129063
0.006977842885755889
0.006977842814807492
0.006977842127532323
0.006977842007053378
0.006977841916304916
0.006977841530465162
0.006977841156753886
0.006977841260640689
0.006977841582780928
0.006977841666316984
0.006977841604350837
0.006977841640833518
0.006977842179589154
0.00697784214444848
0.006977841781335993
0.006977841691977009
0.00697784228735973
0.006977842366537587
0.006977842880324798
0.006977843221920749
0.006977842197775017
0.006977842358890263
0.006977843203381412
0.006977843325800645
0.006977843547696868
0.006977844099362497
0.006977844227494995
0.006977844207359881
0.006977844182892312
0.00697784580485474
0.006977845934524871
0.006977846910814722
0.006977847092531493
0.006977847361412079
0.006977847471505387
0.006977848046985024
0.006977848185347063
0.006977848356457277
0.006977847417220695
0.006977844961495825
0.006977842463228112
0.008129941650627392
0.008129941702411747
0.008129940308456771
0.008129939910573834
0.008129938670365417
0.00812993850096232
0.008129939482413362
0.008129938629506766
0.008129938143741293
0.008129937720408965
0.008129937743054913
0.008129937168793393
0.008129936625325103
0.008129936403555802
0.008129936104050757
0.008129935894057409
0.008129935743242854
0.00812993564890791
0.008129935682249569
0.008129934746840602
0.008129934488206807
0.008129934205046473
0.00812993387034449
0.008129933691088298
0.008129933797161606
0.008129933766502426
0.008129934024151089
0.008129934058874097
0.008129934042081798
0.00812993457534943
0.00812993473736982
0.008129934333869035
0.008129934218197202
0.008129934543014044
0.008129934688172661
0.008129935324110367
0.008129935483710791
0.008129934657631491
0.008129934877987816
0.008129935717815538
0.008129935744327061
0.008129935836196445
0.008129936195443223
0.008129936562525236
0.008129936920452054
0.00812993707645056
0.008129938404976993
0.008129938263450235
0.008129939368918626
0.008129939761090367
0.008129940134683381
0.008129940351061815
0.008129941181304268
0.008129941104864976
0.008129941296576021
0.008129940401838284
0.008129937884534854
0.008129935659058963
0.00920034903482703
0.009200348235765477
0.009200347799939919
0.009200346544798994
0.0092003454765199
0.009200345274123632
0.009200346315393116
0.009200345058704198
0.009200344463727078
0.00920034445732317
0.009200344734584073
0.009200343779328483
0.009200343324908076
0.009200343247802433
0.009200342992709335
0.009200342864722334
0.009200342894591507
0.009200342792713761
0.009200342860209295
0.009200341516578133
0.009200341395867088
0.009200340743081452
0.009200340578609943
0.009200340591096791
0.009200340323873193
0.009200340313243899
0.009200340735492595
0.009200340829404656
0.009200340575184767
0.00920034117329605
0.009200341585729145
0.009200340899897259
0.009200340811758983
0.009200340895333812
0.009200341053072663
0.009200341955522598
0.009200341914781711
0.009200341281239541
0.009200341588952934
0.009200341976985034
0.009200342314394943
0.009200342315597397
0.00920034230227742
0.009200342713686917
0.009200343561665734
0.009200343632935627
0.009200345183200266
0.00920034500062999
0.009200345650580685
0.009200346762276797
0.009200347130352643
0.009200347379716556
0.009200348610938398
0.00920034813792312
0.00920034867748196
0.009200347225107073
0.009200345238036159
0.009200344033934939
0.01017383228935149
0.01017383112640695
0.01017383100799414
0.0101738293044801
0.0101738282460271
0.01017382813528366
0.01017382902274441
0.01017382795409747
0.01017382718431894
0.01017382701280403
0.01017382720942384
0.01017382667849599
0.01017382673613761
0.01017382623852199
0.01017382523686404
0.01017382572394642
0.01017382588069914
0.01017382586989176
0.01017382589151971
0.01017382461145021
0.01017382477679926
0.01017382373943613
0.0101738233171935