/*--------------------------------*- C++ -*----------------------------------*\
| =========                 |                                                 |
| \\      /  F ield         | OpenFOAM: The Open Source CFD Toolbox           |
|  \\    /   O peration     | Version:  v1812                                 |
|   \\  /    A nd           | Web:      www.OpenFOAM.com                      |
|    \\/     M anipulation  |                                                 |
\*---------------------------------------------------------------------------*/
FoamFile
{
    version     2.0;
    format      ascii;
    class       volScalarField;
    location    "10000";
    object      nuTilda_0;
}
// * * * * * * * * * * * * * * * * * * * * * * * * * * * * * * * * * * * * * //

dimensions      [0 2 -1 0 0 0 0];


internalField   nonuniform List<scalar> 
3770
(
0.0004956923607489617
0.0004956920434083628
0.000495692026855005
0.0004956920280547861
0.0004956920279087461
0.0004956920245516659
0.0004956920352413208
0.0004956920303514726
0.0004956920254806912
0.0004956920415632898
0.0004956920128876952
0.000495692029159693
0.0004956920277298069
0.0004956920261850383
0.0004956920260038683
0.0004956920250117306
0.0004956920280489473
0.000495692029021422
0.0004956920444530182
0.0004956919934806747
0.0004956920508966782
0.0004956920229327817
0.0004956920334604888
0.0004956920177597302
0.0004956920291846315
0.0004956920216542285
0.0004956920313777961
0.0004956920223658188
0.000495692030745479
0.0004956920251142985
0.0004956920398458733
0.0004956919947201178
0.0004956920433142989
0.0004956920308014484
0.0004956920343012028
0.0004956919944337306
0.0004956920637661484
0.0004956920156375198
0.0004956920226613286
0.0004956920220005541
0.0004956920298491689
0.0004956920240388147
0.0004956920193468457
0.0004956920234618833
0.0004956920265890573
0.0004956920276461635
0.0004956920267991199
0.0004956920568594752
0.0004956920083441936
0.0004956920326999524
0.0004956920284415115
0.0004956920351435091
0.0004956920305386921
0.0004956920333394584
0.0004956920344688385
0.0004956920310456207
0.0004956920191237695
0.0004956919684436014
0.0003352151594750659
0.0003352138415439126
0.0003352141830848064
0.0003352140342147672
0.0003352140563834618
0.0003352140172764393
0.0003352140797989831
0.0003352140141401703
0.0003352139785095943
0.0003352140255123447
0.0003352138908801886
0.0003352140047739286
0.0003352139614049498
0.000335213963630514
0.000335213953705356
0.0003352139480241008
0.000335213973960269
0.000335213954409863
0.0003352139808893491
0.0003352138364841709
0.000335214089803038
0.0003352138992905032
0.0003352139737614211
0.0003352139001654522
0.0003352139465747874
0.000335213907335345
0.0003352139544268882
0.0003352139110647171
0.0003352139520097241
0.0003352139283366857
0.0003352139582974062
0.0003352138365269965
0.0003352140662222548
0.0003352139642908348
0.0003352139614576028
0.000335213852427295
0.0003352141252010387
0.0003352139493995921
0.0003352139704691661
0.0003352139755454661
0.0003352140037882211
0.0003352140206345286
0.0003352140056584432
0.0003352140320798009
0.0003352140430720478
0.0003352140821793129
0.0003352140790323447
0.0003352142179608344
0.0003352139921586385
0.0003352141136957228
0.0003352140768091784
0.0003352141261807991
0.0003352141068087484
0.0003352141134493338
0.000335214129598993
0.0003352141715854052
0.0003352142595454435
0.0003352143788479557
0.0004526925191786783
0.0004526890082252013
0.0004526901300303029
0.0004526896752572459
0.0004526897995311864
0.0004526896882629067
0.0004526898024274606
0.0004526896195150356
0.0004526895603636897
0.0004526897309271262
0.0004526892435108906
0.000452689632171172
0.0004526894937905775
0.0004526895455501149
0.000452689491373017
0.0004526894878672376
0.000452689629120237
0.0004526894917051269
0.0004526895529991618
0.0004526891238829907
0.000452689989914752
0.0004526893748076379
0.0004526895867502205
0.0004526893801829807
0.0004526895263046674
0.0004526894151499651
0.0004526895285505753
0.0004526894300982892
0.0004526895324721118
0.0004526894824517375
0.0004526895130353911
0.0004526891961283629
0.0004526899706961466
0.0004526895341595516
0.0004526895331465531
0.000452689320198721
0.000452689972690219
0.000452689561002307
0.0004526895960483873
0.0004526896198145419
0.000452689676727105
0.0004526896681964513
0.0004526896839712967
0.0004526897738063428
0.0004526897924179811
0.000452689937774338
0.0004526899150298147
0.0004526902204493874
0.0004526895505995724
0.0004526899810427643
0.0004526898815105891
0.0004526899848255321
0.0004526899450123073
0.0004526898862250896
0.0004526899774301599
0.0004526900845299855
0.0004526903027459528
0.0004526905862878456
0.0006036815895738875
0.0006036799195365483
0.0006036804205018685
0.0006036801921278595
0.0006036801242200465
0.0006036800471927351
0.000603680258071969
0.0006036800914818199
0.0006036799077801384
0.0006036801525669311
0.0006036797918773869
0.0006036800758749701
0.0006036798735326543
0.0006036800456090235
0.0006036798016359572
0.0006036799076428737
0.0006036801589906928
0.0006036799054595055
0.0006036800064457375
0.0006036795877270394
0.0006036805034500721
0.0006036799028722931
0.0006036800974645751
0.0006036799096361231
0.0006036800483699233
0.0006036799376239617
0.00060367999424649
0.0006036799748356539
0.0006036800649878494
0.0006036800726024845
0.000603680035819694
0.0006036797726629645
0.0006036806916207598
0.0006036799759495796
0.0006036800808645667
0.0006036799619531943
0.000603680708444686
0.0006036800423897434
0.0006036801563833937
0.0006036802550624882
0.0006036802650848849
0.0006036802553166637
0.000603680207729672
0.0006036803459530991
0.000603680301481385
0.000603680524777527
0.0006036803820268029
0.0006036807380816145
0.0006036800172396728
0.0006036804302217294
0.0006036803570070706
0.0006036804501941832
0.0006036804435127412
0.0006036803079157931
0.0006036803959065549
0.0006036804629238646
0.0006036802014464167
0.0006036801585485744
0.0007525639640594569
0.0007525626478569507
0.0007525627823328559
0.0007525626865852331
0.0007525627404006428
0.0007525625861039958
0.0007525626466431542
0.0007525627917039265
0.0007525624457378074
0.0007525627349215329
0.0007525625156742036
0.0007525626416282912
0.0007525624436040611
0.0007525627311388745
0.0007525623054591534
0.0007525624849180007
0.0007525628506809628
0.0007525625222733089
0.0007525626336092167
0.0007525622091922035
0.0007525631650034281
0.000752562654307978
0.0007525627901824452
0.0007525626086988096
0.000752562735122644
0.0007525625397079864
0.0007525627076253819
0.0007525626835448969
0.0007525627542905872
0.0007525628351759181
0.0007525627328102749
0.000752562505061186
0.0007525634706046233
0.0007525626735395958
0.0007525627464241496
0.000752562707823008
0.0007525634351247436
0.0007525626821858802
0.0007525628349545352
0.0007525630076257363
0.0007525629756946422
0.0007525628500327877
0.0007525628849748366
0.0007525630023850743
0.0007525629158214035
0.0007525632371911729
0.00075256298172883
0.0007525633064808335
0.0007525625903717779
0.0007525629116503745
0.0007525629396134361
0.0007525629373933327
0.0007525629326728721
0.0007525627869515245
0.0007525629178804252
0.0007525630484104972
0.0007525625125958275
0.0007525620063836062
0.0008941005468307355
0.0008940999604371854
0.0008940998172008011
0.0008940998668635234
0.0008940999565696792
0.00089409966294765
0.0008940999112886224
0.0008941000841511291
0.0008940997670268013
0.0008940999101832492
0.0008940998646509828
0.0008940998604035872
0.0008940997492506887
0.0008941000688417521
0.0008940994607020889
0.0008940996983028061
0.0008941001597493843
0.0008940999042943879
0.0008940997879071928
0.0008940995769765767
0.0008941003562799553
0.0008941000827901727
0.0008941001124135491
0.0008941000299336515
0.0008941001010149964
0.0008940996859423704
0.0008940999718714992
0.0008941000330924074
0.0008941000725460297
0.0008941002064394243
0.0008941000735025219
0.0008940998622095344
0.0008941006568946446
0.0008941001774726196
0.0008941000661798324
0.0008941000733469738
0.0008941008312674152
0.0008940999694421803
0.0008941002183871123
0.0008941003759762411
0.0008941002898748475
0.0008941000434134558
0.000894100279533847
0.0008941002020846706
0.0008941001152929988
0.0008941005074865132
0.0008941000821982081
0.0008941004955326307
0.0008940997740927605
0.000894099962315699
0.0008941000608985437
0.0008941000595931362
0.0008940998563242005
0.0008941000120172437
0.0008941000144116537
0.0008941001361291307
0.000894099483024062
0.0008940991203372222
0.001028221413942573
0.001028220384691172
0.001028220353062327
0.001028220340630519
0.001028220483541643
0.001028220017473086
0.001028220406072691
0.001028220723044329
0.001028220443296235
0.001028220308102917
0.00102822062570404
0.001028220429572088
0.001028220204131163
0.001028220783794845
0.001028220003628741
0.001028220306485918
0.001028220893650258
0.001028220507076006
0.001028220413570181
0.001028220291440579
0.001028221003160385
0.001028220887354463
0.001028220790551953
0.001028220685586031
0.00102822100726062
0.001028220213394789
0.001028220541883577
0.001028220686466921
0.001028220740428808
0.00102822091724853
0.001028220808803498
0.001028220459929196
0.001028221380565765
0.001028220808733538
0.001028220714944712
0.001028220757890495
0.001028221645926906
0.001028220425353316
0.001028220825260807
0.001028221073517539
0.00102822071407375
0.001028220683030503
0.001028220994138659
0.001028220575357425
0.001028220636778091
0.00102822113978819
0.001028220589176086
0.001028220958118882
0.001028220342707639
0.001028220378111361
0.001028220576109704
0.00102822036142792
0.001028220480745018
0.001028220455307758
0.001028220383984046
0.001028220544245329
0.001028220062885593
0.001028219428605964
0.001156880472024354
0.001156879984495538
0.001156879873516629
0.001156880244884975
0.00115687982515691
0.001156879587771486
0.001156880049852886
0.001156880494966705
0.001156880060275018
0.001156879913178313
0.001156880365388406
0.001156880015521401
0.001156879775071821
0.00115688052156155
0.001156879588013547
0.001156879962383723
0.001156880725330604
0.001156879900034204
0.001156880215809568
0.001156880156358423
0.001156880679228732
0.001156880713732432
0.001156880472933003
0.001156880304702261
0.001156880858340069
0.001156879759955153
0.001156880167260137
0.001156880324658835
0.001156880378978795
0.001156880656045473
0.001156880608678581
0.001156879890517309
0.001156881184668864
0.001156880262706599
0.001156880396398551
0.001156880438483511
0.001156881137653817
0.001156880319859338
0.001156880455144865
0.001156880728817901
0.001156880312297003
0.001156880383373735
0.001156880749591268
0.001156880033822052
0.001156880178721284
0.001156880749591416
0.001156880069964878
0.001156880536025627
0.001156879903003621
0.001156879874076284
0.001156880048112493
0.001156879809575027
0.001156880126346608
0.001156879997136401
0.001156879645761292
0.001156880005779801
0.00115687944157695
0.001156879322166429
0.001283560945952976
0.001283560037183237
0.00128355966471881
0.001283560426794026
0.001283559823206452
0.001283559753858295
0.001283560138584596
0.001283560749937716
0.001283559948255157
0.00128356018651687
0.001283560599689417
0.001283560019359295
0.001283559825583582
0.001283560707496086
0.001283559688329506
0.001283560108595371
0.001283560952095916
0.001283559899507732
0.001283560403746952
0.001283560460274488
0.001283560908505201
0.001283560972659934
0.001283560659792613
0.001283560384697188
0.001283561096028942
0.001283559768060298
0.001283560254694076
0.001283560448765571
0.001283560453606279
0.0012835608346256
0.001283560750366726
0.001283559911267337
0.001283561387868761
0.00128356040832208
0.001283560338302468
0.001283560533403623
0.001283561219344178
0.001283560432617551
0.001283560647377424
0.001283560865465672
0.001283560596614432
0.001283560128834512
0.001283560863102932
0.001283559933055608
0.00128356015854564
0.001283560791326141
0.001283560252859909
0.001283560495224364
0.001283559941533992
0.001283559852764805
0.001283560065949469
0.001283559722276899
0.001283560214506178
0.001283559984845284
0.0012835594773147
0.001283560007867562
0.001283559490249152
0.001283559040850218
0.001413142406972067
0.00141314201903513
0.001413141708534618
0.00141314248199838
0.001413141522984493
0.001413141429052341
0.001413142121523955
0.001413142776666892
0.001413141824115998
0.001413142220182042
0.001413142460035582
0.001413141931201679
0.001413141665764423
0.001413142670035118
0.001413141558878246
0.001413142033675681
0.001413142884629678
0.001413141862883814
0.001413142284677275
0.001413142570977529
0.001413142980256986
0.001413143013255575
0.001413142703226572
0.001413142121991083
0.001413143050518357
0.001413141651107963
0.001413142168596488
0.001413142375269404
0.001413142327107707
0.001413142779861253
0.00141314256852405
0.001413141797100031
0.00141314328261732
0.00141314254223106
0.001413142198423449
0.001413142522052001
0.001413142731986007
0.001413142494375862
0.00141314262210479
0.001413142795773615
0.00141314247571208
0.001413141909469256
0.001413142838812258
0.001413141562840671
0.001413141942741377
0.001413142658788677
0.001413141871176015
0.001413142364903343
0.001413141662473488
0.001413141597205458
0.001413141800099175
0.001413141589238346
0.001413142084365822
0.001413141811421642
0.001413141173247898
0.001413141872088722
0.001413141244885673
0.001413140922186268
0.001551740039638979
0.001551738903558779
0.001551737991821357
0.001551739198573259
0.001551738255532757
0.001551738484572385
0.001551738732887119
0.001551739422992617
0.00155173885819279
0.001551739072817983
0.001551739099191951
0.001551738537053976
0.001551738391745209
0.001551739440810594
0.001551738221370895
0.001551738765229202
0.001551739609554001
0.001551738825806013
0.0015517386842347
0.00155173934784613
0.001551739838113114
0.001551739855517326
0.001551739459144618
0.001551738661186906
0.001551739685897803
0.001551738636095956
0.001551738920476657
0.001551739042071007
0.001551739003918502
0.001551739550344123
0.001551739116165854
0.001551738429484767
0.001551740185018579
0.001551738841344638
0.001551739046959552
0.001551739326243245
0.001551739768257346
0.001551739086905432
0.001551739376023013
0.001551739636143783
0.001551738562947508
0.00155173853050206
0.001551739502760624
0.001551737957553017
0.00155173850480563
0.001551739185341306
0.0015517388154661
0.001551739038751993
0.001551737879340391
0.001551738243204102
0.001551738488083772
0.001551738312270551
0.001551738784112228
0.00155173837123152
0.001551737705689808
0.001551738539021514
0.001551737639503733
0.001551737034417171
0.001706474844239551
0.001706473652845974
0.001706472468760831
0.001706473954263899
0.001706472330126093
0.001706473037102284
0.001706473920275589
0.001706473809314843
0.001706473903045811
0.001706473472042753
0.001706472986955775
0.001706472833971323
0.001706473310734777
0.001706473955175906
0.001706472839422915
0.001706473272430775
0.001706474217851274
0.001706473407289564
0.001706473135678146
0.001706473900196515
0.001706474474859453
0.001706474634575312
0.001706473283394919
0.001706473385132248
0.001706474160982867
0.001706473139539019
0.00170647339988396
0.001706473463936124
0.001706473364112155
0.00170647407887488
0.001706473609958388
0.001706472798363719
0.001706474929415815
0.001706472788820811
0.001706473613321
0.001706473793639925
0.00170647419767473
0.001706473659847398
0.001706473946099807
0.001706474066229335
0.001706473147163881
0.001706472632007521
0.001706474011103003
0.00170647224974116
0.001706472841869863
0.001706473671295052
0.001706473202297151
0.001706473106875486
0.001706472843811543
0.001706472758386429
0.001706472995248252
0.001706472875539333
0.001706473367282579
0.001706472620000372
0.001706472575433623
0.001706473096621337
0.001706471533689373
0.001706471306575422
0.001885747423767811
0.001885745308212314
0.001885744485556061
0.001885745948448537
0.00188574430414457
0.001885745205347856
0.001885746243033148
0.001885745384607081
0.001885745763213289
0.001885745882838331
0.00188574485964536
0.001885745490033856
0.001885745484107809
0.001885745852696283
0.001885745180191458
0.001885744726422043
0.001885746374997158
0.001885744879388647
0.001885745685702026
0.00188574565749702
0.001885746279530939
0.001885746625516094
0.001885744860714759
0.001885745274127544
0.001885746238807557
0.001885744408505427
0.001885744948045745
0.001885745255691823
0.001885745231861433
0.001885746027979522
0.001885745616967264
0.001885744526778219
0.001885746847451766
0.001885744521415716
0.001885745582016966
0.001885745023639567
0.001885746334548063
0.001885745378015605
0.001885745858726166
0.001885746117251817
0.001885744203063405
0.001885744627598197
0.001885745679197685
0.00188574462756278
0.001885744148505532
0.001885745515518185
0.001885745398523723
0.001885744042306766
0.001885745005852249
0.001885744776450033
0.001885745081523588
0.001885744907124059
0.001885745301327304
0.001885745021120021
0.001885744269455133
0.001885744043434863
0.001885743637287837
0.001885742584472599
0.002101757083791393
0.002101751237651197
0.002101752279430632
0.002101752853089218
0.002101752604317206
0.002101753066563853
0.002101753861011141
0.002101751820360027
0.002101752893465252
0.002101752595154437
0.00210175290295059
0.002101753084752995
0.002101752144265731
0.002101753054624718
0.002101752427590575
0.002101751775500876
0.00210175334280834
0.00210175305989914
0.002101753425131696
0.002101752422261265
0.002101752621692319
0.002101753665548265
0.002101751781787559
0.002101752316618511
0.002101753057777871
0.002101752005642719
0.00210175154980288
0.002101752472527656
0.002101752272345144
0.002101753177392205
0.002101752969642125
0.002101751554781547
0.002101753817146246
0.002101751439331532
0.002101752517028033
0.002101752994642793
0.002101753577122765
0.002101752408286078
0.002101752626753185
0.002101753204579437
0.002101751201104549
0.002101751817325696
0.002101752885666668
0.002101751854069032
0.002101751310600261
0.002101752769905544
0.002101752651665
0.002101750955543698
0.002101752407582094
0.00210175218939802
0.002101752566413794
0.002101752352582706
0.002101752667912351
0.002101752286250952
0.002101752161349847
0.002101751457269464
0.002101750739170463
0.002101750190485285
0.002383289939146112
0.002383286946409715
0.002383287168618458
0.002383287102710711
0.002383287247272684
0.002383287413565866
0.002383288077968555
0.002383286164003531
0.002383287196508625
0.002383286254505476
0.002383287157104173
0.002383287034623002
0.002383286196414757
0.002383286852047959
0.002383286421424733
0.002383285914835389
0.002383287246975525
0.002383286671818074
0.002383287567103718
0.002383285658277843
0.002383286650107288
0.002383287075582559
0.002383285632059626
0.002383286196595227
0.002383286565601809
0.002383285834256559
0.002383286164816856
0.002383286171686382
0.002383285425181241
0.002383286831457293
0.002383286960110005
0.002383285800931881
0.00238328717925362
0.002383285402677309
0.002383286289443874
0.002383286910300735
0.002383287291732804
0.002383286165491184
0.002383286105531791
0.002383286913602677
0.002383285438998107
0.002383286050681968
0.002383286904633373
0.002383285369805999
0.002383286149789718
0.002383286897431889
0.002383286778604428
0.002383285661838405
0.002383286893145011
0.002383286544906732
0.002383287159630511
0.002383286979344034
0.002383287290984905
0.002383286749987507
0.00238328693750802
0.002383286077729675
0.002383285348558131
0.002383284519514004
0.002833856702919826
0.002833853517917785
0.00283385399255723
0.002833853803902031
0.002833853691097259
0.002833853501851158
0.002833853970466515
0.002833853201623057
0.002833853295554243
0.002833852799138579
0.002833853098159161
0.002833852370066923
0.002833852338911935
0.002833852276611237
0.002833851990215322
0.002833852236790178
0.002833852653607484
0.002833852596934053
0.002833852671589529
0.002833851962638467
0.002833852279323036
0.002833852266814025
0.002833852076363155
0.002833852105343901
0.002833852082698345
0.002833851611043055
0.002833852027870093
0.00283385201318281
0.002833852064031726
0.00283385246363151
0.002833852637810089
0.002833851507747122
0.00283385235350082
0.002833851986942896
0.002833851895329223
0.002833852527583248
0.002833852784957484
0.002833851896618411
0.002833852278269056
0.002833852559504734
0.00283385191117998
0.002833852218152118
0.002833852773067272
0.002833852035395733
0.002833852636314197
0.002833853077704695
0.002833853216530995
0.002833852715296956
0.002833853496428871
0.002833853325520317
0.002833853851262985
0.00283385371673352
0.002833854124155589
0.002833853880019604
0.002833854144546386
0.002833852941977148
0.002833852351868898
0.002833852279254361
0.00344917025893822
0.003449166878024439
0.00344916745018271
0.003449167244444726
0.003449166846298455
0.003449166819047902
0.003449167306722302
0.003449166485842158
0.003449166221570207
0.003449165873688708
0.003449165915992692
0.003449165339139039
0.00344916532414279
0.003449165145248576
0.003449165039438248
0.003449165019484823
0.003449165026480046
0.003449165174769152
0.003449165153782014
0.003449164663528629
0.003449164826096088
0.003449164799776963
0.003449164759704837
0.003449164580597194
0.003449164664043674
0.003449164629457528
0.003449164759220703
0.003449164751449673
0.003449164844411529
0.003449164961471959
0.003449165030778608
0.003449164604524857
0.003449164806719903
0.003449164821158062
0.003449164810894053
0.003449165084768992
0.003449165258601681
0.00344916444972889
0.003449164970045715
0.003449165175187999
0.003449165130657593
0.003449165178077939
0.003449165618423911
0.003449165533718739
0.003449165911309283
0.003449166090693501
0.003449166323927265
0.003449166401880077
0.003449166938431361
0.003449166844247898
0.003449167364350031
0.003449167323053664
0.003449167686380988
0.00344916764704091
0.003449167624785293
0.003449167115850922
0.0034491660268223
0.003449165964037828
0.004215609696734022
0.0042156072223373
0.004215607556504742
0.00421560747654896
0.004215606924646927
0.004215606903096181
0.004215607256093033
0.004215606653953782
0.004215606281133652
0.004215605667027484
0.004215605621194947
0.004215605242699009
0.004215605055177664
0.004215604812081175
0.004215604726781884
0.004215604487699799
0.004215604665116619
0.004215604586325182
0.004215604513979538
0.004215604049682062
0.004215604219629502
0.004215604140764775
0.004215604013415357
0.004215603813503724
0.00421560392131135
0.004215604002048083
0.004215604126738547
0.004215604101954525
0.004215604158347909
0.00421560422351912
0.00421560429417921
0.004215604029459871
0.004215604167854786
0.004215604189450601
0.004215604414659803
0.004215604407991852
0.004215604769447651
0.004215603985961032
0.004215604271059951
0.004215604763919994
0.004215604901633922
0.004215604779662243
0.00421560538348835
0.004215605612580955
0.004215605725843891
0.004215605792265929
0.004215606431609803
0.004215606586078282
0.004215607071200682
0.004215607273946626
0.004215607703388896
0.004215607670788753
0.004215607827008241
0.004215607873950086
0.004215607873079275
0.004215607451525214
0.004215606347767941
0.00421560631725916
0.005110190500404895
0.005110188430053062
0.005110188584396699
0.00511018850057907
0.005110187919207271
0.005110187993457477
0.005110188237155668
0.005110187730460934
0.00511018739870472
0.005110186673836003
0.005110186499501339
0.005110186172586833
0.005110185890608339
0.005110185520102089
0.00511018552826671
0.005110185114742352
0.005110185383302442
0.005110185246801181
0.005110185048326457
0.005110184567218228
0.005110184760002089
0.005110184737101535
0.005110184385770398
0.005110184149086852
0.005110184234640662
0.005110184381308643
0.005110184686878526
0.005110184612056139
0.005110184549386795
0.005110184687782236
0.005110184755295593
0.00511018456226246
0.005110184694805572
0.005110184678245819
0.005110185118577336
0.005110185001101157
0.005110185344152661
0.005110184671567973
0.005110184924222422
0.005110185257342068
0.005110185658269355
0.00511018559675767
0.005110186267145049
0.005110186586682279
0.005110186604173541
0.005110186598172371
0.005110187298173868
0.005110187680933626
0.0051101882846544
0.005110188536828233
0.005110188846759595
0.005110188819779361
0.005110189029215214
0.005110188948610726
0.005110188948984109
0.005110188716456867
0.005110187670673274
0.005110187456951872
0.006103753224475722
0.006103752355359921
0.00610375215486048
0.006103752056367573
0.006103751457147082
0.006103751476416396
0.006103751614373625
0.006103751170380876
0.006103750851660488
0.006103750193455331
0.006103749735443871
0.006103749667325474
0.006103749299300124
0.006103748750935525
0.006103748918980619
0.006103748379778819
0.006103748640630077
0.006103748433854595
0.006103748180579063
0.006103747697938347
0.006103747988929045
0.006103747745203333
0.006103747291868819
0.006103747052619255
0.006103747086817013
0.006103747340186842
0.006103747448861355
0.00610374745814031
0.006103747464902731
0.006103747619792808
0.006103747775229758
0.006103747647552562
0.006103747682822991
0.006103747750277061
0.006103748125884288
0.006103748042916714
0.006103748337246528
0.006103747753548251
0.006103747929324403
0.006103748694789956
0.006103748591485852
0.006103748929060582
0.006103749530295866
0.006103749930362066
0.006103749919629147
0.006103749865146509
0.006103750646123192
0.006103751158409556
0.006103751802850259
0.006103752086373353
0.006103752380987391
0.006103752284759606
0.006103752485712034
0.00610375267505595
0.006103752699526015
0.006103752720938156
0.00610375136626499
0.006103750999542182
0.007174835988383655
0.007174838066056481
0.007174837325980904
0.007174837256322171
0.007174836671347429
0.007174836327084036
0.007174836326240826
0.007174836128708641
0.007174835835463155
0.00717483522842651
0.007174834784913653
0.007174834647885668
0.00717483432688302
0.007174833916365327
0.007174833786723863
0.007174833415241558
0.0071748334350275
0.007174833097414206
0.007174832992936811
0.007174832716271881
0.007174832496201437
0.007174832301072729
0.007174831838496461
0.007174831607699657
0.00717483156066282
0.007174831783809198
0.007174831936206462
0.007174832036227695
0.007174832012350816
0.007174832173285271
0.007174832472318802
0.00717483253442278
0.007174832354447241
0.007174832460295777
0.007174832516713028
0.007174832806819641
0.00717483315322298
0.007174833033012163
0.007174832684426063
0.007174833387472571
0.00717483345935478
0.007174833793283228
0.007174834222048335
0.00717483474782955
0.007174834802261689
0.007174834777473021
0.007174835576204063
0.0071748361545364
0.007174836836107877
0.007174837105424776
0.007174837498909866
0.007174837501485984
0.007174837738376832
0.007174838028761353
0.007174838383755582
0.007174838770647878
0.007174837562493272
0.007174835865955666
0.008279308550283618
0.008279309711461083
0.008279309661700358
0.008279309256129325
0.008279308663989496
0.008279307945462406
0.008279308287196216
0.008279307936001665
0.00827930761570215
0.00827930686389932
0.008279306796836302
0.008279306693355222
0.008279306113015377
0.008279305587129965
0.008279305510514
0.008279305391381511
0.008279305347162935
0.008279304860157008
0.008279305121713097
0.008279304717406233
0.008279304210658301
0.00827930389280925
0.008279303529760373
0.008279303138059536
0.008279303262308343
0.008279303269218545
0.008279303528296407
0.008279303511552604
0.008279303570766797
0.008279303870765128
0.008279304207793464
0.008279304250713198
0.008279303992587273
0.008279303964023493
0.008279304153235108
0.008279304574575552
0.008279304683692907
0.008279304718763441
0.008279304389620466
0.008279304994153509
0.008279305206250412
0.00827930539071328
0.008279305598357664
0.00827930603602455
0.008279306539353068
0.008279306726975057
0.008279307562508848
0.008279307716674979
0.008279308586130078
0.008279309114801906
0.008279309325063367
0.008279309648474991
0.008279310162512363
0.008279310292811226
0.008279310653828587
0.00827931086693875
0.008279309919234963
0.008279307882476463
0.009318887102068523
0.009318886229033938
0.009318886821131111
0.009318886411701123
0.009318886011634102
0.009318884726339627
0.009318885431485496
0.009318884587438805
0.009318884227469654
0.009318883787807561
0.009318883832935838
0.009318883615663052
0.009318883003221787
0.009318882443213213
0.00931888252645318
0.009318882348055066
0.009318882494714244
0.009318882070665176
0.009318882432883238
0.009318881744218018
0.009318881379669923
0.009318880780186277
0.009318880136742069
0.009318880008132817
0.00931888011437511
0.009318880153116741
0.009318880434582736
0.009318880170246643
0.00931888022372738
0.009318880817065552
0.009318881179508031
0.009318881174675862
0.009318880668532804
0.0093188806834826
0.009318880910477615
0.009318881587047764
0.009318881210864972
0.009318881305704747
0.009318881092273029
0.009318881650953278
0.009318881882227504
0.009318881835217889
0.009318882136325117
0.009318882290479441
0.009318883368710824
0.009318883698592344
0.009318884851814854
0.009318884409792741
0.009318885208917733
0.00931888636783906
0.009318886570599268
0.009318886472968885
0.009318887710688551
0.00931888779012977
0.009318887855221353
0.009318887752154822
0.009318887110927253
0.009318884739157943
0.01027171256886461
0.01027171067742542
0.01027171159516234
0.01027171127202658
0.01027171080791732
0.01027170946185413
0.0102717098160647
0.01027170930758395
0.01027170913985924
0.01027170816389262
0.01027170844138569
0.01027170786329644
0.01027170795294284
0.01027170717078927
0.01027170715966588
0.01027170702908201
0.01027170715754654
0.01027170715664287
0.01027170765795252
0.01027170601039914
0.01027170628645836
0.01027170565180097
0.01027170469360061
0.01027170446585943
0.01027170460665113
0.01027170473578042
0.01027170445250521
0.01027170493947185
0.01027170482010767
0.01027170542886643
0.01027170584115604
0.01027170607856176
0.01027170484817146
0.01027170452231787
0.01027170529376066
0.01027170623323171
0.01027170540493218
0.01027170569274203
0.01027170538818222
0.01027170606165891
0.01027170650801267
0.01027170549942551
0.01027170596663001
0.01027170653997835
0.01027170769526093
0.01027170816021268