/*--------------------------------*- C++ -*----------------------------------*\
| =========                 |                                                 |
| \\      /  F ield         | OpenFOAM: The Open Source CFD Toolbox           |
|  \\    /   O peration     | Version:  v1812                                 |
|   \\  /    A nd           | Web:      www.OpenFOAM.com                      |
|    \\/     M anipulation  |                                                 |
\*---------------------------------------------------------------------------*/
FoamFile
{
    version     2.0;
    format      ascii;
    class       volScalarField;
    location    "10000";
    object      nuTilda;
}
// * * * * * * * * * * * * * * * * * * * * * * * * * * * * * * * * * * * * * //

dimensions      [0 2 -1 0 0 0 0];


internalField   nonuniform List<scalar> 
3770
(
0.0004956919297771961
0.0004956920179230562
0.0004956920247916594
0.0004956920347129869
0.000495692027702757
0.0004956920334544081
0.000495692022816154
0.0004956920291988106
0.0004956920349840743
0.0004956920166448777
0.0004956920477699883
0.0004956920248324339
0.000495692029123268
0.0004956920310126194
0.0004956920292981615
0.0004956920309992371
0.0004956920287280255
0.0004956920285846053
0.000495692019277218
0.0004956920476333468
0.0004956920122115251
0.0004956920341176613
0.000495692025633273
0.000495692034375378
0.0004956920277613853
0.0004956920335801233
0.000495692025761618
0.00049569203346975
0.0004956920258557536
0.0004956920317974443
0.0004956920205246611
0.0004956920501339995
0.000495692018452604
0.0004956920247426267
0.0004956920209182251
0.0004956920586506134
0.000495692009110289
0.0004956920287645524
0.0004956920293307513
0.0004956920360919084
0.0004956920310112906
0.000495692024980669
0.000495692032007016
0.0004956920339746558
0.0004956920283592245
0.0004956920294494864
0.0004956920373785198
0.0004956919992146257
0.0004956920478474721
0.0004956920250379488
0.00049569203805148
0.0004956920243759963
0.0004956920342929379
0.0004956920294740639
0.0004956920308894619
0.000495692028421191
0.0004956920230152097
0.000495692013117096
0.0003352135714791221
0.000335214450191818
0.0003352143625561628
0.0003352143170947985
0.0003352143052044577
0.0003352143077534655
0.0003352142735286768
0.000335214277657926
0.000335214262737393
0.0003352142135660329
0.0003352143133308264
0.0003352142386473251
0.0003352142335398542
0.0003352142600769711
0.0003352142279550266
0.0003352142311528488
0.0003352142214978915
0.0003352141948737179
0.0003352141896122676
0.0003352143019535389
0.0003352141542161703
0.0003352142307708327
0.000335214205934695
0.000335214229497481
0.0003352142043171488
0.0003352142166046202
0.0003352141973952964
0.0003352142195699695
0.0003352141940022289
0.0003352142121179385
0.0003352141889672055
0.0003352143204518042
0.0003352141828422404
0.000335214212148712
0.0003352142137253618
0.000335214365579183
0.0003352141333551249
0.0003352143188099553
0.0003352142464508028
0.0003352143155632617
0.0003352142860251788
0.0003352142947362521
0.0003352143207624148
0.0003352143477076272
0.0003352143141621413
0.0003352143446851308
0.0003352143475038985
0.0003352142675203151
0.0003352144347883635
0.0003352143415602754
0.0003352143927905738
0.0003352143679104509
0.0003352144030591073
0.000335214411481866
0.0003352144660987902
0.0003352145213953846
0.0003352145140487881
0.000335214318483363
0.0004526891832772932
0.0004526909085055844
0.0004526906983755183
0.000452690570417544
0.0004526905822666728
0.0004526905750374288
0.000452690444859695
0.0004526904660439065
0.0004526904332015074
0.0004526903066701273
0.0004526906382015712
0.0004526904006127513
0.0004526903830613523
0.000452690446553197
0.0004526903720550161
0.0004526903767585095
0.0004526903471511251
0.0004526902554492343
0.0004526902874167434
0.0004526906461407314
0.000452690031365513
0.0004526903778248627
0.0004526903193024664
0.0004526903896758127
0.0004526903170122525
0.0004526903362539631
0.0004526902934337478
0.0004526903579748414
0.0004526902793450029
0.0004526903391592375
0.0004526903085505033
0.0004526907118748408
0.0004526901040402646
0.0004526903199321558
0.0004526904225820421
0.000452690812490789
0.0004526898425211455
0.0004526907083205707
0.0004526904187016946
0.000452690587743832
0.0004526905270372626
0.0004526905575308137
0.0004526906921681963
0.0004526907046400754
0.0004526906207520594
0.0004526907199053556
0.0004526906203770623
0.0004526903623678219
0.0004526910547753901
0.0004526906794252864
0.0004526908209983301
0.0004526907686213259
0.0004526907913839693
0.0004526908626559106
0.0004526909772062809
0.0004526911935315898
0.0004526910821879871
0.0004526905374596983
0.0006036814593291813
0.000603681466732044
0.0006036815838079783
0.0006036814599190111
0.0006036813595468963
0.000603681410451254
0.0006036813000395566
0.0006036812914579614
0.0006036813028939343
0.0006036812290193976
0.0006036815224970957
0.0006036812396315145
0.000603681263969339
0.000603681347633436
0.0006036812632996245
0.0006036811822168928
0.0006036813328122241
0.0006036811598392174
0.000603681154846504
0.000603681474519055
0.0006036811538068928
0.000603681314805683
0.0006036812806083081
0.0006036813319039333
0.0006036812821963661
0.0006036812625831281
0.000603681262316165
0.0006036813666278812
0.0006036812480772764
0.0006036814160370163
0.0006036811721190006
0.0006036816829097818
0.0006036812974478942
0.000603681253952393
0.0006036814210293231
0.0006036819093456514
0.0006036809988000344
0.0006036816266296112
0.0006036814078302281
0.0006036816738324662
0.0006036815146163122
0.0006036814096811417
0.0006036816547368068
0.0006036816682892945
0.0006036816183147654
0.0006036817854681931
0.0006036816599836032
0.0006036813256686185
0.0006036819088211608
0.00060368160531388
0.0006036817958429868
0.0006036816304213675
0.0006036816474041013
0.0006036817324926529
0.0006036816887978689
0.0006036819125549332
0.0006036816082859009
0.0006036814190014436
0.0007525649535050176
0.0007525643848394131
0.0007525644103847549
0.0007525643396848522
0.0007525643753082514
0.000752564391330983
0.0007525641029974308
0.0007525643778398545
0.0007525642782949222
0.0007525642342663875
0.0007525646399895499
0.000752564184965826
0.0007525642772527716
0.0007525644197440316
0.00075256425839918
0.0007525641354200938
0.0007525644725062997
0.0007525641737322595
0.0007525641203852612
0.0007525645046744808
0.0007525643052122734
0.000752564452394329
0.0007525643742514513
0.0007525644537836251
0.0007525643932040374
0.0007525643121175856
0.0007525643609136676
0.000752564512374919
0.0007525642299752467
0.00075256461154643
0.0007525641994226602
0.0007525648022335419
0.0007525645276644981
0.0007525643662693334
0.0007525645593908409
0.0007525650243382187
0.0007525642085914193
0.0007525646970537555
0.0007525644905882839
0.0007525648936536875
0.0007525644470187176
0.0007525645142291366
0.0007525646929644227
0.0007525646790490378
0.0007525646445099961
0.0007525648606847433
0.0007525646530598158
0.0007525642835735501
0.0007525648907665163
0.0007525644757400337
0.0007525648202804121
0.0007525643849944767
0.0007525645468311165
0.0007525646348422803
0.0007525645007031824
0.0007525648319734719
0.0007525641795734067
0.0007525641339631348
0.000894102590042723
0.0008941018961145858
0.0008941019146938116
0.0008941018083998694
0.000894101889313542
0.0008941019100933274
0.0008941016585204626
0.0008941020943737839
0.0008941018617232857
0.0008941018746192611
0.0008941023859860112
0.0008941015907644166
0.0008941018877285435
0.0008941020871754009
0.0008941018211173406
0.0008941016929909812
0.000894102262031801
0.000894101788444368
0.0008941015856387799
0.0008941021411310261
0.0008941021181979866
0.0008941022116492838
0.0008941020289311253
0.0008941021815391083
0.0008941021471266678
0.0008941019486691788
0.0008941020421620209
0.0008941021069026584
0.0008941018741233718
0.0008941024093151059
0.0008941018188194064
0.0008941024261494755
0.0008941023936279625
0.0008941021154051823
0.0008941022502812892
0.0008941025316987549
0.0008941021331503897
0.0008941023364509507
0.0008941021580710478
0.0008941026315466164
0.0008941020632815427
0.0008941021363297032
0.0008941025027738739
0.0008941021482130191
0.0008941021934493609
0.0008941025078427694
0.0008941022587347645
0.0008941019609367609
0.0008941024106700565
0.0008941018011131711
0.0008941023427837105
0.000894101807941801
0.0008941021502866628
0.0008941020765846217
0.0008941018990011396
0.0008941022097362544
0.0008941014067482636
0.0008941016076622694
0.001028223681707573
0.001028222762173218
0.001028222607051204
0.001028222855640604
0.001028222696412872
0.001028222758191484
0.001028222515667173
0.001028223178506723
0.001028222671356758
0.001028222764015688
0.001028223519401056
0.001028222411341277
0.001028222808566333
0.001028223149394824
0.001028222776771177
0.001028222634386636
0.001028223314435025
0.001028222802783421
0.001028222570856322
0.001028223210543455
0.001028223208635777
0.001028223307167927
0.001028222877031087
0.001028223224535083
0.001028223284227285
0.001028222920978192
0.001028222853532251
0.001028223158824276
0.001028222823505639
0.001028223523840419
0.001028222805313908
0.001028223393466999
0.001028223469262574
0.001028223136490419
0.001028223252208598
0.001028223436531013
0.001028223247341844
0.00102822329472183
0.001028223095416464
0.001028223619073784
0.001028223124970311
0.001028223036581659
0.00102822350536757
0.001028223164885114
0.001028222881630915
0.001028223444829543
0.001028223113901289
0.001028222792013996
0.001028223299608848
0.00102822252405374
0.001028223102425017
0.001028222686443585
0.001028223151692818
0.001028222585611324
0.001028222745796021
0.001028223024542549
0.001028222252261202
0.001028222180627886
0.001156883455321119
0.0011568825440316
0.001156882589760361
0.001156883031544097
0.001156882304244746
0.001156882700575008
0.001156882474424851
0.001156883257179648
0.001156882702008891
0.001156882724211211
0.001156883488553608
0.001156882281685687
0.001156882733829335
0.001156883170325662
0.001156882708273915
0.00115688255465153
0.001156883338443222
0.001156882738938733
0.001156882809258652
0.001156883238752088
0.001156883334266863
0.001156883632519576
0.001156882787198763
0.001156883218796301
0.001156883396074147
0.001156882866117985
0.001156882778552196
0.001156883197308072
0.001156882788377697
0.001156883641428289
0.001156882758468944
0.001156883235096839
0.001156883628363014
0.001156883114417798
0.001156883139573327
0.001156883321726101
0.001156883328497957
0.001156883391698671
0.001156883038012433
0.001156883667884697
0.001156883098758292
0.001156882860486136
0.001156883503881822
0.001156883060394099
0.00115688267940106
0.001156883388350943
0.001156883063170623
0.00115688282448805
0.001156882984460052
0.001156882553228374
0.001156882914633237
0.001156882583676911
0.001156883135879019
0.001156882297053281
0.001156882468255568
0.00115688272106915
0.001156882044870283
0.001156882215809047
0.001283564449662252
0.001283562661677705
0.001283562857967227
0.001283563457420701
0.001283562833226191
0.001283563117391298
0.001283562826944465
0.001283563694341501
0.001283563342908965
0.001283562956738056
0.001283564020764009
0.001283562665800591
0.001283563171555126
0.001283563688753755
0.001283563198286874
0.001283562964342402
0.001283563850737266
0.001283563195021227
0.001283563371591714
0.001283563549961086
0.001283563890724642
0.001283564312139559
0.001283563170943939
0.001283563647221798
0.001283563913965066
0.001283563299763161
0.001283563091267751
0.001283563742885005
0.001283563213218362
0.001283564182614374
0.00128356312223681
0.001283563647650959
0.001283564140611382
0.001283563458928189
0.001283563622476446
0.00128356364499411
0.001283563804570533
0.001283563837625407
0.001283563469508632
0.001283564245484593
0.001283563186470147
0.00128356323653199
0.001283563930295161
0.001283563352994632
0.001283562898176957
0.001283563728757514
0.001283563427167538
0.0012835630673055
0.001283563332588746
0.001283562847955651
0.001283563248918327
0.001283562872018297
0.001283563554663981
0.001283562439914126
0.001283562695389413
0.001283563158936894
0.001283562128801768
0.00128356210771456
0.001413146559886527
0.001413144732714296
0.001413145119271143
0.00141314572834013
0.001413145037157355
0.001413145229150333
0.001413145083670442
0.001413146006731469
0.001413145704457839
0.001413145207426412
0.001413146115196008
0.001413144770608878
0.001413145358353636
0.001413145909799088
0.001413145428413385
0.001413145074082935
0.00141314613577289
0.00141314551451088
0.001413145348081845
0.001413145742836504
0.001413146309308704
0.001413146684693399
0.001413145325973473
0.001413145792622901
0.001413146174138297
0.001413145563322168
0.001413145205999277
0.001413145876774776
0.001413145728254815
0.001413146499614497
0.001413145131780821
0.001413145824422476
0.001413146516866958
0.001413145498292188
0.001413145780781794
0.001413145765041246
0.001413145996918279
0.001413146228464867
0.001413145647696833
0.001413146521728337
0.001413145177089209
0.001413145468400339
0.001413146126388573
0.00141314543395411
0.001413144913185618
0.001413145897590707
0.001413145597124212
0.001413145297009534
0.001413145360468011
0.001413144916918808
0.00141314535218051
0.001413145114920421
0.001413145750936332
0.001413144466482625
0.001413144758555836
0.001413145162992807
0.001413143894292603
0.001413144478522536
0.001551744708547418
0.001551741514678579
0.001551741943764153
0.001551742749156209
0.001551742213150826
0.001551741855365167
0.001551742151640509
0.001551743020137454
0.001551742919780062
0.001551742463413375
0.001551743021461941
0.00155174202239568
0.001551742397951635
0.001551743059617212
0.001551742541789987
0.001551742056723004
0.001551743266263677
0.001551742472561737
0.001551742623063493
0.001551742711283735
0.001551743360957011
0.001551743788267809
0.001551742331952131
0.001551742651669036
0.001551743174341388
0.001551742723515887
0.001551742094691535
0.001551742856535581
0.001551742844842395
0.001551743620776756
0.001551741947431602
0.001551742811473863
0.001551743425088231
0.001551742674268739
0.001551742527837826
0.001551742680396918
0.001551743234397545
0.001551743149621792
0.001551742605106063
0.001551743399440087
0.001551742141368888
0.001551742309916146
0.001551743125041853
0.001551742266554214
0.00155174167239524
0.001551742851662571
0.001551742591722472
0.00155174195841433
0.00155174234862331
0.001551741484308239
0.001551742374171312
0.001551742085969786
0.001551742738215583
0.001551741284420967
0.00155174168185383
0.001551742066761702
0.00155174058299295
0.001551740846356159
0.001706479168775016
0.001706476391949486
0.001706476839381387
0.001706477692403941
0.001706477075207724
0.00170647652048305
0.001706477735724984
0.001706477905242622
0.001706477993712335
0.00170647691116974
0.001706477177656159
0.001706477273270368
0.001706476958805598
0.00170647792394557
0.001706477203771205
0.001706476801299775
0.001706478183650448
0.001706477102871476
0.001706477589747236
0.00170647759717432
0.001706477916627463
0.001706478457970096
0.001706477491670194
0.001706476926724008
0.001706477980353859
0.0017064774310939
0.001706476919882694
0.001706477628839755
0.001706477712442056
0.001706478521762534
0.001706476517769103
0.001706477548091526
0.001706478225748472
0.00170647731648613
0.001706477635740322
0.001706477362831091
0.001706478058304972
0.001706478168205992
0.001706477383517401
0.001706478307579631
0.001706476454703351
0.00170647699859376
0.001706477982981541
0.001706476800174705
0.001706476407288155
0.001706477798463831
0.001706477246169622
0.001706476170513896
0.00170647688286565
0.001706476727469545
0.001706477172624495
0.001706477024728591
0.00170647744360713
0.001706476442188833
0.001706476489744341
0.001706476272749221
0.001706475363356168
0.001706476182027721
0.001885752346869734
0.001885748445279299
0.001885748970110611
0.001885749995896193
0.001885749509709963
0.001885748693850018
0.001885750200414266
0.001885749928332689
0.001885749749120138
0.001885749764597285
0.00188574964102368
0.001885749705025609
0.001885749868170958
0.001885750448129766
0.001885748580944218
0.001885749440882207
0.001885750310671628
0.001885749574263246
0.001885750015855686
0.001885750368024101
0.001885749329048373
0.001885750565036057
0.001885749707703435
0.001885748807877679
0.001885750122942051
0.001885749289714482
0.001885748497646753
0.00188574972977931
0.001885749913355212
0.001885750724982022
0.001885748606872604
0.001885749584063358
0.001885750230495672
0.001885749329837789
0.001885749768795496
0.001885749757610234
0.001885750431820269
0.001885750111572077
0.00188574918263285
0.001885750166666227
0.001885749080111488
0.001885748389675168
0.001885750271181608
0.001885748100585806
0.001885748976198061
0.001885750032737624
0.001885748452747684
0.001885748256432173
0.001885749435389377
0.001885749063852025
0.001885749497800076
0.00188574930758415
0.001885749885220262
0.00188574824435709
0.001885748342757212
0.001885747340390528
0.001885747093452711
0.001885747899428983
0.002101758914067266
0.002101756568769923
0.002101756066457336
0.002101757359378723
0.00210175724121341
0.00210175629354248
0.002101757613232079
0.00210175684216626
0.002101757289089277
0.0021017572701362
0.002101756444074711
0.002101757052682072
0.002101757036512632
0.002101757575902962
0.00210175558069504
0.002101756700207855
0.002101757474668795
0.002101757213471678
0.002101757377656156
0.00210175750410871
0.002101755871063798
0.002101757602198541
0.002101756776408281
0.002101755878844193
0.002101757227433376
0.002101755648942608
0.002101756130970744
0.002101756897111226
0.00210175699730921
0.002101757778487495
0.002101755843984683
0.002101756683834059
0.002101757311683753
0.002101756683997674
0.002101756269399759
0.002101756606625839
0.002101757441859118
0.002101757415646222
0.002101756094338163
0.002101757264754508
0.002101756486222142
0.00210175558522892
0.002101757569836772
0.002101755175684759
0.0021017563658516
0.00210175722267546
0.002101755468217562
0.002101755666171266
0.002101756826650432
0.002101756518729781
0.002101756863755109
0.002101756787941304
0.002101757141320834
0.002101756031257486
0.002101755466951241
0.002101754310189009
0.002101754367566471
0.002101756120584994
0.002383292832940813
0.002383290472026464
0.002383290525712823
0.002383290807909095
0.002383289815571828
0.002383289905136723
0.002383290778755438
0.002383290018359445
0.002383290507955035
0.002383290146720023
0.002383290714546404
0.002383289420082157
0.002383289983046742
0.002383290333180757
0.002383288925770479
0.002383289764982713
0.002383290312587951
0.002383290075994038
0.002383290249678816
0.002383289836224461
0.002383289145851388
0.002383290124071433
0.002383289641622235
0.002383288843770126
0.002383289618818568
0.002383289246651002
0.002383289454623511
0.002383289679685017
0.002383289483323894
0.002383290172670694
0.002383289700301805
0.002383289568941581
0.0023832899261395
0.00238328954916707
0.002383289026618583
0.002383289546121045
0.002383290263202984
0.002383289575429672
0.002383289631837549
0.002383290076395683
0.002383289544948025
0.002383288646023827
0.002383290100169638
0.002383289283535238
0.002383289064377063
0.00238329013863787
0.002383288966344915
0.002383289199324839
0.002383290311510703
0.002383289998909494
0.002383290461145001
0.002383290242561151
0.002383290497347913
0.002383290059035925
0.002383290004330748
0.002383288160239732
0.002383288234247558
0.002383289206582034
0.002833857964187102
0.002833855798924633
0.002833855825548766
0.002833855140627269
0.002833854791402468
0.002833855130949785
0.002833855424788034
0.002833854933294788
0.002833854920986578
0.002833854618000684
0.002833854862373468
0.002833854179528925
0.00283385378239093
0.002833853727827576
0.002833853916067811
0.002833853686327307
0.002833854179560129
0.002833854126445005
0.00283385401143292
0.002833853793494431
0.002833853753611753
0.00283385358859061
0.002833853793969249
0.002833853745945926
0.002833853295327282
0.002833853545003893
0.002833853752069832
0.002833853942827532
0.002833853391541795
0.002833853867088948
0.002833853903845074
0.002833853565843813
0.002833853793566772
0.002833853666462886
0.002833853742461223
0.002833853865920813
0.002833854215963305
0.002833853635078465
0.002833853702889576
0.002833854261949942
0.002833854009097211
0.002833853508602773
0.002833854445324995
0.00283385418383405
0.002833853905029395
0.002833854399616725
0.002833854575573097
0.002833854410811647
0.002833855259212414
0.002833855094348457
0.002833855532395876
0.002833855383537917
0.002833855701773453
0.002833855493562284
0.002833855433236836
0.002833853834694276
0.002833854124863557
0.002833854569455283
0.00344917049662867
0.003449168201989556
0.003449168049561433
0.003449167530915591
0.003449167288120959
0.003449167394311409
0.003449167665351841
0.00344916696275068
0.003449166707900007
0.003449166545564169
0.003449166706957188
0.003449166121024198
0.003449165826638239
0.003449165695976294
0.003449165797219328
0.003449165692033338
0.003449165526393964
0.003449165692006468
0.003449165380195283
0.00344916526229329
0.003449165241369477
0.003449165243391349
0.00344916518935584
0.003449165191855807
0.003449165176676485
0.00344916528927978
0.003449165330656415
0.003449165419598675
0.003449165174325337
0.003449165430964704
0.003449165412869187
0.003449165186254809
0.003449165207384868
0.003449165413432722
0.003449165478442925
0.00344916550061028
0.003449165680613027
0.003449164979148489
0.003449165573149366
0.003449165901856634
0.003449165833163009
0.003449165617582139
0.003449166277769168
0.003449166241245631
0.003449166175872191
0.003449166347556319
0.003449166840906605
0.003449166738516983
0.003449167614597602
0.003449167517564798
0.003449167957836067
0.003449167851506427
0.003449168202179065
0.003449167932594273
0.003449167861132249
0.00344916705678807
0.003449166615564643
0.003449166877949985
0.004215609621589525
0.004215607698754027
0.004215607309699331
0.004215607096370966
0.004215606521774933
0.00421560661859707
0.004215606897554337
0.004215606347109642
0.004215606005702035
0.004215605471978953
0.004215605685565203
0.004215605013045027
0.004215604898727373
0.004215604659006509
0.004215604590392907
0.004215604341084872
0.004215604312587358
0.004215604335422161
0.00421560408964189
0.004215603771358161
0.004215603749438066
0.004215603971020803
0.004215603768942907
0.004215603613515592
0.004215603777726241
0.004215603891190648
0.004215603849681315
0.004215603892100703
0.004215603888880316
0.00421560410384203
0.00421560393556762
0.004215603706934937
0.004215603705794623
0.004215604103562479
0.004215604152883883
0.004215604212942763
0.004215604339731859
0.004215603516173317
0.0042156043409252
0.004215604715649273
0.004215604662323074
0.004215604630500764
0.004215605363066781
0.00421560536311841
0.004215605318102168
0.004215605436531796
0.004215606185605136
0.004215606199399705
0.00421560709500898
0.004215607051177755
0.004215607366613941
0.004215607212933814
0.004215607557728549
0.004215607402127184
0.004215607457359735
0.004215606704338508
0.004215605818667959
0.004215606040131948
0.005110190300254543
0.005110188633529981
0.005110188018203738
0.005110187859964469
0.005110187104820319
0.005110187425906492
0.005110187549117413
0.005110187165394292
0.005110186817254355
0.005110186091170588
0.005110186299314898
0.005110185711777281
0.005110185502113881
0.005110185145932412
0.005110185039918609
0.005110184694592543
0.005110184666524916
0.005110184709069207
0.005110184387088579
0.005110183934462571
0.00511018392061034
0.005110184237136355
0.005110183860718663
0.005110183592860954
0.005110183871899072
0.005110184011676708
0.005110183915382486
0.005110184123767189
0.005110183928841167
0.005110184335772046
0.005110184086611738
0.005110183855637449
0.005110183951086544
0.005110184244574026
0.005110184411801928
0.005110184450095702
0.005110184607962359
0.005110183714352461
0.005110184644580767
0.005110185024818375
0.005110184996648445
0.005110185053114218
0.00511018591820671
0.00511018576326257
0.005110185670156509
0.005110185597966706
0.005110186965710085
0.005110186986210638
0.005110187934344642
0.005110187966269588
0.005110188123624688
0.005110188013825257
0.005110188342859758
0.005110188266773918
0.005110188272984776
0.005110187757271948
0.005110186506656227
0.005110186538895774
0.006103753425700949
0.006103752475580007
0.006103751538934882
0.006103751363113479
0.006103750442589641
0.006103750712612055
0.006103750960145937
0.006103750598273193
0.006103750238248036
0.006103749510569569
0.006103749410610465
0.006103749089820362
0.006103748742650925
0.006103748286716255
0.00610374820295535
0.006103747786758684
0.006103747728211519
0.006103747773070596
0.006103747440134039
0.00610374692075403
0.006103746907770213
0.006103747098097586
0.006103746662576773
0.006103746345055234
0.006103746619393933
0.006103746802841543
0.006103746653979872
0.006103746897418496
0.006103746862475671
0.006103747225092966
0.006103746997701835
0.006103746703730882
0.006103746928648813
0.006103747298298674
0.006103747313601283
0.006103747475680951
0.006103747671252544
0.006103746769055253
0.006103747604604919
0.006103748047280868
0.006103747983621754
0.006103748419640909
0.006103749061743061
0.006103748920939123
0.006103749016885623
0.00610374874256562
0.006103750327765022
0.006103750383920217
0.006103751339687096
0.006103751402245306
0.006103751514661697
0.006103751372308753
0.006103752013151239
0.00610375190939629
0.006103752131236972
0.006103751333418669
0.006103749698375892
0.006103749316461096
0.007174838146427491
0.007174838167214768
0.007174836667949066
0.007174836682239778
0.007174835470275303
0.007174835252335371
0.007174836193338197
0.007174835654801813
0.007174835273304216
0.007174834618790408
0.007174834606964651
0.007174834139828578
0.00717483374886459
0.007174833340421202
0.007174833191783284
0.007174832729566224
0.007174832584201169
0.007174832492350856
0.007174832428005014
0.007174831744115599
0.00717483163836197
0.007174831561123763
0.007174831202492459
0.007174830837241064
0.007174830947934951
0.007174831260789561
0.007174831334131405
0.007174831262177463
0.007174831301656744
0.007174831842366173
0.007174831781602975
0.007174831403124241
0.007174831326066619
0.007174831929539016
0.007174832006305207
0.007174832510701818
0.007174832833409099
0.007174831790252378
0.007174831984627985
0.007174832795051969
0.007174832915006472
0.007174833115662338
0.007174833647585843
0.007174833736028664
0.007174833710841718
0.007174833687725177
0.0071748352896878
0.007174835375383216
0.007174836323095546
0.007174836487759541
0.007174836731820715
0.007174836844809845
0.007174837417023732
0.007174837535373795
0.007174837682074849
0.007174836684455945
0.007174834258916039
0.0071748318298588
0.008279311436857836
0.008279311426746053
0.00827931000987348
0.00827930962663144
0.008279308395685891
0.008279308262059939
0.008279309243046986
0.008279308393478161
0.008279307916123706
0.008279307525704164
0.008279307552395901
0.008279306973184396
0.008279306451141397
0.008279306253760615
0.008279305952899583
0.008279305745495999
0.008279305594303843
0.008279305524594436
0.008279305544392199
0.008279304613679856
0.008279304377721487
0.008279304106561983
0.008279303785360265
0.008279303624011081
0.008279303725308402
0.008279303693711918
0.008279303942071964
0.008279303978339174
0.008279303958033439
0.008279304484861571
0.008279304631617386
0.008279304218380161
0.008279304114553934
0.008279304446884569
0.008279304584469257
0.008279305209286275
0.008279305365913136
0.008279304522758265
0.008279304764977714
0.008279305587515658
0.008279305603034727
0.008279305686608132
0.008279306041216732
0.008279306391354773
0.008279306728615545
0.008279306877325324
0.008279308185038074
0.008279308032566983
0.008279309111287539
0.008279309482050745
0.008279309851127519
0.008279310053977109
0.00827931087165169
0.008279310786755704
0.008279310962449328
0.008279310039738405
0.00827930752747856
0.008279305371351901
0.009318890335330629
0.009318889559290043
0.009318889095253724
0.009318887839565528
0.009318886772789466
0.009318886616834382
0.009318887644610516
0.009318886403940073
0.00931888581503402
0.009318885825325836
0.009318886104436925
0.009318885145164883
0.009318884708261298
0.009318884651533056
0.009318884389976648
0.009318884267148574
0.009318884291805834
0.009318884204797874
0.009318884259340202
0.009318882924677706
0.009318882816323135
0.009318882178004018
0.009318882035968309
0.009318882053523991
0.009318881778802975
0.009318881766558281
0.009318882183506204
0.009318882288715784
0.009318882029179494
0.009318882612354326
0.009318883016269978
0.009318882321785923
0.00931888225182731
0.009318882335908446
0.009318882487017162
0.009318883375275613
0.009318883348365574
0.00931888270304131
0.009318883022864339
0.009318883394575839
0.009318883727507278
0.009318883730519192
0.009318883705536834
0.009318884116364331
0.009318884934121778
0.009318884993721115
0.009318886519951178
0.009318886351896878
0.0093188869797259
0.009318888061519258
0.009318888426599895
0.009318888682902456
0.009318889882754504
0.009318889400613086
0.009318889944639837
0.00931888847748511
0.009318886489282188
0.009318885360177378
0.01027171670099584
0.01027171558093588
0.01027171543514703
0.01027171372448113
0.01027171266911275
0.01027171259578582
0.01027171348165864
0.01027171241726676
0.01027171164487704
0.01027171149961344
0.01027171169019184
0.01027171117068257
0.01027171122631591
0.01027171074627328
0.01027170973529618
0.01027171023079808
0.01027171038538633
0.01027171037450081
0.01027171038200512
0.01027170913672101
0.01027170929576878
0.01027170826656892
0.01027170786765741
0.01027170798443242
0.01027170726567263
0.01027170786169387
0.0102717078833018
0.01027170819744788
0.01027170840252758
0.01027170836026369
0.01027170842072096
0.01027170869969645
0.01027170755589008
0.01027170816118841
0.0102717079098463
0.0102717091723278
0.01027170891793886
0.01027170849593763
0.01027170885869979
0.01027170878276241
0.01027170950664624
0.01027170927932649
0.01027170899024052
0.01027170987347321
0.01027171046304912
0.01027171069691283