/*--------------------------------*- C++ -*----------------------------------*\
| =========                 |                                                 |
| \\      /  F ield         | OpenFOAM: The Open Source CFD Toolbox           |
|  \\    /   O peration     | Version:  v1812                                 |
|   \\  /    A nd           | Web:      www.OpenFOAM.com                      |
|    \\/     M anipulation  |                                                 |
\*---------------------------------------------------------------------------*/
FoamFile
{
    version     2.0;
    format      ascii;
    class       volScalarField;
    location    "10000";
    object      p;
}
// * * * * * * * * * * * * * * * * * * * * * * * * * * * * * * * * * * * * * //

dimensions      [0 2 -2 0 0 0 0];


internalField   nonuniform List<scalar> 
3770
(
2.548810695244016e-08
5.094234033420828e-07
3.189301575546872e-07
7.664232113495324e-07
1.575880940536864e-06
2.08370977865391e-06
2.564673278077947e-06
2.874629118266502e-06
3.362889419611357e-06
4.119906200410109e-06
4.212996833532032e-06
4.907481896637538e-06
4.918287244988576e-06
4.992343867679955e-06
4.942781618395864e-06
4.90043286693838e-06
4.902314769017239e-06
4.940869498506056e-06
5.002610784676224e-06
4.989308392562569e-06
5.010657113627747e-06
4.918746858762026e-06
4.849402075951237e-06
4.861805555160664e-06
4.81322276760621e-06
4.746897947467233e-06
4.71682402550609e-06
4.589580259279218e-06
4.565173168001626e-06
4.397482835475088e-06
4.338290262595513e-06
4.21357174223133e-06
4.219998486352239e-06
4.011322702470388e-06
3.777781676075811e-06
3.60425252047919e-06
3.594556751068399e-06
3.923064295128501e-06
3.653752430283058e-06
3.413667166970716e-06
3.286433743704238e-06
3.351931287731267e-06
3.234934748253101e-06
3.404988116300774e-06
3.820301482225766e-06
4.193578940488581e-06
4.611320293213012e-06
5.479789472436109e-06
5.456014367174124e-06
6.201181646848576e-06
6.510184832416588e-06
7.301165253355073e-06
7.598043759535642e-06
8.023916555519826e-06
8.014598194352581e-06
7.562864656720893e-06
6.645424538364722e-06
5.09983004431272e-06
5.816603183085478e-08
5.073800421120307e-07
3.197295717810695e-07
7.650766693634865e-07
1.5762871379888e-06
2.083814695532522e-06
2.563368273848735e-06
2.873940214933582e-06
3.363125479915736e-06
4.119310462782669e-06
4.215378243713248e-06
4.907391210808811e-06
4.918634540402388e-06
4.992988763247015e-06
4.943202543971022e-06
4.900882899349554e-06
4.902286642739083e-06
4.940610193646421e-06
5.002605085497638e-06
4.989810114513654e-06
5.010455836908761e-06
4.918868566518979e-06
4.849488601234065e-06
4.861954788348857e-06
4.813262392942381e-06
4.747176171332101e-06
4.716732737635494e-06
4.589833819857732e-06
4.564938504551327e-06
4.397487831122516e-06
4.338579644841535e-06
4.214600578366562e-06
4.219600191403206e-06
4.010776356080635e-06
3.778409097685239e-06
3.60492329882692e-06
3.592683687965e-06
3.924137211722932e-06
3.653274576389309e-06
3.413612237093433e-06
3.285992623650108e-06
3.351010965958653e-06
3.234269467612222e-06
3.404679892960233e-06
3.820125573467088e-06
4.194106691341626e-06
4.611250013892312e-06
5.477828958591324e-06
5.457436440470592e-06
6.201003068429371e-06
6.510867652766214e-06
7.301000676239391e-06
7.598453845526142e-06
8.024549317040097e-06
8.016012879509709e-06
7.565672599545086e-06
6.649378105511156e-06
5.099109834190746e-06
8.768175799698702e-08
5.030707538984108e-07
3.222711122619027e-07
7.628252619948e-07
1.576457989790118e-06
2.083990760850957e-06
2.56153303107338e-06
2.873276205643732e-06
3.363477563463695e-06
4.119145087838113e-06
4.21761282496734e-06
4.907390625905526e-06
4.919107080911469e-06
4.993575564485231e-06
4.943487641116867e-06
4.901205684319279e-06
4.902076303351337e-06
4.940187439710659e-06
5.002354880977401e-06
4.990120853486015e-06
5.01119800034076e-06
4.918541221894496e-06
4.849589666040646e-06
4.862053450312082e-06
4.813346801608916e-06
4.7474754038945e-06
4.716651607150209e-06
4.590117942265315e-06
4.564653833643319e-06
4.397411522303808e-06
4.33878086468897e-06
4.215425560430127e-06
4.219713710521416e-06
4.009968060375211e-06
3.779355723132674e-06
3.605573665397627e-06
3.590227343434346e-06
3.926295959669003e-06
3.652675789884517e-06
3.413363743871818e-06
3.285140894528771e-06
3.350281225163257e-06
3.232894954768888e-06
3.404273964303046e-06
3.819911136800499e-06
4.195081788053033e-06
4.611626894608394e-06
5.47647308572637e-06
5.458218881376478e-06
6.201422287769142e-06
6.51165745953853e-06
7.30131275473356e-06
7.599146962605057e-06
8.025976302019987e-06
8.018411870672201e-06
7.569543929734449e-06
6.654893110434162e-06
5.102416958920744e-06
1.202135520828256e-07
4.95685592578093e-07
3.243138211374648e-07
7.599261562667756e-07
1.576910257965903e-06
2.084670324241478e-06
2.557980177172716e-06
2.871694639600422e-06
3.364332524471641e-06
4.118068657467266e-06
4.223164838934536e-06
4.907121473344293e-06
4.920310954254676e-06
4.995096748598816e-06
4.944679164610338e-06
4.902369830634358e-06
4.902064760376793e-06
4.939504684438108e-06
5.001843765463001e-06
4.991625328263417e-06
5.011394622705571e-06
4.918194771510146e-06
4.849796583219014e-06
4.86231208556185e-06
4.813498813605326e-06
4.74814656559207e-06
4.71641695774924e-06
4.590781534566765e-06
4.563981681302663e-06
4.397385778692008e-06
4.339218257186852e-06
4.218097774351001e-06
4.219115305568482e-06
4.008273226648986e-06
3.781033152677128e-06
3.607188781430381e-06
3.585446982742413e-06
3.928790954047188e-06
3.651949704070834e-06
3.412865666934783e-06
3.283585006582844e-06
3.348004698621699e-06
3.231081251922725e-06
3.403628818296412e-06
3.819419082639663e-06
4.196596936422417e-06
4.611778637866823e-06
5.471599366015126e-06
5.46127587187119e-06
6.201388094892593e-06
6.513378107526395e-06
7.300904629385803e-06
7.600119884393656e-06
8.02715272111379e-06
8.02118218465792e-06
7.575495961865701e-06
6.663587954728497e-06
5.10367293032634e-06
1.418794231461447e-07
4.874466986848301e-07
3.272662406146297e-07
7.569078522700013e-07
1.576774145052391e-06
2.085818187086779e-06
2.553963467066814e-06
2.87029725854171e-06
3.365267315738747e-06
4.117592778169217e-06
4.227721202568156e-06
4.907074860250778e-06
4.921657883110905e-06
4.996368140692057e-06
4.945696331610696e-06
4.903316616876695e-06
4.901902112299444e-06
4.938693204691699e-06
5.000813817254422e-06
4.993180665389315e-06
5.01264632074831e-06
4.917146973551193e-06
4.849899385972045e-06
4.862509380748221e-06
4.813723215985033e-06
4.748757960533982e-06
4.716218946643158e-06
4.591428143710335e-06
4.563314159529196e-06
4.397249757152103e-06
4.339271947184005e-06
4.220600411924423e-06
4.219165492663889e-06
4.006404806783047e-06
3.782803549279779e-06
3.608696387161896e-06
3.579748438611934e-06
3.932635832394728e-06
3.651359704143786e-06
3.411941398034506e-06
3.281416565590434e-06
3.346260506726239e-06
3.228873200552145e-06
3.402910377772749e-06
3.819012567410391e-06
4.198538587967969e-06
4.61246825144721e-06
5.467794083222345e-06
5.463472420588848e-06
6.20211208981208e-06
6.515029592235005e-06
7.301011197409741e-06
7.601123117868508e-06
8.028528705551224e-06
8.023795445402596e-06
7.580789629793405e-06
6.67194997167528e-06
5.109616992579326e-06
1.704089126827793e-07
4.764345261259077e-07
3.281055833456554e-07
7.538567902343568e-07
1.576907059481975e-06
2.087626491021857e-06
2.547688108822173e-06
2.86760193124079e-06
3.366903298419395e-06
4.116102278172049e-06
4.236248792536695e-06
4.906532388356546e-06
4.924082904775696e-06
4.998854197446163e-06
4.948135617977402e-06
4.905389895605791e-06
4.902117318419643e-06
4.937618191923877e-06
4.999386830965398e-06
4.996012075875868e-06
5.013097805806319e-06
4.91631112467342e-06
4.850104462315706e-06
4.862991712339976e-06
4.814024142001962e-06
4.749877265377102e-06
4.715790493082713e-06
4.592598628908381e-06
4.562129838021195e-06
4.397299514637045e-06
4.339398693257774e-06
4.225246474310284e-06
4.218316405315105e-06
4.003565147652682e-06
3.784863787791121e-06
3.611000664238633e-06
3.572236577269469e-06
3.936576676121131e-06
3.650661124905253e-06
3.410804722614563e-06
3.278396066180383e-06
3.342458336425216e-06
3.226271096212989e-06
3.401998163588618e-06
3.818197967495927e-06
4.200848581759047e-06
4.61319717239098e-06
5.459746822274239e-06
5.468405740525634e-06
6.201922046320597e-06
6.518132454879285e-06
7.299826254507745e-06
7.602365288492184e-06
8.028973014753705e-06
8.026110654083094e-06
7.587765920835462e-06
6.683280582503797e-06
5.108875269412356e-06
1.898181941718782e-07
4.646909559395318e-07
3.297299902081797e-07
7.508724118245857e-07
1.576318778424132e-06
2.090271592583501e-06
2.540803928849033e-06
2.865148421562069e-06
3.368585447715073e-06
4.115321985861546e-06
4.243294695269132e-06
4.906213637524274e-06
4.926641805266648e-06
5.000932346168641e-06
4.950295827798228e-06
4.907111059716577e-06
4.902178101703256e-06
4.936456997134148e-06
4.997213299375321e-06
4.998865233662533e-06
5.014716099984603e-06
4.914852948117948e-06
4.8499553143876e-06
4.86350649711312e-06
4.814376315941616e-06
4.750945206979852e-06
4.715382385471487e-06
4.593765668377375e-06
4.560970171794972e-06
4.397283843039369e-06
4.338756511098412e-06
4.229730794165277e-06
4.218249668080322e-06
4.000700522351772e-06
3.786487068700401e-06
3.613363981773996e-06
3.563404568965617e-06
3.942540741792798e-06
3.6501599198442e-06
3.409222546790967e-06
3.274527589282005e-06
3.339429218300235e-06
3.223364367771601e-06
3.401007263093369e-06
3.817514065439926e-06
4.203588845738119e-06
4.614858541845884e-06
5.45315473376296e-06
5.472348843176838e-06
6.202531514998878e-06
6.521268940182152e-06
7.299192659707173e-06
7.603639273026275e-06
8.029427005925394e-06
8.027798981186797e-06
7.593310898281679e-06
6.693495197057857e-06
5.11398845412713e-06
2.232940423150043e-07
4.492952694677923e-07
3.287481695359051e-07
7.480816331224969e-07
1.576049568420808e-06
2.093424023625398e-06
2.531385006850344e-06
2.861044770978551e-06
3.371252189245566e-06
4.113241525804857e-06
4.255477618322608e-06
4.905266758123729e-06
4.930690203432853e-06
5.004569307193138e-06
4.954444869131135e-06
4.910248209970249e-06
4.902798107222044e-06
4.935104196445239e-06
4.994653980176262e-06
5.002941243454165e-06
5.015165567032327e-06
4.913877717726753e-06
4.849936043986174e-06
4.864301386307291e-06
4.814809824525345e-06
4.7526134035968e-06
4.714622151986802e-06
4.595535063403944e-06
4.559098818332788e-06
4.397641785840913e-06
4.338202622790282e-06
4.236675849015256e-06
4.216976773311406e-06
3.996909499758013e-06
3.787896896010429e-06
3.616492376792447e-06
3.55370379217479e-06
3.947668433243577e-06
3.649684830911955e-06
3.407543049822351e-06
3.269786932480363e-06
3.333596703524784e-06
3.220178817051657e-06
3.399802292881109e-06
3.816254027380125e-06
4.206261646587844e-06
4.61694127085702e-06
5.441055124597542e-06
5.479833640940666e-06
6.201723641753332e-06
6.526643148360471e-06
7.296673618369713e-06
7.605305014227796e-06
8.028480919501246e-06
8.028787414136144e-06
7.600731012299049e-06
6.706963637874941e-06
5.106674313571031e-06
2.480373788074008e-07
4.323917827715932e-07
3.291583672390969e-07
7.453430589198276e-07
1.575053797004417e-06
2.097770734130011e-06
2.521215152676582e-06
2.857341004175284e-06
3.374022131674138e-06
4.111899782679164e-06
4.265952077881464e-06
4.904482556352904e-06
4.934868050111605e-06
5.007636026214714e-06
4.958149621066902e-06
4.912892969446218e-06
4.903215827614982e-06
4.933694495844493e-06
4.990992799184442e-06
5.007126359045262e-06
5.016703111315966e-06
4.912490107918024e-06
4.849201377643768e-06
4.865275857352267e-06
4.815229492126247e-06
4.754262996687701e-06
4.713811933950151e-06
4.597354903447083e-06
4.557234346853894e-06
4.398035105465682e-06
4.336430670882847e-06
4.2436270799529e-06
4.216525092897919e-06
3.993256826469971e-06
3.788208810631162e-06
3.62012263641836e-06
3.542070136870833e-06
3.955430854022404e-06
3.649634023739673e-06
3.405525904359854e-06
3.264051819019441e-06
3.328803440455231e-06
3.216916657402542e-06
3.398561373880897e-06
3.815187942323654e-06
4.209319835812602e-06
4.62046382418292e-06
5.430429434421453e-06
5.486427024682382e-06
6.201606560093701e-06
6.532195673084719e-06
7.294622924558962e-06
7.607136981434829e-06
8.027423936149341e-06
8.028884441739379e-06
7.606381351134097e-06
6.719143847656429e-06
5.10713566805718e-06
2.929194396494397e-07
4.113162531274867e-07
3.265060972982013e-07
7.431261835442184e-07
1.574385111304738e-06
2.101850624163204e-06
2.508617833633132e-06
2.852108602205563e-06
3.378293709601505e-06
4.109352099536652e-06
4.282282182708998e-06
4.903005463978761e-06
4.940950153621763e-06
5.012760672272141e-06
4.96427285104627e-06
4.917295412556196e-06
4.904285398937394e-06
4.932111814081876e-06
4.987183621459318e-06
5.01205771398047e-06
5.01680625287666e-06
4.911852371679646e-06
4.84872736293169e-06
4.866383144678257e-06
4.815740007010751e-06
4.756532664802077e-06
4.712637281369702e-06
4.599807243151704e-06
4.554649506187464e-06
4.398973258562179e-06
4.335273855935672e-06
4.252612327347057e-06
4.214699091909834e-06
3.988664796225036e-06
3.788149211568409e-06
3.624083907854592e-06
3.531759073456415e-06
3.960017849770342e-06
3.649808414502565e-06
3.403610418552433e-06
3.257948995937385e-06
3.320651245064578e-06
3.21350140606901e-06
3.397185418290247e-06
3.813353539481365e-06
4.211673385381561e-06
4.624562569762944e-06
5.413742504902505e-06
5.496827438519753e-06
6.199418452363508e-06
6.540351399446647e-06
7.289860864684784e-06
7.609402964185103e-06
8.024454748290078e-06
8.028288025250084e-06
7.614726340649738e-06
6.734496653540383e-06
5.088983841780543e-06
3.2986568019529e-07
3.887411817792648e-07
3.258223371967106e-07
7.411562263710041e-07
1.573127342511476e-06
2.107127250123947e-06
2.495395479210642e-06
2.847702221063861e-06
3.382935190463824e-06
4.107628795425498e-06
4.297113194493583e-06
4.901529170624403e-06
4.947221306710565e-06
5.017194513672713e-06
4.969794545095988e-06
4.92100007137418e-06
4.904989730668119e-06
4.930345463504593e-06
4.981907342023808e-06
5.017253573908086e-06
5.017547361548982e-06
4.9110819099454e-06
4.847190577552967e-06
4.867804843871823e-06
4.816149283364821e-06
4.75880792523068e-06
4.711340541210097e-06
4.602392464861204e-06
4.552007300910511e-06
4.400036393693779e-06
4.332712097724108e-06
4.261702358957263e-06
4.213488261156621e-06
3.984373755580114e-06
3.786534383701568e-06
3.62900786485835e-06
3.519517076117915e-06
3.967160025470388e-06
3.650792178589376e-06
3.40165196904466e-06
3.251149596174163e-06
3.313688966714436e-06
3.210413698840103e-06
3.396013275923888e-06
3.811780981554515e-06
4.214309470589329e-06
4.630518810144698e-06
5.398214619676004e-06
5.506624034039047e-06
6.197601144739861e-06
6.548734663361051e-06
7.285266335053112e-06
7.611890037441137e-06
8.021215861131482e-06
8.02677501949876e-06
7.621346292327111e-06
6.747935945181299e-06
5.078512386546022e-06
3.928228891888201e-07
3.631066202416863e-07
3.221209980597101e-07
7.399204661610314e-07
1.572200721004131e-06
2.110748808834339e-06
2.480493642574634e-06
2.842116290820955e-06
3.389453019092901e-06
4.105499785532812e-06
4.318761550684513e-06
4.899971912882209e-06
4.956085506767706e-06
5.024098311665857e-06
4.978356588286922e-06
4.926500488837286e-06
4.906388466613809e-06
4.928313985583243e-06
4.976779503406878e-06
5.022499629832051e-06
5.016556876358357e-06
4.911054572997523e-06
4.846184318431426e-06
4.869100876505002e-06
4.816715935102688e-06
4.761528455710659e-06
4.70986494355596e-06
4.605469745634669e-06
4.548756427158807e-06
4.401652506192559e-06
4.331554057284924e-06
4.271961337767848e-06
4.210707664789674e-06
3.979379697673397e-06
3.784637108904243e-06
3.633541014371946e-06
3.511579160334405e-06
3.969092129484716e-06
3.652270316292857e-06
3.39987397362707e-06
3.244631449054111e-06
3.30254271524146e-06
3.207038706129351e-06
3.394534321892265e-06
3.809124259713764e-06
4.21558560789629e-06
4.636731112077991e-06
5.376490212636191e-06
5.52013387514869e-06
6.193549437716e-06
6.559632724285857e-06
7.27767750357999e-06
7.614466581693691e-06
8.01599724184252e-06
8.024865488716783e-06
7.631023800826455e-06
6.762336020918556e-06
5.043166114382821e-06
4.518247191460812e-07
3.368315349823887e-07
3.202491171204973e-07
7.394742034048717e-07
1.570919575388773e-06
2.114838748549604e-06
2.465508120203474e-06
2.837857323639699e-06
3.396766112240191e-06
4.104588593873244e-06
4.34001648615241e-06
4.898577349369976e-06
4.96544623116977e-06
5.030598635873159e-06
4.986397733352944e-06
4.931235872326289e-06
4.907158212635474e-06
4.925751321647334e-06
4.970132186709471e-06
5.0279564116152e-06
5.015430740016948e-06
4.91113126206936e-06
4.844021038398852e-06
4.870751976973799e-06
4.817090302658648e-06
4.764258232186869e-06
4.708243437040946e-06
4.608687988037564e-06
4.54539318700788e-06
4.403422180109721e-06
4.329455549652617e-06
4.282342501873487e-06
4.208077966309953e-06
3.974768385804636e-06
3.781197207963076e-06
3.639265916170182e-06
3.502743668759412e-06
3.972730945090405e-06
3.654958504313794e-06
3.398329090433236e-06
3.237918467313553e-06
3.292117485617418e-06
3.204398722617171e-06
3.393305422174638e-06
3.806757013389441e-06
4.21697103273301e-06
4.644627087493462e-06
5.355265423071838e-06
5.533513250012485e-06
6.189502935358657e-06
6.570726188757769e-06
7.269723835844784e-06
7.616953679564228e-06
8.010286928640288e-06
8.022317829147632e-06
7.639508588919445e-06
6.773607388615228e-06
5.012037709488391e-06
5.333430160694412e-07
3.08326892966165e-07
3.146238750198625e-07
7.394732637061855e-07
1.569891512687295e-06
2.116375447390832e-06
2.449445422599131e-06
2.832918320422527e-06
3.406137998393347e-06
4.10513807249927e-06
4.367785461125458e-06
4.899140817157057e-06
4.978125654058381e-06
5.040586567096155e-06
4.997764912247128e-06
4.938001018557253e-06
4.908421026369481e-06
4.922780579208705e-06
4.964008648858975e-06
5.032838338251297e-06
5.012688506150656e-06
4.911699191445759e-06
4.842362570048353e-06
4.87210216525205e-06
4.817652997673661e-06
4.767247861579404e-06
4.706634062776612e-06
4.612123191248759e-06
4.541858750168579e-06
4.405707021270831e-06
4.329600494439939e-06
4.292925787956671e-06
4.204380812492474e-06
3.969693184248935e-06
3.777672828782456e-06
3.644170074132035e-06
3.499411233684897e-06
3.970797240103186e-06
3.658230824498473e-06
3.396521408716028e-06
3.231465621094646e-06
3.277314724513492e-06
3.200839753205202e-06
3.390726491050433e-06
3.803026401441086e-06
4.216366904561077e-06
4.651447351207618e-06
5.329474382335364e-06
5.549078313698924e-06
6.183849947369832e-06
6.583161186144755e-06
7.25910056209388e-06
7.618608185780147e-06
8.002886388310179e-06
8.020326569778807e-06
7.651524437421892e-06
6.783984552604165e-06
4.959659421679339e-06
6.10874520392214e-07
2.79511083152047e-07
3.09127690358782e-07
7.402857570886423e-07
1.568492486673928e-06
2.11713172833518e-06
2.433711296271421e-06
2.829365204335152e-06
3.41679076728859e-06
4.108213969363528e-06
4.396169365525199e-06
4.90153257894207e-06
4.992190467373809e-06
5.051367662314159e-06
5.009124058136272e-06
4.944521120747054e-06
4.908815270784536e-06
4.918950714477791e-06
4.956785116861274e-06
5.037527752279979e-06
5.009417613275376e-06
4.91236703481793e-06
4.839688985456815e-06
4.873682310626277e-06
4.818095724204917e-06
4.770214586192431e-06
4.705057365945846e-06
4.615576359998553e-06
4.538345282687384e-06
4.408170347892481e-06
4.32987498138205e-06
4.303428411783526e-06
4.200855125838633e-06
3.964929177817482e-06
3.772971314562226e-06
3.649990730825344e-06
3.496594170871379e-06
3.969690358176755e-06
3.662576502878476e-06
3.394766154966321e-06
3.225014699263007e-06
3.26249137022733e-06
3.197617708745838e-06
3.387617092116477e-06
3.799417826581877e-06
4.215381265923002e-06
4.658526078711245e-06
5.304537946407275e-06
5.564003804446261e-06
6.1782910466793e-06
6.594806963680741e-06
7.247733167519149e-06
7.619094749066268e-06
7.995188932026146e-06
8.0191086981582e-06
7.664149488879733e-06
6.791490171226447e-06
4.910159882181088e-06
6.949761790404214e-07
2.47698541438483e-07
2.984717893434842e-07
7.397566022667273e-07
1.566920880608404e-06
2.114618316358857e-06
2.416475073148016e-06
2.824835608094914e-06
3.429321215806872e-06
4.115636270145228e-06
4.430086641978437e-06
4.909202271117499e-06
5.010798812662996e-06
5.067008976031646e-06
5.024386669305464e-06
4.953528361468286e-06
4.909672149640117e-06
4.914746938141923e-06
4.950067715735156e-06
5.041257824191304e-06
5.005237868735609e-06
4.913079238541927e-06
4.837287102595376e-06
4.875017551732213e-06
4.818779107327378e-06
4.773292319986479e-06
4.704039498847328e-06
4.619037996231172e-06
4.53512723115365e-06
4.411130356246476e-06
4.332731589918608e-06
4.313665090966517e-06
4.197209463160201e-06
3.95984540892828e-06
3.768244750539433e-06
3.654946050259458e-06
3.498249046669222e-06
3.96523262480665e-06
3.667013114177725e-06
3.391886128669789e-06
3.217961758448116e-06
3.243525176312543e-06
3.191824024147501e-06
3.381446028831782e-06
3.794025990096852e-06
4.2117070794431e-06
4.662538399362394e-06
5.278017084277428e-06
5.578635292613104e-06
6.172594629015972e-06
6.605625290905969e-06
7.234510552795966e-06
7.617206133417985e-06
7.986751688421066e-06
8.020191464660639e-06
7.681749504525485e-06
6.80015410523298e-06
4.851638513187259e-06
7.662753943460201e-07
2.135255627942195e-07
2.854779400202317e-07
7.38010340381668e-07
1.564540706337466e-06
2.109438576881528e-06
2.398723836353645e-06
2.820957207158464e-06
3.44326080931979e-06
4.127717993169981e-06
4.465482013128359e-06
4.921594247799434e-06
5.032484893829596e-06
5.085385663423532e-06
5.041002918899923e-06
4.963059961580533e-06
4.909870202997435e-06
4.909854942008154e-06
4.94275482040645e-06
5.044382414964974e-06
5.000686108786696e-06
4.913677080927183e-06
4.834273618391495e-06
4.876402250676575e-06
4.819580890380045e-06
4.776422317037946e-06
4.703449893250855e-06
4.622471070433312e-06
4.532310603842835e-06
4.414315812645366e-06
4.336685153493293e-06
4.323658756062751e-06
4.193980783483841e-06
3.95488821393757e-06
3.762645957908982e-06
3.660386979061875e-06
3.500686123037053e-06
3.962001688651166e-06
3.671883837306781e-06
3.388197493963273e-06
3.210378913666822e-06
3.223654434626631e-06
3.18475612575205e-06
3.373238276001387e-06
3.788172497813452e-06
4.206797214780374e-06
4.664745047759529e-06
5.253434187364485e-06
5.591467426288864e-06
6.167752666839409e-06
6.614109108691445e-06
7.220512921941615e-06
7.612668191410036e-06
7.978512392779697e-06
8.023969122283638e-06
7.70282660211212e-06
6.809943132637616e-06
4.799804877438332e-06
8.279678219120392e-07
1.741559235638013e-07
2.660539900080642e-07
7.316230834271533e-07
1.56081190297734e-06
2.099962747514946e-06
2.378123919853256e-06
2.815305004746421e-06
3.458578906175416e-06
4.146161230483627e-06
4.505642700720728e-06
4.941929696057403e-06
5.060159335266389e-06
5.110137520568321e-06
5.062491054768161e-06
4.975388665995266e-06
4.910698479724877e-06
4.905117613827749e-06
4.936339799561987e-06
5.046599643173417e-06
4.995781825729161e-06
4.914080717127432e-06
4.831660427026596e-06
4.877482255099811e-06
4.82080436302402e-06
4.779737895488736e-06
4.703797335105661e-06
4.62602822499443e-06
4.53030920395543e-06
4.418015581966599e-06
4.343183958660466e-06
4.333138876805491e-06
4.191238690870184e-06
3.949788229695741e-06
3.756810844050981e-06
3.665193227759837e-06
3.505760696459172e-06
3.957864106664086e-06
3.676186114993918e-06
3.382174952392315e-06
3.201087739756787e-06
3.199650321615255e-06
3.173213005889594e-06
3.360169001197241e-06
3.779762291044234e-06
4.19827147374781e-06
4.662211105558319e-06
5.229301025549634e-06
5.60219038155355e-06
6.163905848335646e-06
6.620159734369694e-06
7.205370471906123e-06
7.604501424196513e-06
7.969933642013434e-06
8.030958399077699e-06
7.730418307655237e-06
6.825295103208822e-06
4.750895625872545e-06
8.708622567019426e-07
1.303432012039519e-07
2.431032202400024e-07
7.212132783476563e-07
1.555010598783094e-06
2.086314539928864e-06
2.355894540178755e-06
2.809550989761659e-06
3.475002578142111e-06
4.169865391930043e-06
4.547158044832611e-06
4.96814701848255e-06
5.092051707004298e-06
5.138594148246216e-06
5.086121199536461e-06
4.988520586500362e-06
4.911133875177102e-06
4.900278568275611e-06
4.930051185956356e-06
5.048301833343305e-06
4.990865632027182e-06
4.914262727656212e-06
4.828857705401327e-06
4.878457852366384e-06
4.822351294483375e-06
4.783167852504792e-06
4.704946621337897e-06
4.629802699314607e-06
4.529108143269107e-06
4.421959969792394e-06
4.350924152857738e-06
4.34220642968493e-06
4.189041184948471e-06
3.944907478915507e-06
3.750190437096585e-06
3.670426078021017e-06
3.511139095370456e-06
3.955507847647767e-06
3.680428654609558e-06
3.374296141681282e-06
3.19077194722032e-06
3.174323057450464e-06
3.159140651665643e-06
3.343907458986137e-06
3.770230432453529e-06
4.187641465041313e-06
4.656709314981343e-06
5.207747220275534e-06
5.610526660684141e-06
6.161217248778201e-06
6.623164917452427e-06
7.189571940089767e-06
7.592843869072953e-06
7.961284928033587e-06
8.040813116258343e-06
7.762789021883468e-06
6.845410246363325e-06
4.712754331178534e-06
9.002373166069434e-07
8.079070073649141e-08
2.139703161651294e-07
7.037877289456304e-07
1.545905014714452e-06
2.067330772092421e-06
2.329314097108983e-06
2.801327667965281e-06
3.492355996312448e-06
4.199735854320425e-06
4.59262342400156e-06
5.002407357792105e-06
5.130463948685215e-06
5.173728714845919e-06
5.114778051086536e-06
5.00432749325104e-06
4.912325164973314e-06
4.89620592431149e-06
4.925059449795163e-06
5.049492757656896e-06
4.986108128072894e-06
4.914263396231149e-06
4.826572050241662e-06
4.879144843863365e-06
4.824374317071139e-06
4.786813691225782e-06
4.707270422858833e-06
4.634088293175017e-06
4.529145832581504e-06
4.42656378798014e-06
4.360681207987988e-06
4.350481210686887e-06
4.187301008118454e-06
3.940184184044707e-06
3.743255770731651e-06
3.675669102360963e-06
3.518059013714313e-06
3.953320887765103e-06
3.683915300795274e-06
3.363349266174418e-06
3.178281079710569e-06
3.144884787604283e-06
3.13963419653023e-06
3.321754312399659e-06
3.757497615161386e-06
4.172523599348595e-06
4.645949567810548e-06
5.187145799503819e-06
5.616474179949849e-06
6.159633508075898e-06
6.623593395568984e-06
7.172978291797387e-06
7.577335291838794e-06
7.951640207392297e-06
8.052819755801062e-06
7.80118661957791e-06
6.872770070116802e-06
4.682327000521771e-06
9.147718621869035e-07
2.735032136781669e-08
1.818342848748166e-07
6.812323925838834e-07
1.532950740166823e-06
2.04313590331265e-06
2.300007559274361e-06
2.792712704048185e-06
3.510654262226384e-06
4.233856224048674e-06
4.638934204766884e-06
5.041437731082808e-06
5.173045106570385e-06
5.212165423354189e-06
5.145129968516712e-06
5.020558779495736e-06
4.913048106930527e-06
4.892413262615861e-06
4.920474111074134e-06
5.05051445829206e-06
4.98166492574219e-06
4.914222178070079e-06
4.824306208751541e-06
4.879701547520386e-06
4.826735547581509e-06
4.79061649137893e-06
4.710480735771529e-06
4.639052644144962e-06
4.530298377714321e-06
4.431585816724998e-06
4.371281657357809e-06
4.358115874657186e-06
4.185734022468517e-06
3.935858071085794e-06
3.735498739805086e-06
3.681756398864783e-06
3.525065452827705e-06
3.952829030834156e-06
3.687425808330121e-06
3.350276991651282e-06
3.164790002003375e-06
3.114019728902334e-06
3.117383989100768e-06
3.29613661316945e-06
3.74338509503313e-06
4.15492722267904e-06
4.632458228255694e-06
5.168784253248975e-06
5.62052809353568e-06
6.158883107890372e-06
6.621460911814154e-06
7.155775773461305e-06
7.558544770321947e-06
7.940904708725316e-06
8.065994682015412e-06
7.843160725814855e-06
6.905155756471445e-06
4.661905319097004e-06
9.216966871197722e-07
-2.95012757988001e-08
1.451165735937601e-07
6.510937438637935e-07
1.514468619717748e-06
2.012659561406083e-06
2.264885914334603e-06
2.781272884814987e-06
3.529818660899236e-06
4.273215574150848e-06
4.688894988937285e-06
5.087421720265098e-06
5.222239142591643e-06
5.257106691538561e-06
5.180100078103516e-06
5.039041257342139e-06
4.914265900268112e-06
4.88966685775252e-06
4.917214829637023e-06
5.051357303969304e-06
4.977631202388708e-06
4.914332558705193e-06
4.82266074407089e-06
4.880042513286572e-06
4.829514169937922e-06
4.794677474222043e-06
4.714848797118558e-06
4.645033355362265e-06
4.53299256233227e-06
4.437577191459595e-06
4.383312451955476e-06
4.364466188782413e-06
4.184022299953748e-06
3.931855349591653e-06
3.727156180148626e-06
3.688607811007374e-06
3.533333490283569e-06
3.952492094493711e-06
3.690431798247835e-06
3.334128552254615e-06
3.149076047747746e-06
3.078888991088616e-06
3.089335294817925e-06
3.264036842980562e-06
3.725503793294553e-06
4.13211293805257e-06
4.613919075397579e-06
5.150717338129823e-06
5.622719708544155e-06
6.158842871671741e-06
6.617414859020427e-06
7.137868497674167e-06
7.536414205140069e-06
7.928110714880581e-06
8.078996081705549e-06
7.888600794462675e-06
6.943294641531592e-06
4.648715736395685e-06
9.223637187848984e-07
-8.701038174456318e-08
1.07282916504891e-07
6.162781512490605e-07
1.490662871433567e-06
1.976322612133228e-06
2.226548552693474e-06
2.769719585764152e-06
3.550005037640765e-06
4.31569684267978e-06
4.739246536153278e-06
5.136489225157067e-06
5.275244277519691e-06
5.304427690814359e-06
5.215716533658109e-06
5.057207621643001e-06
4.914493266592445e-06
4.8871929800981e-06
4.914180976291262e-06
5.052188223161764e-06
4.974011853642961e-06
4.914763984622748e-06
4.821154781869057e-06
4.880327442713343e-06
4.832581277531331e-06
4.798913149615563e-06
4.719983284893556e-06
4.652101886263625e-06
4.537014512043397e-06
4.444232569652711e-06
4.395765316210907e-06
4.369724421930939e-06
4.181757912269741e-06
3.928375307134797e-06
3.717735951519836e-06
3.69675890575785e-06
3.541653914181278e-06
3.953244239506618e-06
3.693783697908201e-06
3.316196053519492e-06
3.132776973974268e-06
3.042553262575774e-06
3.058864945516493e-06
3.228676418582459e-06
3.706187178293178e-06
4.106723260473094e-06
4.593410253108789e-06
5.134261450901677e-06
5.623666671137161e-06
6.159135609174595e-06
6.611357510080745e-06
7.119262440347401e-06
7.511571029973131e-06
7.913287394959886e-06
8.090733028157944e-06