/*--------------------------------*- C++ -*----------------------------------*\
| =========                 |                                                 |
| \\      /  F ield         | OpenFOAM: The Open Source CFD Toolbox           |
|  \\    /   O peration     | Version:  v1812                                 |
|   \\  /    A nd           | Web:      www.OpenFOAM.com                      |
|    \\/     M anipulation  |                                                 |
\*---------------------------------------------------------------------------*/
FoamFile
{
    version     2.0;
    format      ascii;
    class       surfaceScalarField;
    location    "10000";
    object      phi;
}
// * * * * * * * * * * * * * * * * * * * * * * * * * * * * * * * * * * * * * //

dimensions      [0 3 -1 0 0 0 0];
oriented        oriented;


internalField   nonuniform List<scalar> 
7417
(
-0.0009820743157680386
4.477836769598874e-09
-0.0009820676010032865
-6.012784119672881e-09
-0.0009820685914455514
1.517560001234604e-09
-0.0009820687527050864
-3.232996158865303e-11
-0.0009820686393503112
1.000186512637027e-10
-0.0009820688989554082
-8.174038449822326e-11
-0.0009820685826398493
4.455861093755039e-10
-0.0009820686178140853
1.826721813071385e-10
-0.0009820689833857402
-1.1619665366552e-10
-0.0009820680367458672
3.105164568431943e-10
-0.0009820686250970193
-1.503968747202023e-09
-0.0009820681393027571
-1.98050843928863e-11
-0.0009820680175325626
-2.619129209518522e-10
-0.0009820678850330027
-3.957258323502592e-10
-0.0009820678258899073
-2.62056844094129e-10
-0.000982067842622053
-2.603807525391516e-10
-0.0009820678549428813
-4.743251907884997e-12
-0.000982067911615413
1.622592658523272e-10
-0.0009820668480319168
-1.013884538959946e-10
-0.0009820678558677266
-7.915926097555699e-10
-0.0009820674298924611
1.20661292646028e-09
-0.0009820674173417658
-5.37236242187609e-10
-0.0009820671927656035
1.086215880480065e-10
-0.0009820674104613388
-3.247934009022633e-10
-0.0009820673045247376
4.082074081525535e-11
-0.0009820675288287311
-2.456852728451262e-10
-0.0009820672832302219
8.849619567203123e-11
-0.0009820675384551193
-2.106809692368785e-10
-0.0009820673047943164
1.644866253885942e-10
-0.0009820675339235279
-2.758630501970454e-11
-0.0009820665786523161
-1.422344743954276e-10
-0.0009820677811089992
-1.093590169576023e-09
-0.0009820675721555353
9.349603598689134e-10
-0.0009820672135396212
1.434095825042006e-10
-0.0009820663515543514
-1.551209780141065e-10
-0.0009820682049888219
-1.588726978280799e-09
-0.0009820674380619885
1.898714060640881e-09
-0.0009820670336358496
-3.693410041924674e-10
-0.0009820672470918445
6.216562347923445e-11
-0.0009820676538199733
-2.409275593380936e-10
-0.0009820678633827428
2.558822483563659e-11
-0.0009820676355837613
4.782722329123147e-10
-0.0009820681515159931
1.136532355779781e-10
-0.0009820686595605945
1.346143781085352e-10
-0.0009820687985410883
2.63679443961509e-10
-0.0009820688776362955
5.519169740278274e-12
-0.0009820699268365993
3.025842903698193e-10
-0.0009820681821405366
1.713847970212197e-09
-0.0009820690719863669
-1.289363265970127e-09
-0.0009820688230595723
4.237938100749903e-10
-0.0009820693033438666
-2.705841122012418e-10
-0.0009820687652112999
2.806437373452196e-10
-0.0009820689122344475
-1.805331401742719e-10
-0.0009820685684670846
-3.784546306907926e-11
-0.000982068307241167
-2.207859140022245e-10
-0.0009820679679941209
-2.831555778947945e-10
-0.0009820688105213016
7.287750477589323e-10
6.984379728143964e-09
-0.001048262710219626
6.470652453189815e-09
-0.001048262882013434
-4.976829705382568e-09
-0.001048262708746467
1.435699408015319e-09
-0.001048262922289772
-9.191101703536162e-11
-0.001048262732999508
2.769190672943934e-10
-0.001048262944961843
-1.202987118987019e-10
-0.001048262691035095
6.781705111766602e-10
-0.00104826267423755
1.477935526896289e-10
-0.001048262880849166
-3.137689196888781e-10
-0.001048262093155682
1.777108407646976e-10
-0.001048262674924401
-1.811582671433735e-09
-0.001048262191372807
-1.261324734446883e-10
-0.001048262038496499
-4.060846656036303e-10
-0.001048261915117845
-5.024351593027423e-10
-0.001048261826745542
-2.993314323046967e-10
-0.001048261822461053
-2.860667812205015e-10
-0.001048261824509209
4.698235483966228e-11
-0.001048261938291203
2.776248102849616e-10
-0.001048261155009842
8.462043092664504e-11
-0.001048261762684391
-1.172585348567223e-09
-0.001048261345783341
1.453415372461961e-09
-0.001048261532362421
-6.357355118851748e-10
-0.001048261304030475
2.447054477106382e-10
-0.001048261478838713
-5.210246452982375e-10
-0.001048261360818957
7.657857006621244e-11
-0.001048261554071941
-3.759614178066058e-10
-0.001048261330460057
1.340624667219066e-10
-0.001048261549928823
-3.428619627979913e-10
-0.001048261357878059
2.516786874494783e-10
-0.001048261593292802
-2.767286118110744e-11
-0.001048260800217655
4.561157512135341e-12
-0.001048261652493006
-1.525277032279927e-09
-0.001048261527502024
1.061129556939511e-09
-0.001048261352287347
3.358348419483162e-10
-0.001048260446344978
-9.917549226872552e-11
-0.001048262060452487
-2.352903468857236e-09
-0.001048261662479962
2.767948780815495e-09
-0.001048261204646696
-8.308940878955437e-10
-0.001048261268617608
-1.320348324940242e-11
-0.001048261743371367
-3.194065165217836e-10
-0.001048262073235503
1.853614666414047e-10
-0.001048261857138746
4.994027222638062e-10
-0.001048262134878444
3.190725731760184e-10
-0.001048262576032355
2.303616558740109e-10
-0.001048262664081424
4.080517922598692e-10
-0.001048262695689275
-4.994735149513519e-11
-0.001048263756107395
3.082470998605728e-10
-0.001048262433355824
2.125444118656479e-09
-0.00104826312584256
-1.437232519673417e-09
-0.001048262886811018
4.725268199286383e-10
-0.001048263396541509
-3.425131230482116e-10
-0.001048262982579074
3.3696083179318e-10
-0.001048263169019191
-3.068309820967865e-10
-0.001048262985103237
-9.716598222381816e-11
-0.00104826281371075
-3.21140844993726e-10
-0.001048262347515959
-2.176268922288624e-10
-0.001048262213122575
1.000446714053034e-09
5.328363901251e-09
-0.001112659201405838
6.044954254526855e-09
-0.00111265918666377
-4.471180711738094e-09
-0.001112659089309139
1.960353501423333e-09
-0.001112659304373161
3.3826761679549e-12
-0.001112659125563021
2.010175916034007e-10
-0.001112659240193849
-3.841996288391301e-10
-0.00111265894553133
1.115505457435576e-09
-0.001112658984388056
4.039260803537649e-10
-0.001112659193511507
-5.385401123789447e-10
-0.001112658459367814
6.178214324664898e-10
-0.001112658985798376
-3.353164343516611e-09
-0.001112658462380783
-2.209685859298028e-10
-0.001112658353062314
-6.990631749882452e-10
-0.001112658233755677
-9.578997697327824e-10
-0.001112658135411194
-6.957245934834266e-10
-0.001112658111461368
-6.47190855760745e-10
-0.001112658085835087
-1.873506479848332e-11
-0.001112658199406387
4.799579651758206e-10
-0.001112657436316101
1.532808278661917e-10
-0.00111265802673913
-2.202410920588457e-09
-0.001112657634314354
2.646069114853927e-09
-0.001112657793389791
-9.964218335846371e-10
-0.001112657557501043
2.961941433242925e-10
-0.001112657717368187
-8.707589797917113e-10
-0.001112657613207197
9.905772066916163e-11
-0.001112657798998597
-6.364010486062406e-10
-0.001112657584803531
2.524056528304382e-10
-0.00111265778501233
-5.648134999497579e-10
-0.001112657591356744
4.758266515187807e-10
-0.00111265783031919
-6.561630209458133e-11
-0.001112657088292385
-7.196891891609916e-11
-0.001112657923159244
-2.79958423961222e-09
-0.001112657748909586
2.053342370956616e-09
-0.001112657549980615
5.292812640586982e-10
-0.001112656728196785
-3.564681564848434e-10
-0.001112658305441107
-3.616353740315585e-09
-0.00111265793567923
4.768976438804321e-09
-0.001112657445547877
-1.202486049819598e-09
-0.001112657525456912
-8.910482695039905e-11
-0.001112658013481887
-4.438279576674854e-10
-0.001112658296699897
3.217775046592184e-10
-0.001112658085489939
9.839163957264633e-10
-0.001112658434164759
1.883868969837964e-10
-0.001112658917022666
3.709642770501326e-10
-0.001112659054179428
6.707380603808104e-10
-0.00111265911049374
7.267378202690523e-11
-0.001112660087627029
7.20494078478876e-10
-0.001112658851890931
4.184326750940586e-09
-0.001112659558658307
-2.845848769150685e-09
-0.00111265935555808
9.92215431043362e-10
-0.001112659841908611
-6.051084056751874e-10
-0.001112659428661042
7.575614995520492e-10
-0.00111265961937929
-4.098589757567276e-10
-0.001112659474198373
9.245347499933239e-11
-0.001112659483711752
-2.795907194127437e-10
-0.001112659176203649
-6.076928816829301e-10
-0.001112658872520017
2.361282835322234e-10
6.147439054358099e-09
-0.001174701596763025
7.330200991912916e-09
-0.001174702439187375
-3.01926992987712e-09
-0.001174702146475701
1.690051561576514e-09
-0.001174702271364223
-1.411849413088247e-10
-0.001174702097336259
3.984239344639752e-10
-0.00117470223802849
-5.027486413605893e-10
-0.001174701974803716
1.235278911667477e-09
-0.001174701919975883
3.034112344772068e-10
-0.001174702055720215
-7.492576982764377e-10
-0.001174701324580015
3.379698364484897e-10
-0.001174701884143225
-3.310720833018233e-09
-0.001174701413480887
-3.200098576168796e-10
-0.001174701238365728
-8.33854420096625e-10
-0.001174701117304056
-9.835347830657237e-10
-0.001174701020363076
-6.852439066922629e-10
-0.001174701004597877
-6.204607382179158e-10
-0.001174700975710193
1.827653809103392e-11
-0.001174701101105443
5.521435877575859e-10
-0.001174700464363075
4.459438888185097e-10
-0.001174700914617591
-2.404794794685149e-09
-0.001174700459712229
2.552312465112601e-09
-0.001174700704813355
-9.877329022620327e-10
-0.001174700498621227
4.700859362434014e-10
-0.001174700644390197
-1.031667058938104e-09
-0.001174700526414153
1.303030165240786e-10
-0.001174700703339046
-7.332726446116593e-10
-0.001174700494993152
2.943761042606319e-10
-0.001174700687781022
-6.765628315317707e-10
-0.001174700504437195
5.462774988534049e-10
-0.001174700741118648
-9.199207815394372e-11
-0.001174700088422338
2.159258307928645e-10
-0.001174700771374609
-3.008562051660099e-09
-0.001174700627771278
1.915610037474455e-09
-0.001174700566169893
7.006679921251434e-10
-0.001174699779174121
-1.449574903476535e-10
-0.001174701107659877
-4.073597345510164e-09
-0.001174700853071511
5.288759298214592e-09
-0.001174700503177308
-1.595391135229344e-09
-0.001174700505694197
-2.214194236053102e-10
-0.001174701006732571
-4.818789207202921e-10
-0.001174701378417066
5.740632865971851e-10
-0.001174701229045594
9.315103497168324e-10
-0.001174701477811364
4.065211093052107e-10
-0.001174701902547181
4.656438166774176e-10
-0.001174702016179914
8.177620195214132e-10
-0.001174702031328094
4.746395788715476e-11
-0.001174703026016064
6.201850182162097e-10
-0.001174701941686238
4.239936209030696e-09
-0.001174702592727191
-2.642919192220787e-09
-0.0011747023385437
9.344767333147356e-10
-0.001174702839952832
-6.470597667259104e-10
-0.001174702481064593
7.527346596785323e-10
-0.001174702664499827
-5.413435420884722e-10
-0.001174702569700867
6.174770650176494e-11
-0.001174702531882268
-2.399384954533246e-10
-0.001174702170733737
-2.370979210255747e-10
-0.001174701986317403
5.822022079433104e-10
3.422536005338191e-09
-0.001235153510216927
6.167246339808346e-09
-0.001235153355070493
-2.773557818122395e-09
-0.001235153315352118
2.322798502924901e-09
-0.001235153460445408
-7.316528228142982e-11
-0.001235153281795551
2.444526679688998e-10
-0.001235153337127725
-8.055048617973436e-10
-0.00123515305444439
1.65806486757138e-09
-0.001235153079595193
6.00411470968279e-10
-0.001235153240515795
-9.925002368612527e-10
-0.0012351525959266
6.781888922838543e-10
-0.001235153055083496
-4.749479247124192e-09
-0.001235152546909422
-3.82132404237499e-10
-0.001235152451128856
-1.167217710381149e-09
-0.001235152335902334
-1.46197942057691e-09
-0.00123515224614065
-1.173677226118384e-09
-0.001235152220474101
-1.003588456951873e-09
-0.001235152173371978
-9.223646782032961e-11
-0.001235152286093884
7.470797503543284e-10
-0.001235151646876347
5.961732853627518e-10
-0.001235152117681904
-3.228405940929752e-09
-0.001235151718938821
3.525015056278474e-09
-0.001235151891428748
-1.346904539300073e-09
-0.001235151685994106
4.933151395263526e-10
-0.001235151817023434
-1.400440989137239e-09
-0.001235151728420603
1.479385157303318e-10
-0.001235151898123116
-1.00160468701044e-09
-0.001235151715183189
4.42425743711193e-10
-0.00123515188834664
-9.010744894611483e-10
-0.00123515170873787
7.968543554445292e-10
-0.001235151939693164
-1.795082991598646e-10
-0.00123515135117253
2.344615306610977e-10
-0.001235152036008146
-4.058459375951538e-09
-0.001235151825392158
2.739317749301607e-09
-0.001235151712774764
8.650537884652807e-10
-0.001235151097446423
-2.470051085491969e-10
-0.00123515238219177
-4.842069020544154e-09
-0.001235152036385882
6.628465171841907e-09
-0.001235151651446656
-1.846528730736304e-09
-0.001235151745554617
-3.015140757836997e-10
-0.001235152206864349
-6.536299764803881e-10
-0.001235152455842896
6.911188854067472e-10
-0.001235152308514828
1.415599429348831e-09
-0.001235152684060852
3.049508826948598e-10
-0.001235153140730815
5.646786103681183e-10
-0.001235153305521707
1.123581892688053e-09
-0.001235153373899192
3.178602754553132e-10
-0.001235154193244268
9.283274045220263e-10
-0.001235153171435229
6.11328177316263e-09
-0.001235153859033524
-3.751489316779832e-09
-0.001235153657104357
1.519936729212308e-09
-0.001235154095756411
-9.587940145926908e-10
-0.001235153724657992
1.250079615052008e-09
-0.001235153899241846
-6.27438485843653e-10
-0.001235153783128081
3.204422509650421e-10
-0.001235153858738232
-1.466656034543066e-10
-0.001235153575557234
-6.485397771916972e-10
-0.001235153188796367
-6.402422927206251e-10
5.163265913190374e-09
-0.001297257281199442
7.266226683504181e-09
-0.00129725806440187
-1.559200622573109e-09
-0.001297257756069661
1.942901862703072e-09
-0.00129725783434939
-2.48516288616164e-10
-0.001297257661592892
4.394765265080574e-10
-0.001297257757043553
-9.819279419117549e-10
-0.001297257531153628
1.709205363129896e-09
-0.00129725745009525
4.429945408262116e-10
-0.001297257537368933
-1.180685816576275e-09
-0.001297256896954439
3.154934692872734e-10
-0.001297257389768896
-4.426686463279425e-09
-0.001297256957252174
-4.397273038801054e-10
-0.001297256780617356
-1.25851035517372e-09
-0.001297256664048463
-1.400669007012128e-09
-0.001297256577064295
-1.086745996933551e-09
-0.001297256566747583
-9.034251266845264e-10
-0.001297256521534184
-4.888983198999933e-11
-0.001297256638897512
7.655095760798556e-10
-0.001297256138484529
9.815997837011612e-10
-0.001297256480358209
-3.23662775658384e-09
-0.001297256026298827
3.180634658110016e-09
-0.001297256267853242
-1.307619809371618e-09
-0.001297256107141844
7.218202618764023e-10
-0.001297256228853411
-1.527073528294821e-09
-0.001297256122438227
1.831130030581362e-10
-0.001297256281964289
-1.06792446155684e-09
-0.001297256108484783
4.959210988079673e-10
-0.001297256276066029
-9.91302344283277e-10
-0.001297256107155885
8.515183579813411e-10
-0.001297256331452898
-2.483965563602877e-10
-0.001297255836292973
6.78906628790328e-10
-0.001297256371727818
-4.060408357972152e-09
-0.001297256204113224
2.390420402682285e-09
-0.001297256230376842
9.692655609536809e-10
-0.001297255645942084
1.894242443601489e-10
-0.001297256650904425
-5.080249871018018e-09
-0.001297256451777702
6.844538544008769e-09
-0.001297256212494488
-2.245440820678866e-09
-0.001297256209296691
-4.361956562318531e-10
-0.001297256672913921
-7.216134921370023e-10
-0.001297257023328337
9.896107224181978e-10
-0.001297256928397373
1.27777506009442e-09
-0.001297257174848989
5.273997959951579e-10
-0.001297257563403619
6.418359976632943e-10
-0.001297257687454453
1.243229905187938e-09
-0.001297257691550473
3.201343044646227e-10
-0.001297258533864473
6.512291326732292e-10
-0.001297257655727042
5.826033546022226e-09
-0.001297258262878372
-3.275037197213208e-09
-0.001297258014112342
1.387442764343191e-09
-0.001297258465407735
-1.001482001265977e-09
-0.001297258168261569
1.188247945194134e-09
-0.001297258334382837
-7.70804031893986e-10
-0.001297258272994336
2.693687504701504e-10
-0.001297258263478506
-6.95546062843337e-11
-0.001297257866938523
-9.407306874449233e-11
-0.001297257685860133
-2.158710107317357e-10
2.164878193009556e-09
-0.001369119160414666
5.600340231723058e-09
-0.001369118843996521
-1.667048041393758e-09
-0.001369118813688892
2.563144591808186e-09
-0.001369118927806088
-2.012516881953574e-10
-0.001369118735707099
2.376199962922988e-10
-0.001369118768116556
-1.228160993137663e-09
-0.001369118526622171
2.068862277344847e-09
-0.001369118535431897
7.472052386568179e-10
-0.001369118655555183
-1.42471988947248e-09
-0.001369118116339048
6.42744158383482e-10
-0.001369118501471581
-5.808333233340255e-09
-0.001369118014470428
-5.2461544999709e-10
-0.001369117934237713
-1.591248346274156e-09
-0.001369117824575119
-1.888940315526286e-09
-0.001369117746248607
-1.624781615818473e-09
-0.001369117721598552
-1.285824392908369e-09
-0.00136911765939562
-1.697901339774768e-10
-0.001369117762521011
9.177273345822894e-10
-0.001369117243511282
1.145943382954053e-09
-0.001369117608365916
-3.885276706786742e-09
-0.001369117227638487
4.030730020713486e-09
-0.001369117392410625
-1.617556024619999e-09
-0.001369117220976138
6.896258335596486e-10
-0.001369117330547273
-1.848844212570291e-09
-0.001369117261162015
1.937944527982784e-10
-0.001369117412823674
-1.304313235227344e-09
-0.001369117264884472
6.679382116295791e-10
-0.001369117411304686
-1.176329357286658e-09
-0.0013691172492778
1.117320452029672e-09
-0.001369117475007911
-3.609350989472971e-10
-0.001369117032233996
7.264726378954839e-10
-0.001369117574886829
-4.92033835422246e-09
-0.00136911733817127
3.128662213286869e-09
-0.001369117296607251
1.071047893975293e-09
-0.001369116884481036
2.105267497011602e-10
-0.001369117894491202
-5.43195573520974e-09
-0.001369117555200658
7.539695724846157e-09
-0.001369117239368711
-2.264811225174217e-09
-0.00136911737556673
-5.124637048002618e-10
-0.001369117794756276
-9.087184617053459e-10
-0.001369117987641244
1.042777329005654e-09
-0.001369117887232124
1.733975261002249e-09
-0.001369118290589048
3.986322810150735e-10
-0.00136911871267295
7.221222259497606e-10
-0.001369118879579607
1.531938148523177e-09
-0.001369118953423688
7.680582856503051e-10
-0.001369119605295194
8.514476697375e-10
-0.001369118774101956
7.570975372192432e-09
-0.001369119434226197
-4.196989233322663e-09
-0.001369119246664692
1.979554737931771e-09
-0.001369119629033788
-1.353969680453242e-09
-0.001369119298365983
1.698581127428678e-09
-0.001369119454858328
-8.281185783242417e-10
-0.001369119345473462
5.39451964190291e-10
-0.001369119437178092
3.733430451423745e-11
-0.001369119107755777
-5.752923178610447e-10
-0.001369118609659874
-1.735568543272605e-09
5.167776011007622e-09
-0.001466190456191861
6.649762601412556e-09
-0.001466191250049117
-5.76573638294365e-10
-0.001466190941955711
2.103688106492972e-09
-0.0014661909975925
-3.904772082832341e-10
-0.001466190825107775
4.051596826641632e-10
-0.001466190886669251
-1.448301093642624e-09
-0.001466190699540622
2.059011263910149e-09
-0.001466190615167416
5.530391405761391e-10
-0.00146619066394801
-1.58681414219409e-09
-0.001466190091888056
2.916297281210127e-10
-0.001466190530615027
-5.317024883954485e-09
-0.001466190117989836
-5.281269341313306e-10
-0.001466189944197724
-1.610931257549159e-09
-0.001466189829329305
-1.755215268714363e-09
-0.001466189750050639
-1.453125932972873e-09
-0.001466189739322907
-1.128457129027278e-09
-0.001466189677587105
-1.052037179248387e-10
-0.001466189775587467
8.974009220434826e-10
-0.00146618938479243
1.595677915258794e-09
-0.00146618965200593
-3.78668125472073e-09
-0.00146618919314314
3.577602265208862e-09
-0.00146618942456536
-1.575091440970554e-09
-0.001466189303254683
9.540773489730895e-10
-0.001466189410600471
-1.944710230047324e-09
-0.001466189317210985
2.341656741956778e-10
-0.001466189463434878
-1.347158615785491e-09
-0.001466189315074921
7.284582894005214e-10
-0.001466189459716458
-1.250357996231788e-09
-0.001466189298003919
1.155963140261727e-09
-0.001466189512129883
-4.665162213708509e-10
-0.001466189148466708
1.278097686518648e-09
-0.001466189580508549
-4.815822202737799e-09
-0.00146618936865977
2.686242667795347e-09
-0.001466189452826259
1.091026486166259e-09
-0.001466189048709867
8.056024210004082e-10
-0.00146618980491772
-5.564407524298891e-09
-0.001466189650272225
7.66371918216336e-09
-0.001466189477264039
-2.699200206215637e-09
-0.00146618948275241
-6.515107741172155e-10
-0.001466189913727174
-1.014769908495242e-09
-0.001466190244272081
1.364046426537435e-09
-0.001466190194953133
1.525566757919446e-09
-0.001466190454997174
5.557374620364414e-10
-0.001466190826515538
7.771801403616867e-10
-0.001466190958278641
1.596143286858386e-09
-0.001466190955325594
7.973256203768777e-10
-0.001466191671442282
4.487955750126263e-10
-0.001466190938287373
7.095925293796667e-09
-0.001466191526255531
-3.632402735650081e-09
-0.001466191282416779
1.822219545911104e-09
-0.0014661916932766
-1.396485605331667e-09
-0.001466191433613192
1.60296272178379e-09
-0.00146619158321623
-9.744895033179536e-10
-0.001466191534240129
4.800671735764205e-10
-0.001466191535631983
1.482489162020413e-10
-0.001466191108450789
1.016495630107276e-10
-0.001466190942636048
-1.33101959442899e-09
1.916236617005268e-09
-0.00161276387545304
4.567294711533608e-09
-0.001612763538774469
-1.010183504789825e-09
-0.001612763524432283
2.715352253456407e-09
-0.001612763631369981
-3.858994056771832e-10
-0.001612763418528181
1.594959777985544e-10
-0.00161276344896341
-1.517865137350989e-09
-0.001612763246832703
2.309177266705824e-09
-0.001612763251768231
8.111186847867837e-10
-0.001612763332245007
-1.844747863073841e-09
-0.001612762818007224
5.187538133717022e-10
-0.001612763175394789
-6.469631577200861e-09
-0.00161276266913687
-6.710027192050234e-10
-0.001612762598641704
-1.915876354668461e-09
-0.001612762482599612
-2.270880071659454e-09
-0.001612762408407394
-1.979355996444461e-09
-0.001612762376399715
-1.519844102062532e-09
-0.00161276229373228
-2.287520109464327e-10
-0.001612762382397034
1.032472190510492e-09
-0.001612761929815305
1.655338772734927e-09
-0.001612762227809363
-4.146954335560124e-09
-0.001612761826096177
4.175855598738742e-09
-0.001612762011470558
-1.784566097456012e-09
-0.001612761854513487
8.243134760829621e-10
-0.00161276195589017
-2.185436337902462e-09
-0.001612761905014662
2.289334547901686e-10
-0.001612762051250734
-1.529533552704165e-09
-0.001612761914243686
8.63441938982607e-10
-0.001612762046591931
-1.368983824680955e-09
-0.001612761886949738
1.363172911933977e-09
-0.001612762118946191
-5.559762348582892e-10
-0.00161276176866861
1.188459964675163e-09
-0.001612762229045922
-5.303856097558066e-09
-0.001612761934712547
3.228156641042593e-09
-0.001612761949549227
1.167382494539796e-09
-0.001612761684160272
7.6823196970401e-10
-0.001612762537987683
-5.421264970966187e-09
-0.001612762178299307
7.55100114995384e-09
-0.001612761889284665
-2.350297780044209e-09
-0.001612762103864697
-6.617605610847772e-10
-0.001612762517323647
-1.159866447312543e-09
-0.001612762691623209
1.304359835691005e-09
-0.001612762640425256
1.923783046015207e-09
-0.001612763096291674
4.756764006881622e-10
-0.001612763522218906
8.518851051501932e-10
-0.001612763702747316
1.871627068737783e-09
-0.001612763791019848
1.417011937605842e-09
-0.001612764362431186
6.904883250880681e-10
-0.001612763610467248
8.441355424826526e-09
-0.001612764290200029
-4.220032682381455e-09
-0.001612764080383231
2.401645176340825e-09
-0.001612764445813048
-1.688483738100515e-09
-0.001612764111385156
2.114281327926249e-09
-0.001612764263397171
-9.836803076024414e-10
-0.001612764143431697
7.635443369572096e-10
-0.001612764224113923
2.345027367929903e-10
-0.00161276384927843
-5.830422270106477e-10
-0.001612763264046605
-3.043983903910724e-09
5.64333600154048e-09
-0.001840743378175601
5.426785943941626e-09
-0.001840744236838032
-9.52720732734512e-11
-0.00184074392846758
2.185155237945123e-09
-0.00184074399964072
-5.916850334795419e-10
-0.001840743807802959
2.570671696064759e-10
-0.001840743851158831
-1.70065428920228e-09
-0.001840743677358066
2.186593670581557e-09
-0.001840743598935011
5.856596596014373e-10
-0.001840743625245079
-1.991089082799944e-09
-0.001840743014655155
1.992891551444389e-10
-0.001840743475785876
-5.892348099384622e-09
-0.001840742996003661
-6.303389015366003e-10
-0.001840742804303785
-1.873605483756617e-09
-0.001840742668289778
-2.080113506397173e-09
-0.001840742584703008
-1.751098482427251e-09
-0.001840742560576668
-1.311988596894616e-09
-0.001840742469875768
-1.386247240382019e-10
-0.001840742534703486
1.01283853600863e-09
-0.001840742162732061
2.063198153117143e-09
-0.001840742426062728
-3.954724938124709e-09
-0.001840741893767199
3.692839292384996e-09
-0.001840742146669648
-1.720478883354815e-09
-0.001840742044286652
1.055171577159425e-09
-0.001840742161342843
-2.230387617983425e-09
-0.001840742071501926
2.596776982471288e-10
-0.001840742224314048
-1.538556310547993e-09
-0.001840742062955527
8.99895249230287e-10
-0.001840742207408139
-1.408550603605899e-09
-0.001840742028524096
1.371451259400617e-09
-0.001840742257192237
-6.579305974562507e-10
-0.001840741956934887
1.703077552616901e-09
-0.001840742389176267
-5.087540921289177e-09
-0.001840742075473991
2.780915271224118e-09
-0.001840742197185359
1.122354875903212e-09
-0.001840741914382819
1.360392609918087e-09
-0.001840742582093413
-5.385455967553007e-09
-0.001840742437367775
7.544024328755446e-09
-0.001840742275661351
-2.724292502469773e-09
-0.001840742327156628
-7.88225373959561e-10
-0.001840742794911828
-1.260806340884143e-09
-0.001840743143438283
1.582684040408378e-09
-0.001840743141181337
1.682400813648574e-09
-0.001840743498911008
5.54935937362478e-10
-0.001840743926630779
8.82959313214677e-10
-0.001840744089967876
1.884290429516758e-09
-0.001840744095472092
1.474159192029979e-09
-0.00184074479850973
2.883798957392989e-10
-0.001840744051000417
7.854569267237053e-09
-0.001840744732730435
-3.654277357115904e-09
-0.001840744445836559
2.253405956721959e-09
-0.00184074488032377
-1.687271089759019e-09
-0.001840744581348847
1.998986466019608e-09
-0.001840744738766169
-1.093652908013709e-09
-0.001840744664334975
7.101957539551161e-10
-0.001840744646418877
3.473836543257322e-10
-0.001840744161476319
4.79109004023704e-11
-0.001840744001894732
-2.759476140430417e-09
2.602554077972541e-09
-0.002183960603031459
3.145260504254256e-09
-0.002183960323838175
-8.764609991170926e-10
-0.00218396028036049
2.57704552374707e-09
-0.002183960432942057
-5.881212830168459e-10
-0.002183960165538347
2.0500835411742e-11
-0.002183960212478115
-1.500021535171261e-09
-0.002183960013740012
2.198882476658586e-09
-0.002183960007329083
7.737701527808049e-10
-0.002183960080380368
-2.21300532885334e-09
-0.002183959457750951
2.180142164772336e-10
-0.002183959892559087
-6.771465722658544e-09
-0.002183959234070457
-9.501160505778227e-10
-0.002183959121207622
-2.214036194235148e-09
-0.002183958967760615
-2.550680590471182e-09
-0.002183958873850789
-2.300411642136329e-09
-0.00218395881128147
-1.65096308867297e-09
-0.002183958687583297
-2.936597406833957e-10
-0.00218395873592609
1.089576172478633e-09
-0.002183958243829795
1.919976194346653e-09
-0.002183958562861299
-3.964697596348246e-09
-0.002183958037494455
3.975278520485361e-09
-0.002183958283129685
-1.745433344813893e-09
-0.002183958132236056
7.783711443071107e-10
-0.002183958259513188
-2.312882073780984e-09
-0.002183958207361913
2.054489209911859e-10
-0.002183958372929794
-1.610168663017568e-09
-0.002183958198842252
9.268303565092346e-10
-0.002183958347818789
-1.412959885055004e-09
-0.002183958157440731
1.460840771094672e-09
-0.002183958433167926
-6.684551605803153e-10
-0.00218395810463206
1.441551575679281e-09
-0.002183958598320881
-5.104862239319529e-09
-0.002183958168356122
3.096838699934834e-09
-0.002183958243125274
1.168923738526535e-09
-0.002183958065733501
1.243676264162734e-09
-0.002183958922867528
-4.699532980785985e-09
-0.002183958550014207
6.627865152676835e-09
-0.002183958218342439
-2.103530048325327e-09
-0.002183958537545323
-6.76711596225776e-10
-0.002183959040644791
-1.261283647525408e-09
-0.002183959255330217
1.456872310730026e-09
-0.002183959263125194
2.086906517388461e-09
-0.002183959905953832
6.711623115376698e-10
-0.00218396045098919
1.062027282666265e-09
-0.002183960680053995
2.195093406196297e-09
-0.002183960778029356
2.166235607501822e-09
-0.002183961419101807
6.331525120015441e-10
-0.002183960565481686
8.706234364992791e-09
-0.002183961426063175
-3.80006050473091e-09
-0.002183961124317155
2.649945774051028e-09
-0.002183961554280237
-1.802361109349536e-09
-0.002183961117266256
2.316754544819707e-09
-0.002183961291227246
-1.00770932068333e-09
-0.002183961111048843
8.963460314275675e-10
-0.002183961138681922
3.577099156825311e-10
-0.002183960671264661
-6.930489075679929e-10
-0.002183960018937254
-4.202339689554258e-09
6.74960763856759e-09
-0.002667517829109305
3.599584821435484e-09
-0.002667518808503179
-3.310308232725016e-10
-0.002667518515023881
1.980513732472118e-09
-0.002667518680153027
-7.91448347130853e-10
-0.002667518426309625
1.660387227070658e-11
-0.002667518448779484
-1.506695056175906e-09
-0.00266751826364392
1.88239340536568e-09
-0.002667518197500933
5.110026808324499e-10
-0.002667518222896056
-2.348727527083447e-09
-0.002667517427076793
-1.20935103924431e-10
-0.002667518000011529
-6.17924996668918e-09
-0.002667517300299565
-1.00595941580593e-09
-0.002667517042345397
-2.165613433996203e-09
-0.002667516837518391
-2.371991241054606e-09
-0.002667516721157
-2.088318945580673e-09
-0.002667516653853208
-1.428430612394223e-09
-0.002667516502014425
-1.968822561774477e-10
-0.002667516492647973
1.077680295220639e-09
-0.002667516027658632
2.093400546697046e-09
-0.00266751636534806
-3.60884521534578e-09
-0.002667515650985329
3.470326544517597e-09
-0.002667515956908153
-1.602597564943724e-09
-0.002667515863730265
8.665687456170129e-10
-0.002667516029579376
-2.24589719482992e-09