/*--------------------------------*- C++ -*----------------------------------*\
| =========                 |                                                 |
| \\      /  F ield         | OpenFOAM: The Open Source CFD Toolbox           |
|  \\    /   O peration     | Version:  v1812                                 |
|   \\  /    A nd           | Web:      www.OpenFOAM.com                      |
|    \\/     M anipulation  |                                                 |
\*---------------------------------------------------------------------------*/
FoamFile
{
    version     2.0;
    format      ascii;
    class       volVectorField;
    location    "10000";
    object      U;
}
// * * * * * * * * * * * * * * * * * * * * * * * * * * * * * * * * * * * * * //

dimensions      [0 1 -1 0 0 0 0];


internalField   nonuniform List<vector> 
3770
(
(-1.036510721214219 -1.806225150341645e-07 9.351124542564127e-07)
(-1.036493010800264 -8.459274953471094e-09 9.351048768846059e-07)
(-1.036494655656227 -1.143336674804336e-09 9.35080033674876e-07)
(-1.036494906650382 4.145101142598849e-10 9.351045171709567e-07)
(-1.036494550290529 4.499308018356043e-10 9.350809331056465e-07)
(-1.0364945203261 3.757950809615972e-09 9.351024410814933e-07)
(-1.036494874191808 1.922944999703424e-09 9.350820834356457e-07)
(-1.036494665539457 -1.31086963923849e-09 9.351012628264106e-07)
(-1.036494695141834 -9.798073118816233e-10 9.350821990128396e-07)
(-1.036494879643149 -2.421712130607194e-09 9.351006525826336e-07)
(-1.03649420349003 -7.548661588993938e-09 9.35081403851107e-07)
(-1.036494549564745 2.770980070473083e-09 9.350999247138232e-07)
(-1.036494439922444 -4.345335622309759e-10 9.350817826969812e-07)
(-1.036494390749752 -4.783450149569932e-11 9.350990146137847e-07)
(-1.03649436425605 1.923028383690063e-09 9.350818295633869e-07)
(-1.036494404645382 1.681590713670987e-09 9.350981434301659e-07)
(-1.036494544069727 1.810939101316231e-09 9.350821217717548e-07)
(-1.036494734452177 7.359761227145151e-10 9.350977333911122e-07)
(-1.036494998511563 -3.966452944288621e-09 9.350828044548076e-07)
(-1.03649331327231 6.819591568266192e-09 9.350950461744042e-07)
(-1.036495575587244 -1.408358463260701e-10 9.350836406507423e-07)
(-1.03649430820589 -2.728242977005959e-09 9.350956864570094e-07)
(-1.036494727133081 5.112522052611737e-10 9.350825053022912e-07)
(-1.036494152030899 5.423009161759354e-10 9.350948723793788e-07)
(-1.036494582802475 1.645294277731407e-09 9.350822505217914e-07)
(-1.036494322289817 -5.654050864811913e-10 9.350944844233868e-07)
(-1.036494640754893 9.577052018081567e-11 9.350823876388847e-07)
(-1.036494351314843 -6.067571098570579e-10 9.350938931060756e-07)
(-1.036494679452738 -2.580328967822979e-10 9.350823734342176e-07)
(-1.036494496588903 1.252844035850635e-11 9.350934370749993e-07)
(-1.036494781290207 -1.492978450667336e-09 9.350822946584621e-07)
(-1.036493284839988 6.829556519279037e-09 9.350910074184398e-07)
(-1.036495409233936 -4.240709174214118e-09 9.350832532803567e-07)
(-1.036494544894626 2.850345484760958e-09 9.350922206842539e-07)
(-1.036494493602396 3.704035319355037e-09 9.350811979518549e-07)
(-1.03649338794314 1.132984063910748e-09 9.350893283975764e-07)
(-1.0364966307265 -2.78881271320241e-08 9.350846665125257e-07)
(-1.036493589600191 1.143683889798881e-08 9.350898176048821e-07)
(-1.036494242780636 2.033215736077952e-09 9.350804415106609e-07)
(-1.036494342994108 -2.769901602909998e-09 9.350900290911546e-07)
(-1.036494573074897 -3.59532504026497e-09 9.350809635688941e-07)
(-1.036494282198709 2.950575820519467e-09 9.350896691905133e-07)
(-1.036493968054084 1.177922758755066e-08 9.350797015921413e-07)
(-1.036494408970553 -2.011933743920591e-09 9.350887316752881e-07)
(-1.036494448313383 2.379587587520518e-09 9.350801282961969e-07)
(-1.036494524541909 -8.948009702706535e-10 9.350880576430957e-07)
(-1.036494848261234 -3.863546093477692e-09 9.350804260766729e-07)
(-1.036495566665329 -1.605849898669594e-09 9.350893182855266e-07)
(-1.036493732539208 5.908015823165329e-09 9.350785513913186e-07)
(-1.036494904541313 -1.452406003671367e-09 9.350875670691758e-07)
(-1.036494805024047 -1.747378283927882e-09 9.350800456916681e-07)
(-1.036494901177432 -1.366269204060378e-09 9.350869474666452e-07)
(-1.036494769213144 -4.659471846595989e-09 9.350794911415433e-07)
(-1.036494789020776 -7.779805708489876e-09 9.350859799124057e-07)
(-1.036494499793647 -1.073402237709506e-08 9.350789516831001e-07)
(-1.036493983980966 -1.175254926097227e-08 9.35085305089165e-07)
(-1.036493023507975 -8.528802889018822e-09 9.350772181370758e-07)
(-1.036492841916495 2.060952962667583e-08 9.350815918793278e-07)
(-1.106222294900834 -1.424409488136634e-07 2.784247666812998e-06)
(-1.106222176754668 -2.071900683234327e-08 2.784286620076877e-06)
(-1.106221093827112 -6.988801035623944e-09 2.784213587420254e-06)
(-1.106221617312158 -5.85390822615869e-09 2.784282963153065e-06)
(-1.106221165459181 -7.170397590881676e-10 2.784215045608653e-06)
(-1.106221090712201 3.664217447393061e-09 2.784277690473973e-06)
(-1.106221423340868 4.064713271661092e-09 2.784217751669032e-06)
(-1.106221250849643 -1.719313094111152e-09 2.784274363629834e-06)
(-1.10622116984535 -8.791641555518861e-09 2.784217974609567e-06)
(-1.106221210254186 -8.840799540001384e-10 2.78427207618654e-06)
(-1.106220794487866 -1.33619478981783e-08 2.784216550662571e-06)
(-1.106221098295878 -4.805683491675379e-09 2.784270528137976e-06)
(-1.106220852430017 1.002542295380525e-09 2.784217007887397e-06)
(-1.106220861042673 -5.263434505117149e-10 2.784267867610105e-06)
(-1.106220768300622 3.266788962093271e-09 2.784217202971167e-06)
(-1.106220793414346 3.660106559451418e-09 2.784265276433784e-06)
(-1.106220884617651 3.974510307506974e-09 2.784217834977283e-06)
(-1.106221058740722 3.851661941648594e-09 2.784263427603488e-06)
(-1.106221411482657 -5.322205817715624e-10 2.784219455584512e-06)
(-1.106220111610534 9.66005814769146e-10 2.784258570962308e-06)
(-1.106221371419612 4.158530181024414e-09 2.784219604602909e-06)
(-1.106220846994795 7.777854883954045e-10 2.784258374038106e-06)
(-1.106221066703926 1.208624261082621e-09 2.784218606333597e-06)
(-1.10622063468062 -9.150082021904255e-10 2.784256130131862e-06)
(-1.106220918999716 3.242418027231548e-09 2.784218041273371e-06)
(-1.106220722311026 -1.653752725492201e-09 2.784254543273746e-06)
(-1.106220971617977 1.352928764724187e-10 2.784218332311088e-06)
(-1.1062207187932 -1.722168887500554e-09 2.784252755681968e-06)
(-1.106221007395184 -9.540154970846629e-10 2.784218216091545e-06)
(-1.106220860291153 8.897652220842011e-10 2.784251109154066e-06)
(-1.106221176444413 3.940945777862744e-10 2.784218178836518e-06)
(-1.106219874409155 7.853744901159292e-09 2.784246350193463e-06)
(-1.106221345452591 -9.236189030158067e-09 2.784218645186002e-06)
(-1.106221061069092 8.097611642936055e-09 2.784247891065478e-06)
(-1.106220841733433 6.509446292902453e-09 2.784215608334857e-06)
(-1.106219714819738 6.611925339257433e-09 2.784241010746331e-06)
(-1.106222744255231 -5.147362671605766e-08 2.784220886957355e-06)
(-1.10622040968328 1.239340130767108e-08 2.784242583539308e-06)
(-1.10622047527229 1.11714894526504e-09 2.784213089983499e-06)
(-1.106220800885579 -3.679734063424499e-09 2.784241151367328e-06)
(-1.106221025126288 -5.456602752611439e-09 2.784214057067176e-06)
(-1.106221064357163 -1.028004710671008e-09 2.78424064335204e-06)
(-1.106220458464313 2.114442248641816e-08 2.784211595905122e-06)
(-1.106220826883797 -1.393928082101352e-09 2.784237254230693e-06)
(-1.106220878931963 4.530361901734253e-09 2.784211877102161e-06)
(-1.106220858733781 3.97651084036746e-10 2.784235056473908e-06)
(-1.106221148341206 -6.409688052083186e-09 2.784211665999496e-06)
(-1.106222092190978 3.680657659296351e-09 2.78423707446552e-06)
(-1.106220546633753 1.259838434141592e-08 2.78420920197228e-06)
(-1.106221389123013 -2.628479128362199e-09 2.784233098862714e-06)
(-1.106221405590144 3.59610304939817e-10 2.784211320006974e-06)
(-1.106221595465193 -1.017105926316245e-09 2.784231846548793e-06)
(-1.106221474263687 -5.948406086943808e-09 2.784209999903102e-06)
(-1.106221628076169 -1.223109762753593e-08 2.784229083784369e-06)
(-1.106221477099983 -1.381650132654519e-08 2.784208216871071e-06)
(-1.106221048615343 -1.753531762828624e-08 2.784226769243548e-06)
(-1.106219842181724 -1.564274663075468e-08 2.784204619563296e-06)
(-1.106218275182166 3.042847432278133e-08 2.784220000076101e-06)
(-1.173697602569361 -1.140938799084637e-07 4.636418868663407e-06)
(-1.173697004391604 -5.222031213029738e-08 4.636471315402377e-06)
(-1.173696108251301 3.754385452431135e-09 4.636363225342024e-06)
(-1.173696591788614 -1.685842021410135e-08 4.636470865086129e-06)
(-1.173696196143188 8.83663968312719e-10 4.636363299703817e-06)
(-1.173696090170675 1.91762964115072e-09 4.636463949958092e-06)
(-1.173696259648477 4.138534865679886e-09 4.636366393984547e-06)
(-1.173696138576992 -2.762392770542565e-09 4.636458738829829e-06)
(-1.173696130591912 -1.636224850406625e-08 4.636366966453852e-06)
(-1.173696119914734 -1.990397467754895e-09 4.636455418419623e-06)
(-1.17369582189151 -2.119451171652724e-08 4.636365049314712e-06)
(-1.173695944637627 -7.984342723714561e-09 4.636452344824331e-06)
(-1.173695755650401 8.541279700699386e-11 4.636365408260653e-06)
(-1.173695798856247 -9.660303004990223e-10 4.636448495583683e-06)
(-1.173695676000652 3.873283548364054e-09 4.636365719786937e-06)
(-1.173695706230214 4.16408389972097e-09 4.636444304430449e-06)
(-1.173695748797851 4.480335079067535e-09 4.636366746384757e-06)
(-1.173695905082497 6.252196334140311e-09 4.636441061127066e-06)
(-1.173696265534631 2.190087527864427e-09 4.636369052239466e-06)
(-1.173694976200735 -2.444947617758066e-09 4.636433311194883e-06)
(-1.173696241909652 5.404013006587838e-09 4.63636973474598e-06)
(-1.173695698971512 3.317560768310617e-09 4.636432817441139e-06)
(-1.173695910376019 2.417749762301001e-09 4.63636774179763e-06)
(-1.173695457119654 -2.322813001571473e-09 4.63642912422238e-06)
(-1.173695750542857 4.585699180584626e-09 4.636366859780618e-06)
(-1.173695561041527 -3.328488997062965e-09 4.636426580154309e-06)
(-1.1736958009372 -2.507932909049857e-10 4.636367295803084e-06)
(-1.173695560087572 -3.747296738804912e-09 4.636423730290883e-06)
(-1.173695812697947 -1.610779592332308e-09 4.636367025589346e-06)
(-1.173695678600643 1.365698186793985e-09 4.636420897857204e-06)
(-1.173696000084931 1.678663728229941e-09 4.636366891026952e-06)
(-1.173694774013673 8.314164001031334e-09 4.636413737665233e-06)
(-1.173696198244615 -1.402438348533674e-08 4.636367809524777e-06)
(-1.173695797973937 1.447674090009458e-08 4.636415081233141e-06)
(-1.173695650957534 7.647924943872913e-09 4.636362859542194e-06)
(-1.173694606828793 5.479316499285829e-09 4.636405481535456e-06)
(-1.173697554502369 -6.966353636329316e-08 4.636370426923547e-06)
(-1.173695266429024 2.198247563153801e-08 4.636406407772822e-06)
(-1.173695284461176 -2.98102968870168e-09 4.636358873882079e-06)
(-1.173695676265221 -4.122369852968498e-09 4.636404506217572e-06)
(-1.173695878757669 -4.613908112666055e-09 4.636359861218003e-06)
(-1.173695851931813 1.569336682783375e-09 4.636402694865774e-06)
(-1.17369532208993 3.117836229620139e-08 4.636356007736027e-06)
(-1.173695792248292 -1.274901492931518e-09 4.636398157426767e-06)
(-1.173695843360921 8.753261830405614e-09 4.636356487967437e-06)
(-1.173695930106105 4.90104708709096e-10 4.636394921446954e-06)
(-1.173696162972339 -7.642851329197512e-09 4.636356239306091e-06)
(-1.173697020582746 1.358489155769929e-08 4.63639667710131e-06)
(-1.173695659500039 1.75113345230087e-08 4.636352476473453e-06)
(-1.173696435937718 -3.922045931790191e-09 4.636391140761797e-06)
(-1.173696541076022 8.737831212582146e-10 4.63635569826209e-06)
(-1.173696624875485 -4.849758437032996e-10 4.636388875477571e-06)
(-1.173696579012571 -9.756621547365913e-09 4.636353619158061e-06)
(-1.17369668038696 -1.560374790661186e-08 4.636384719221864e-06)
(-1.173696650083089 -1.405679200417163e-08 4.636350970839088e-06)
(-1.173696490190991 -1.304592689821873e-08 4.636382043317341e-06)
(-1.173695372488289 -1.508306482470345e-09 4.636346671925362e-06)
(-1.173693445486393 6.030175723864446e-08 4.636377073573821e-06)
(-1.237600040235324 -9.726055079792957e-08 6.452589590674127e-06)
(-1.23760154414263 -7.527844556885931e-08 6.452666981209142e-06)
(-1.23760045016823 1.420605570763021e-08 6.452526805666829e-06)
(-1.23760071442693 -3.002320553317328e-08 6.452666495685525e-06)
(-1.237600360469419 3.432192266694592e-09 6.45252442383611e-06)
(-1.237600228230681 -1.586072924319084e-09 6.45265869347614e-06)
(-1.237600494510333 1.721947567683003e-09 6.452528245846197e-06)
(-1.237600308908035 -4.659027335668687e-09 6.452652571669915e-06)
(-1.237600176004464 -2.376896198316938e-08 6.452527717256358e-06)
(-1.237600159455371 -4.824901572171869e-09 6.452647564582535e-06)
(-1.237599808988698 -2.579594523027981e-08 6.452525091085212e-06)
(-1.23760012941053 -1.044304437366123e-08 6.452643888414248e-06)
(-1.237599800046667 -1.030813449517778e-09 6.452525874929999e-06)
(-1.237599844813779 -3.886320629885558e-10 6.452637996565495e-06)
(-1.237599712185202 5.069428684719167e-09 6.452526217688331e-06)
(-1.237599750435948 4.766454528222275e-09 6.452632353265678e-06)
(-1.237599800307378 4.330722928430608e-09 6.452527783954332e-06)
(-1.23759993218338 8.045428691788569e-09 6.452627884436688e-06)
(-1.237600328795541 5.331941629200753e-09 6.452530791403787e-06)
(-1.237599237794219 -4.875210880898322e-09 6.452618796408346e-06)
(-1.237600083384275 4.30492129090299e-09 6.45253055188718e-06)
(-1.237599739489017 6.071528006354274e-09 6.452616949889444e-06)
(-1.237599976609863 4.179618709988186e-09 6.452528960832097e-06)
(-1.237599542289397 -3.814002922669958e-09 6.452612159516667e-06)
(-1.237599812395449 5.578798289631591e-09 6.452527784625423e-06)
(-1.237599599791654 -4.91069596249357e-09 6.452608401368177e-06)
(-1.237599862198212 -9.00901840529104e-10 6.452528282840128e-06)
(-1.237599588095251 -5.815516781675719e-09 6.452604507112912e-06)
(-1.237599880704314 -2.592508069369761e-09 6.452527921829569e-06)
(-1.237599702253221 1.717810438925036e-09 6.452600604982274e-06)
(-1.237600077290292 3.463274692942363e-09 6.452527666657335e-06)
(-1.237598950993747 9.136284428110414e-09 6.452591919667847e-06)
(-1.237600045327863 -1.892311933224376e-08 6.452527539676446e-06)
(-1.237599957694643 2.016937414863249e-08 6.452593228138569e-06)
(-1.237599797737885 8.126087151744501e-09 6.452522567937246e-06)
(-1.237598812458329 2.054926533073514e-09 6.452581139541214e-06)
(-1.237601281064432 -8.106750630235365e-08 6.452529850921342e-06)
(-1.237599584504989 3.190125039159673e-08 6.452581895532882e-06)
(-1.237599398246044 -8.173481610579934e-09 6.45251700458471e-06)
(-1.237599810965675 -3.902599123792843e-09 6.45257856858746e-06)
(-1.237600040088756 -1.788222627168531e-09 6.452518097165077e-06)
(-1.237600186777085 5.128966269811871e-09 6.452576663009008e-06)
(-1.237599610767811 3.976610178623655e-08 6.452513507098841e-06)
(-1.237599954592311 -6.514891924305372e-10 6.452569708390355e-06)
(-1.237600023668153 1.349605444289929e-08 6.45251327137847e-06)
(-1.237600045615725 7.504747162431331e-10 6.452564932264233e-06)
(-1.237600254137335 -8.288076078773792e-09 6.452512295602539e-06)
(-1.237601216565764 2.26754345401511e-08 6.45256702551236e-06)
(-1.237599951521234 2.284969666467605e-08 6.452508138835496e-06)
(-1.23760063874722 -5.848998325126304e-09 6.452559769671541e-06)
(-1.23760065078364 1.395365952485489e-09 6.45251117494793e-06)
(-1.237600903165445 -1.339295638133322e-09 6.452557022236582e-06)
(-1.237600760220952 -1.466457165310796e-08 6.452508941224561e-06)
(-1.237600962460276 -1.917050208771118e-08 6.452551910470099e-06)
(-1.237600919429762 -1.217763012791172e-08 6.452506262404969e-06)
(-1.237600680286203 -2.409177162704149e-09 6.452547770178307e-06)
(-1.237599555558169 1.913236598200121e-08 6.452500073084543e-06)
(-1.237597999641874 7.236024574947426e-08 6.452547478943724e-06)
(-1.296831179655262 -1.007047471921823e-07 8.196034863068816e-06)
(-1.296830161465551 -8.484753053872011e-08 8.196113016924767e-06)
(-1.2968295835809 1.987861898094502e-08 8.1959471970475e-06)
(-1.296829871255588 -4.256785448214281e-08 8.196116313476172e-06)
(-1.296829548546725 5.117295670788182e-09 8.195944237547304e-06)
(-1.296829381270968 -5.320850152627486e-09 8.196107472371808e-06)
(-1.29682952148724 -5.75513323613975e-10 8.195947430657867e-06)
(-1.296829381775803 -6.183500769935749e-09 8.196099905373121e-06)
(-1.296829381711057 -3.158981432577019e-08 8.195947800635124e-06)
(-1.296829310670413 -7.807266725562469e-09 8.196094202207303e-06)
(-1.296829129761476 -3.196684067573249e-08 8.195945694374109e-06)
(-1.296829148192773 -1.16894608617896e-08 8.196088504952344e-06)
(-1.296828984492994 -3.117161171352868e-09 8.195945792594601e-06)
(-1.296829030890919 -2.930790916113067e-10 8.196082307050772e-06)
(-1.296828903623198 5.194406664640678e-09 8.195946224500179e-06)
(-1.296828946778892 4.658798573722164e-09 8.196075454274191e-06)
(-1.296828968302432 3.464664224136197e-09 8.195948000173301e-06)
(-1.296829078468151 9.434061089273277e-09 8.196069664108664e-06)
(-1.296829455605238 8.279644303595575e-09 8.195951314243515e-06)
(-1.296828343343834 -6.618215178900188e-09 8.19605845056747e-06)
(-1.296829334120907 3.183007540375071e-09 8.195951590424367e-06)
(-1.296828867293469 7.935894582582415e-09 8.196056361549394e-06)
(-1.296829120612224 5.842979189189361e-09 8.195948952424321e-06)
(-1.2968286519898 -5.401529912357339e-09 8.196050280141064e-06)
(-1.296828954413038 6.225204360073535e-09 8.195947493602147e-06)
(-1.296828751795526 -6.742481639032788e-09 8.196045830610177e-06)
(-1.29682900907058 -1.28521989722313e-09 8.195947945861466e-06)
(-1.296828767738318 -8.170261700082929e-09 8.196041254922122e-06)
(-1.296829011399698 -3.218155029809963e-09 8.195947319513973e-06)
(-1.296828860178386 1.554303586378573e-09 8.19603628637037e-06)
(-1.296829212400497 5.157216115214609e-09 8.195946920539782e-06)
(-1.29682820476974 9.529574830745288e-09 8.196026403536639e-06)
(-1.296829283081854 -2.241383029885317e-08 8.19594713426319e-06)
(-1.296828981679859 2.538264586941117e-08 8.196026252474438e-06)
(-1.296828938787277 8.564556830541163e-09 8.195940609565029e-06)
(-1.296828167570026 -1.654699401889935e-09 8.196013964250924e-06)
(-1.296830442598094 -8.94700371662503e-08 8.195949006606011e-06)
(-1.296828602278628 4.217853294714034e-08 8.196012011388736e-06)
(-1.296828593126732 -1.226043132288251e-08 8.19593398587751e-06)
(-1.296828997334488 -3.511287296609355e-09 8.196009062825535e-06)
(-1.296829172993437 2.342673138857459e-09 8.195934612469179e-06)
(-1.296829127669705 1.065569030923735e-08 8.196004759083538e-06)
(-1.296828748355738 4.742472990266215e-08 8.195928964021474e-06)
(-1.296829202671261 6.410533623808897e-10 8.19599821809699e-06)
(-1.296829243769962 1.864096303374621e-08 8.195928928639126e-06)
(-1.29682940403428 1.823797729846469e-09 8.195992949748481e-06)
(-1.296829582667729 -8.673308503879677e-09 8.195928168880618e-06)
(-1.296830251430264 3.333127432166577e-08 8.195992908792712e-06)
(-1.296829286436437 2.619752642450943e-08 8.195923007712842e-06)
(-1.296829882128032 -6.363896456210887e-09 8.195985316560991e-06)
(-1.296830015300239 1.505034334273344e-10 8.195926427408617e-06)
(-1.296830061304106 -1.599764879334571e-09 8.195981240059346e-06)
(-1.296830051700456 -2.06494873630399e-08 8.195923235904732e-06)
(-1.296830122729806 -2.27437740760796e-08 8.195975277927281e-06)
(-1.29683014562823 -1.062100235242268e-08 8.195919852074736e-06)
(-1.296830088617548 6.819996281290585e-09 8.19597168967212e-06)
(-1.296828977056508 3.582122240293848e-08 8.195913035146436e-06)
(-1.296827098915902 7.979440129689683e-08 8.195971611189996e-06)
(-1.350407144114099 -1.076732060509564e-07 9.830187419548955e-06)
(-1.350408553285206 -8.789344147358429e-08 9.830298130678543e-06)
(-1.350407597384684 1.922440037767403e-08 9.83010285728899e-06)
(-1.350407710748609 -5.353222142123577e-08 9.830296840566666e-06)
(-1.350407434381303 5.917550824842803e-09 9.830099315699123e-06)
(-1.350407242115638 -9.676606374505233e-09 9.83028655977888e-06)
(-1.350407512726408 -3.43060043124169e-09 9.830103865059896e-06)
(-1.350407319472311 -8.507879020605572e-09 9.830278340938176e-06)
(-1.350407161443538 -3.880715805751363e-08 9.830102906093939e-06)
(-1.350407123858055 -1.110067428861958e-08 9.830270539804877e-06)
(-1.350406845469558 -3.648900300777782e-08 9.830100482327829e-06)
(-1.350407120533631 -1.273989636081189e-08 9.830264738411454e-06)
(-1.350406796754611 -4.751632012233608e-09 9.830101292656387e-06)
(-1.350406836590106 4.381990318468201e-10 9.830256306050789e-06)
(-1.35040670880741 6.043286835398958e-09 9.830101681868885e-06)
(-1.350406754527864 5.164132056663051e-09 9.830248445546029e-06)
(-1.350406803248016 2.6375292187167e-09 9.830103832076161e-06)
(-1.350406878166575 1.033001614890107e-08 9.830241766650566e-06)
(-1.350407282748398 1.09368851512604e-08 9.830107502238967e-06)
(-1.350406398062116 -7.552591912711124e-09 9.830230900866738e-06)
(-1.350406981788956 1.538778099090131e-09 9.830106157742411e-06)
(-1.350406699409637 9.41691379296674e-09 9.830226931062108e-06)
(-1.350406964516128 7.768304642137272e-09 9.830104529478808e-06)
(-1.350406556531945 -6.747781059383677e-09 9.830220356820872e-06)
(-1.350406810430524 6.69788057605422e-09 9.83010287251787e-06)
(-1.350406597533662 -8.204700719391686e-09 9.830214742065453e-06)
(-1.350406865497197 -1.502596035332631e-09 9.83010314344255e-06)
(-1.350406605161346 -1.023370364235433e-08 9.830209445942998e-06)
(-1.350406883678496 -3.911517593514369e-09 9.83010241830223e-06)
(-1.350406687686328 1.133862511414247e-09 9.830203629783451e-06)
(-1.350407087671978 7.077648372872897e-09 9.830101882538148e-06)
(-1.350406187159855 1.057396952567281e-08 9.830193509698609e-06)
(-1.350406953808465 -2.551689836216306e-08 9.830100326577608e-06)
(-1.350406953530347 2.900113538055616e-08 9.830193086361464e-06)
(-1.350406913533148 9.308427148987633e-09 9.830095251490215e-06)
(-1.350406176821191 -4.879509810502566e-09 9.830179541744211e-06)
(-1.350407946369844 -9.417880744636503e-08 9.830100943626758e-06)
(-1.350406758185312 4.948531143223265e-08 9.830177874729036e-06)
(-1.350406523081009 -1.428965643832011e-08 9.830087035316914e-06)
(-1.350406922482233 -2.929666144604752e-09 9.830172822641137e-06)
(-1.350407126840271 7.285132686241514e-09 9.830087772727153e-06)
(-1.350407276389469 1.517813585195169e-08 9.830169245930683e-06)
(-1.350406810266247 5.407388608924898e-08 9.830081988070806e-06)
(-1.350407124410307 2.802975149701365e-09 9.830160103885735e-06)
(-1.350407175087013 2.331135120518549e-08 9.83008083070761e-06)
(-1.350407241822224 3.442331414658345e-09 9.830153365642047e-06)
(-1.350407374556011 -9.201134004485622e-09 9.83007869699862e-06)
(-1.350408182653928 4.151445704633446e-08 9.830153603449578e-06)
(-1.350407241412582 2.958287991158823e-08 9.830073837133025e-06)
(-1.350407793009272 -6.708308676332686e-09 9.830144560125723e-06)
(-1.350407780179213 -1.401041981086622e-09 9.830075803705439e-06)
(-1.350408049999751 -2.740045587426192e-09 9.830140117827437e-06)
(-1.350407919442586 -2.704939173972801e-08 9.830072628687394e-06)
(-1.350408116942633 -2.731403737925741e-08 9.83013318457062e-06)
(-1.350408105001356 -1.013197175683195e-08 9.830069250788867e-06)
(-1.350407913095984 1.465670538173378e-08 9.830127204588577e-06)
(-1.350406733788529 5.119001831028048e-08 9.830058757028379e-06)
(-1.350405497687416 7.356605596534012e-08 9.83013129524523e-06)
(-1.397932906381253 -1.279515221501778e-07 1.133328008610036e-05)
(-1.397931636424865 -8.687175006630364e-08 1.133338488401713e-05)
(-1.397931164232158 1.573940459451911e-08 1.133316975713876e-05)
(-1.397931385508075 -6.371708100286749e-08 1.133338605899928e-05)
(-1.397931083368322 6.116069759058407e-09 1.133316815056285e-05)
(-1.397930887693473 -1.36005680930242e-08 1.133337346654631e-05)
(-1.397931053800252 -6.825684016071374e-09 1.133317280142158e-05)
(-1.397930896048435 -1.051314074408589e-08 1.133336342024435e-05)
(-1.397930899744611 -4.603770680827209e-08 1.133317367208348e-05)
(-1.397930792541155 -1.378680933439252e-08 1.133335508857744e-05)
(-1.397930740631751 -4.325151360180611e-08 1.133317270665478e-05)
(-1.39793063726262 -1.303380432709097e-08 1.133334704052457e-05)
(-1.397930533684116 -6.907469733513599e-09 1.133317227217219e-05)
(-1.397930557976731 6.340714241550839e-10 1.133333935192206e-05)
(-1.397930458380419 6.002464165047287e-09 1.133317266170183e-05)
(-1.397930492390688 5.277832443486181e-09 1.133333088759608e-05)
(-1.397930521550786 1.491087899794494e-09 1.133317452404398e-05)
(-1.397930571151427 1.074418065756144e-08 1.133332330721437e-05)
(-1.397930954606272 1.265121100107933e-08 1.133317808411114e-05)
(-1.397930027687815 -7.643194811807681e-09 1.133331101646426e-05)
(-1.397930778798735 6.716223604038564e-10 1.133317717731569e-05)
(-1.397930391826347 1.00313520118545e-08 1.133330721366664e-05)
(-1.397930646720255 9.344618932385308e-09 1.133317441248694e-05)
(-1.397930208657538 -7.600506489668987e-09 1.133329957686609e-05)
(-1.397930496345898 6.936978384594173e-09 1.133317247452867e-05)
(-1.397930306819369 -9.51761734035572e-09 1.133329389442585e-05)
(-1.397930552839298 -1.242186620177753e-09 1.133317252858144e-05)
(-1.397930343299698 -1.217841335619985e-08 1.133328833914998e-05)
(-1.397930550907471 -4.173461809878147e-09 1.133317138094637e-05)
(-1.397930412267042 6.425145710489758e-11 1.133328186200292e-05)
(-1.397930771067023 8.253267745804333e-09 1.133317085889211e-05)
(-1.397929987588589 1.139670776955558e-08 1.133327143673438e-05)
(-1.397930743433877 -2.707058955674369e-08 1.133316970771237e-05)
(-1.397930524206413 3.135058117652461e-08 1.133326904980038e-05)
(-1.397930575739822 1.008232555609406e-08 1.133316333327583e-05)
(-1.397930083165426 -7.585332064723971e-09 1.133325714091507e-05)
(-1.397931711058566 -9.821630570105942e-08 1.133317002240272e-05)
(-1.397930223469052 5.782709954916037e-08 1.13332514753321e-05)
(-1.397930256144188 -1.479022198692445e-08 1.133315457328107e-05)
(-1.397930645479927 -2.431737810073371e-09 1.133324802040591e-05)
(-1.397930777518176 1.249333887183068e-08 1.13331546449623e-05)
(-1.39793067609527 2.112909444619804e-08 1.133324140887798e-05)
(-1.397930452403864 5.969324665349343e-08 1.133314817870626e-05)
(-1.397930878245701 5.692027463861334e-09 1.133323427345539e-05)
(-1.39793088821168 2.78616080136435e-08 1.133314743516962e-05)
(-1.397931081191248 6.425861354020429e-09 1.133322757245845e-05)
(-1.397931225727061 -9.670000989841097e-09 1.133314602647529e-05)
(-1.39793165619377 5.072622411923648e-08 1.133322467075964e-05)
(-1.3979310816573 3.066045884519644e-08 1.133314049616125e-05)
(-1.397931495628116 -5.518212272115503e-09 1.133321634731225e-05)
(-1.397931667552812 -4.842192105305366e-09 1.133314244693804e-05)
(-1.397931649267057 -3.151850328468176e-09 1.133321021571362e-05)
(-1.397931696122167 -3.389008784836838e-08 1.13331376388179e-05)
(-1.397931714951956 -3.139339630181521e-08 1.133320211780045e-05)
(-1.397931762966669 -9.851140495156959e-09 1.133313244668453e-05)
(-1.397931727207983 2.073215972247299e-08 1.133319632316583e-05)
(-1.397930568922673 6.522532396836291e-08 1.133312027263967e-05)
(-1.397928789685034 7.399931682084279e-08 1.133319484287478e-05)
(-1.439731961092553 -1.451506204253911e-07 1.27060061023442e-05)
(-1.439733313284756 -8.269503277661845e-08 1.270614180860644e-05)
(-1.439732484661111 9.387352837413956e-09 1.27059070482021e-05)
(-1.439732523656787 -7.27918670316751e-08 1.27061360161135e-05)
(-1.439732287489876 5.555045970048355e-09 1.270590599210769e-05)
(-1.439732082135529 -1.869075984215617e-08 1.27061218735931e-05)
(-1.439732338482056 -1.072489134621063e-08 1.270591218961646e-05)
(-1.439732175259883 -1.303897759567919e-08 1.270611141976999e-05)
(-1.439732006993137 -5.266352141227627e-08 1.270591183417222e-05)
(-1.439731949461611 -1.590369561768667e-08 1.270610100267388e-05)
(-1.439731756371291 -4.884388145986967e-08 1.27059102384834e-05)
(-1.439731953092682 -1.295618338584474e-08 1.270609353537476e-05)
(-1.439731676014574 -8.378344946205807e-09 1.27059107124524e-05)
(-1.439731699248989 1.229449989193282e-09 1.270608380715125e-05)
(-1.439731595569139 6.648821073195281e-09 1.270591080538897e-05)
(-1.439731635664753 5.716279629554354e-09 1.270607494635094e-05)
(-1.439731687776206 5.735572183284477e-10 1.270591266514021e-05)
(-1.439731711471594 1.083648263815279e-08 1.270606701079918e-05)
(-1.439732092884055 1.458915000267929e-08 1.270591606590081e-05)
(-1.439731419995198 -7.849873570931254e-09 1.270605635229774e-05)
(-1.439731783039641 -3.104321894116808e-11 1.270591342688791e-05)
(-1.439731563275277 9.976328522049469e-09 1.270605046324358e-05)
(-1.439731818766184 1.144262602017469e-08 1.27059118928368e-05)
(-1.439731467686478 -8.569762516481741e-09 1.270604312230708e-05)
(-1.439731685043705 7.206923961646737e-09 1.270590973525261e-05)
(-1.439731503140053 -1.076788511645236e-08 1.270603666125797e-05)
(-1.439731741208655 -6.619584349880557e-10 1.270590953885858e-05)
(-1.439731522705469 -1.406127022850699e-08 1.270603062867599e-05)
(-1.439731752364872 -4.298267183315427e-09 1.270590819725922e-05)
(-1.439731573834144 -1.455124228910154e-09 1.270602365283652e-05)
(-1.439731952727143 1.011034117882862e-08 1.270590744128725e-05)
(-1.439731291344376 1.159971547513469e-08 1.27060139389508e-05)
(-1.439731770029552 -2.772276274798992e-08 1.270590459554088e-05)
(-1.439731807245116 3.22548384165963e-08 1.270601125119483e-05)
(-1.439731866401661 1.140805979118935e-08 1.270590034473108e-05)
(-1.439731379885793 -1.083364997197407e-08 1.270599886649554e-05)
(-1.43973254618042 -9.660733862145571e-08 1.270590326377219e-05)
(-1.439731753078487 6.248029941976625e-08 1.270599482176026e-05)
(-1.439731502230017 -1.377080943174632e-08 1.270589035014051e-05)
(-1.439731882452041 -2.068516254542155e-09 1.27059886715625e-05)