/*--------------------------------*- C++ -*----------------------------------*\
| =========                 |                                                 |
| \\      /  F ield         | OpenFOAM: The Open Source CFD Toolbox           |
|  \\    /   O peration     | Version:  v1812                                 |
|   \\  /    A nd           | Web:      www.OpenFOAM.com                      |
|    \\/     M anipulation  |                                                 |
\*---------------------------------------------------------------------------*/
FoamFile
{
    version     2.0;
    format      ascii;
    class       volVectorField;
    location    "10000";
    object      wallShearStress;
}
// * * * * * * * * * * * * * * * * * * * * * * * * * * * * * * * * * * * * * //

dimensions      [0 2 -2 0 0 0 0];


internalField   uniform (0 0 0);

boundaryField
{
    inlet
    {
        type            cyclic;
    }
    outlet
    {
        type            cyclic;
    }
    bottomWall
    {
        type            calculated;
        value           nonuniform List<vector> 
58
(
(0.00237151981836797 1.556293586006159e-08 -6.073935612931429e-08)
(0.002370369211932882 8.338395912063109e-09 -6.073886151542906e-08)
(0.002370476181980727 -7.985166232092961e-10 -6.0737248073919e-08)
(0.002370492491586655 1.39835410782025e-11 -6.073883841095706e-08)
(0.002370469341412933 1.439276876432765e-10 -6.073730648113104e-08)
(0.00237046739626918 -4.788006571496865e-10 -6.073870350744839e-08)
(0.00237049038782732 -2.352845483869025e-10 -6.073738124422566e-08)
(0.002370476832352595 1.982944798491401e-10 -6.073862699493758e-08)
(0.00237047875403342 -1.650461984880783e-11 -6.073738872684222e-08)
(0.00237049074300851 4.424918145178684e-10 -6.073858738653133e-08)
(0.002370446812139098 8.100211309201665e-10 -6.073733701033019e-08)
(0.002370469291588787 -3.51914021956878e-10 -6.073854006315836e-08)
(0.002370462176341721 1.128193569065618e-10 -6.073736165038211e-08)
(0.002370458978436095 3.996480732715212e-11 -6.073848092664954e-08)
(0.002370457257866527 -1.731231641249862e-10 -6.073736468415315e-08)
(0.002370459882842008 -2.307624868246966e-10 -6.073842434164185e-08)
(0.002370468940359063 -3.129746904890459e-10 -6.073738368897073e-08)
(0.002370481310924557 -2.788819517400024e-10 -6.073839775323742e-08)
(0.002370498455647331 1.016333097017373e-09 -6.073742809442517e-08)
(0.002370388985079828 -8.638134805065191e-10 -6.073822301239778e-08)
(0.002370535953251765 -4.588255741667226e-10 -6.073748248800919e-08)
(0.002370453617645453 6.379568729606569e-10 -6.07382647380053e-08)
(0.002370480829055039 2.965935170703749e-11 -6.073740862598066e-08)
(0.002370443472265758 2.136298127669194e-11 -6.073821183890488e-08)
(0.002370471456531164 -2.23095592664397e-10 -6.073739205712858e-08)
(0.002370454534092681 2.153123686211747e-11 -6.073818666297126e-08)
(0.002370475220329565 -2.203531043270032e-11 -6.073740097140055e-08)
(0.002370456418692513 3.422807007845938e-11 -6.07381482584955e-08)
(0.002370477733650159 -4.642878381755609e-11 -6.073740005406469e-08)
(0.002370465856237536 -4.929705481158885e-11 -6.073811865737693e-08)
(0.00237048434455232 7.029677360613201e-10 -6.073739495124623e-08)
(0.002370387142800477 -8.887585152753195e-10 -6.073796067488139e-08)
(0.002370525143082173 -2.292682779980087e-10 -6.073745730388016e-08)
(0.002370468987630703 1.86624085257701e-10 -6.073803965448966e-08)
(0.002370465662578309 2.269359159670256e-10 -6.073732367618265e-08)
(0.002370393860805196 -1.10988256714368e-09 -6.073785162981421e-08)
(0.002370604480393401 2.319794187881275e-09 -6.073754926682375e-08)
(0.002370406916648291 1.400121511793582e-10 -6.073788343351318e-08)
(0.002370449378210407 -5.327602051721535e-10 -6.073727450780399e-08)
(0.002370455881928149 8.352015802419773e-11 -6.073789727388151e-08)
(0.002370470819784356 3.401564640627371e-10 -6.073730846297208e-08)
(0.00237045191777906 3.089386943916856e-11 -6.073787388852232e-08)
(0.002370431525567229 -1.080161418067623e-09 -6.073722640935716e-08)
(0.002370460170397974 -5.31206047339149e-11 -6.073781301051034e-08)
(0.00237046271861726 -2.607991165208098e-10 -6.073725419148067e-08)
(0.002370467675605174 -1.118492077594612e-10 -6.073776924525376e-08)
(0.002370488700297579 -1.58759369666921e-10 -6.073727358846384e-08)
(0.002370535359969955 6.672818438802693e-10 -6.073785127223603e-08)
(0.002370416223023602 -1.98202587269828e-10 -6.073715166679323e-08)
(0.002370492361150507 -3.819509073249778e-10 -6.07377374326759e-08)
(0.00237048589106872 1.529249597776065e-10 -6.073724887497356e-08)
(0.002370492139266397 1.352799593902442e-10 -6.073769718651164e-08)
(0.002370483569428715 4.566328550473167e-10 -6.073721284977091e-08)
(0.002370484855880357 8.013222487901868e-10 -6.073763432452749e-08)
(0.00237046606636003 1.310747468190346e-09 -6.073717777274922e-08)
(0.002370432555078248 1.716739482068719e-09 -6.073759038144672e-08)
(0.002370370141891003 1.279318150841797e-09 -6.073706496913208e-08)
(0.002370358491003748 -1.016336749026214e-08 -6.073734903652363e-08)
)
;
    }
    topWall
    {
        type            calculated;
        value           nonuniform List<vector> 
58
(
(0.0145610015113742 -1.871324843057047e-08 -1.392322372560337e-07)
(0.01463944339944853 -3.411199313330433e-07 -1.399977862651456e-07)
(0.01464843450147209 -1.555002790362405e-07 -1.400787756621145e-07)
(0.01464895224122975 -1.765633037771381e-07 -1.400864217013574e-07)
(0.01465518070528789 -1.251539108844302e-07 -1.40140551039703e-07)
(0.01457158841268982 3.017662743576511e-07 -1.393435006006411e-07)
(0.01456483571982748 3.053004863274999e-07 -1.392782306898338e-07)
(0.01456528611282191 7.384401512812425e-08 -1.392788735116816e-07)
(0.01456487793648776 1.77490533549422e-10 -1.392722277156332e-07)
(0.01456565031324803 -1.773582003166985e-08 -1.392821528245441e-07)
(0.01456577758970256 -3.012799797935563e-08 -1.392881943008454e-07)
(0.01456506775457796 1.649746379473658e-07 -1.392744736137355e-07)
(0.01456037363099992 2.059307557753206e-09 -1.392292221010599e-07)
(0.01463919456758391 -3.287006619668553e-07 -1.399932664492058e-07)
(0.01464874279830065 -1.904936306004929e-07 -1.400799364472189e-07)
(0.01464873242904659 -6.444253782557832e-08 -1.400817822690927e-07)
(0.01464859543998371 -2.072710226072626e-08 -1.400819213949738e-07)
(0.01464853699498311 1.02945281927648e-08 -1.400809554194488e-07)
(0.01464872624308407 -1.689621988364336e-09 -1.400809273978899e-07)
(0.0146485262554989 -1.313674831151102e-08 -1.400812244086035e-07)
(0.01464855973136663 1.17964271457538e-08 -1.400808451815617e-07)
(0.01464871193272627 3.033730303109557e-09 -1.400821617008961e-07)
(0.01464854729345627 -1.188979456241054e-08 -1.400805105381528e-07)
(0.01464847416831705 1.127087196557808e-08 -1.400800152817973e-07)
(0.0146487371998844 1.262312994873768e-09 -1.400822283970333e-07)
(0.01464851159340052 -1.17358760476772e-08 -1.400806039387975e-07)
(0.01464857112301931 1.075467723462513e-08 -1.400799855709218e-07)
(0.0146487101396331 2.056789866775659e-09 -1.400816654260571e-07)
(0.01464858760397357 -1.256130825320225e-08 -1.400811549028451e-07)
(0.01464844309083224 1.340493915979001e-08 -1.400792062909085e-07)
(0.01464884752877623 -5.155038738034046e-09 -1.40081944258505e-07)
(0.01464830000181265 1.344838471934887e-08 -1.400810076053493e-07)
(0.01464832176259376 -1.174145810226143e-07 -1.400748651794369e-07)
(0.01465377773158265 -1.430672468560601e-07 -1.401309948087952e-07)
(0.01457084788604289 4.824404669734979e-07 -1.393387930428107e-07)
(0.01456119471027191 3.217567741287394e-07 -1.392344166044357e-07)
(0.01463955920269983 -2.741280898478596e-07 -1.399932871564901e-07)
(0.01464825133990925 -1.809716031459516e-07 -1.400793915356839e-07)
(0.01464894067990643 -5.681203019121231e-08 -1.40080803146066e-07)
(0.01464838730439007 -2.282411576811104e-08 -1.400789740271231e-07)
(0.01464865654911451 7.521722401718225e-09 -1.400796833617815e-07)
(0.01464871837216533 -2.705926534496101e-09 -1.400816443437818e-07)
(0.01464845242264612 1.343673876598548e-08 -1.400792872209956e-07)
(0.01464798754627286 -1.244039032331555e-07 -1.400747202944505e-07)
(0.01465380420393769 -1.081652945998873e-07 -1.401289705515949e-07)
(0.01457118494861998 3.256030889271381e-07 -1.393373804176933e-07)
(0.01456497645868361 3.102518526094304e-07 -1.39278032263169e-07)
(0.01456569662078784 4.219562597623371e-08 -1.392796036015489e-07)
(0.01456476475425831 -5.687892195278276e-10 -1.392733686949336e-07)
(0.01456483047852532 1.408903374936103e-08 -1.392732143789971e-07)
(0.01456542667711737 -3.305501379995208e-09 -1.392793018625906e-07)
(0.01456481416807777 -3.387978330056346e-09 -1.392728123815497e-07)
(0.01456483999635122 1.22586869754133e-08 -1.392743409855081e-07)
(0.01456549148159158 -7.847359498832406e-10 -1.392783044306129e-07)
(0.01456523933169472 -1.504402697155433e-09 -1.392747323357977e-07)
(0.01456485496081777 1.861397047685342e-08 -1.392732873966758e-07)
(0.01456524811211696 -7.333724763835237e-09 -1.392783861751753e-07)
(0.01456595370102851 1.442999551725628e-07 -1.392792184149757e-07)
)
;
    }
    left
    {
        type            cyclic;
    }
    right
    {
        type            cyclic;
    }
}


// ************************************************************************* //
