/*--------------------------------*- C++ -*----------------------------------*\
| =========                 |                                                 |
| \\      /  F ield         | OpenFOAM: The Open Source CFD Toolbox           |
|  \\    /   O peration     | Version:  v1812                                 |
|   \\  /    A nd           | Web:      www.OpenFOAM.com                      |
|    \\/     M anipulation  |                                                 |
\*---------------------------------------------------------------------------*/
FoamFile
{
    version     2.0;
    format      ascii;
    class       volScalarField;
    location    "0";
    object      nut;
}
// * * * * * * * * * * * * * * * * * * * * * * * * * * * * * * * * * * * * * //

dimensions      [0 2 -1 0 0 0 0];


internalField   nonuniform List<scalar> 
3770
(
0.0001266332137033078
9.935097264109766e-07
5.339484029389914e-07
7.1122013349706e-07
6.3444986843763e-07
1.016535723638991e-07
3.415229367041396e-07
1.82986531940752e-07
1.778040244520833e-07
1.148044126458105e-06
1.136958965040542e-06
1.168487462780664e-06
1.097355242720049e-06
7.631826263561715e-07
1.558695154919877e-06
5.564530536857376e-07
1.351878190099024e-06
3.631751106674965e-06
1.777985200894846e-05
1.283835968249699e-05
5.2238572017382e-06
4.325363938936362e-06
5.907360426517253e-06
6.872097246498375e-06
1.503923350069136e-05
3.544665541640656e-05
3.034472329887877e-05
4.49407970014532e-05
5.633527964085572e-06
1.326700267118952e-05
1.782901755995805e-05
7.003238038999187e-06
4.524023892539375e-06
4.756415068474168e-07
1.107730082145571e-06
5.029514770038456e-07
6.113041837543592e-07
2.456625255914132e-07
3.370197363775061e-06
4.495814984867468e-07
1.184997962504377e-06
1.087945573790234e-05
1.331418988163058e-06
4.272519073730483e-07
1.066001065772709e-07
1.677296779193518e-08
2.002471785442037e-08
9.272878781595104e-07
2.034286934507344e-06
7.328455319084851e-06
3.890178295690453e-06
6.606182387186014e-08
1.253312697731086e-07
3.436564491981258e-07
8.745201936567209e-07
4.21050406779598e-07
1.867084885518248e-07
6.833692520710174e-06
0.000126605582783967
9.820592806611875e-07
5.426663366838496e-07
7.430841987063884e-07
6.626762559074868e-07
1.052880588441426e-07
3.546748790657132e-07
1.875009107810687e-07
1.812271938088151e-07
1.183862000064354e-06
1.145447188014378e-06
1.171006436828028e-06
1.094640028846168e-06
7.928877464233754e-07
1.623913593363551e-06
5.627239500066063e-07
1.369649463063837e-06
3.765280946286267e-06
1.838996286599594e-05
1.34264737410347e-05
5.457272470405771e-06
4.442524630539635e-06
6.005503660355666e-06
7.019523946853734e-06
1.50602913970785e-05
3.537614252888235e-05
3.042376051404568e-05
4.494224945278179e-05
5.801884868964361e-06
1.318147773341259e-05
1.801038075706221e-05
7.174335906120215e-06
4.504916393267029e-06
4.703793322412174e-07
1.107502310798359e-06
5.237274311883527e-07
6.296411542360574e-07
2.468720262682203e-07
3.496522294119981e-06
4.54719593141289e-07
1.220784945000486e-06
1.13431169294039e-05
1.379887277804184e-06
4.430237241608298e-07
1.109110154572154e-07
1.682443253389483e-08
2.041968444132902e-08
9.300148820282165e-07
2.085039185815825e-06
7.655510389476986e-06
4.071923166346906e-06
6.652433392646759e-08
1.292187703441774e-07
3.478749470049217e-07
9.01892695827021e-07
4.386714271631089e-07
1.880284412517295e-07
6.863384040282042e-06
0.0001261703532531642
9.732570545001953e-07
5.538637577839864e-07
7.866705485849349e-07
7.010933844885017e-07
1.101527361200861e-07
3.727390850175625e-07
1.934757282063323e-07
1.855271842476338e-07
1.233563485144448e-06
1.158099140847086e-06
1.178683050102187e-06
1.088309490955977e-06
8.333026136386049e-07
1.71191119751826e-06
5.72327954495748e-07
1.390932734835687e-06
3.952327090997433e-06
1.92651365572431e-05
1.422823154434986e-05
5.777588912642892e-06
4.600629516888157e-06
6.136330170286395e-06
7.246343002747224e-06
1.50203746642825e-05
3.536285008236161e-05
3.074590475910441e-05
4.476962619351049e-05
6.038510546545069e-06
1.306041719605356e-05
1.83184533015333e-05
7.393288176385854e-06
4.457051205486603e-06
4.675333156892169e-07
1.104071747239894e-06
5.517165950685651e-07
6.537628670061152e-07
2.489358773994042e-07
3.672384991180179e-06
4.619783988453273e-07
1.270523902366825e-06
1.197651398698592e-05
1.446694841692297e-06
4.652314400436286e-07
1.168567267551655e-07
1.691511853932741e-08
2.096581608127458e-08
9.35731932562933e-07
2.158125034425259e-06
8.100246844832813e-06
4.319569988419248e-06
6.709680152657601e-08
1.344148226963315e-07
3.544006801866763e-07
9.38847368460248e-07
4.626437533337181e-07
1.900257883365574e-07
6.887693045782607e-06
0.0001253343218152091
9.671764082338916e-07
5.673576035909322e-07
8.412544648157419e-07
7.490633593543669e-07
1.16167038900768e-07
3.954134750883195e-07
2.0081234474741e-07
1.906326829280874e-07
1.296320252532137e-06
1.174695751452646e-06
1.191391206688048e-06
1.078486182205468e-06
8.837559728343713e-07
1.821227893553679e-06
5.851155465771057e-07
1.415387449311517e-06
4.189800695311895e-06
2.039100546542358e-05
1.523032371947259e-05
6.17948212613261e-06
4.797087092580119e-06
6.297682533805003e-06
7.548545313746307e-06
1.492031868600071e-05
3.540755971544798e-05
3.130393426567885e-05
4.442585616355137e-05
6.339460117942674e-06
1.290559292873156e-05
1.874763763757727e-05
7.656480533591616e-06
4.38127942417496e-06
4.671114583789771e-07
1.097509850100222e-06
5.864547648537332e-07
6.832707519524835e-07
2.518118004402048e-07
3.894870312016401e-06
4.712350641222484e-07
1.333395671648143e-06
1.276914906549054e-05
1.530738224634004e-06
4.935004155807695e-07
1.243387391648561e-07
1.704374576162212e-08
2.16539468622065e-08
9.443549114161401e-07
2.252333967545396e-06
8.655285291744578e-06
4.629003716612914e-06
6.776989795566484e-08
1.408327909613159e-07
3.631197227756036e-07
9.847677726580263e-07
4.925683849994995e-07
1.926627579988273e-07
6.906284960284845e-06
4.958182717865576e-05
4.914894338120005e-06
1.900448561835636e-06
1.117778643148962e-05
2.03213880089723e-06
4.190046965332392e-06
4.194557882367868e-06
3.258079298159051e-06
1.054778672081473e-06
4.025605242962791e-06
3.19613776537665e-06
3.863811854608822e-06
1.369341341726536e-05
3.469575872579491e-05
2.577912855904224e-05
5.880900369965354e-06
8.608703653743369e-06
2.196196701742862e-05
7.083961440992406e-05
6.428866556022349e-05
4.532745963796042e-05
3.927720809307223e-05
1.538987061753274e-05
2.328333236610296e-05
2.171481795703429e-05
9.585871499186751e-05
6.178551446345844e-05
7.220057171722851e-05
3.051695447097812e-05
2.106018121646216e-05
2.842559117465595e-05
1.953872389733698e-05
4.694458707193542e-06
1.318000408410035e-06
2.849535598704487e-06
3.192976525467489e-06
6.325905903332781e-06
1.626564005620779e-06
7.983475030295581e-06
1.98977118071862e-05
8.074655387652514e-06
3.446132291843668e-05
2.904098837020398e-05
1.077314042459908e-05
8.680096957363965e-06
1.523734990799393e-06
2.769643552268999e-06
3.481618628879382e-06
7.86081103923938e-06
3.422457135297431e-05
1.715652409355625e-05
2.082349218297312e-06
1.242610859063102e-06
3.638392654069965e-06
2.846979200260626e-06
3.576734288782477e-06
2.097619738156262e-06
1.003086918215325e-05
4.903505190488881e-05
5.152636553510675e-06
1.93150057613811e-06
1.169124691444893e-05
2.061987490980618e-06
4.400938407787253e-06
4.354162052372882e-06
3.384786608564846e-06
1.074618897177851e-06
4.106698189441018e-06
3.231489332023046e-06
3.89771269169432e-06
1.396538941167794e-05
3.589763459048899e-05
2.696481751419748e-05
6.056611467086187e-06
8.599377425977524e-06
2.222201314398173e-05
7.176566519080935e-05
6.526492408245848e-05
4.605204408069707e-05
3.962695559070067e-05
1.566308785605688e-05
2.386125650017515e-05
2.202439448794737e-05
9.969268368322098e-05
6.204785371868012e-05
7.150977315241268e-05
3.095257189881403e-05
2.094017437021697e-05
2.88625989673291e-05
1.972160524697487e-05
4.811227159252109e-06
1.369647611441077e-06
2.90381133175628e-06
3.282875587235817e-06
6.634437558744297e-06
1.691577656795112e-06
8.143678958889209e-06
2.002465436635624e-05
8.185285388330058e-06
3.493636911506964e-05
2.998197993942688e-05
1.113466520676707e-05
9.16126209043769e-06
1.594628196001584e-06
2.891830381037574e-06
3.507978718182866e-06
7.859906018867488e-06
3.500449950338338e-05
1.736308349432518e-05
2.175712603515717e-06
1.298384940200928e-06
3.797105217359082e-06
2.886331611843253e-06
3.740894098365854e-06
2.14860053628015e-06
1.008354051832002e-05
4.861469159963939e-05
5.468009777392528e-06
1.953787810904496e-06
1.233961545698941e-05
2.076321229670477e-06
4.680248097129128e-06
4.549327457502353e-06
3.537524766251614e-06
1.089785736063859e-06
4.208840861212196e-06
3.255836610680028e-06
3.914283772088567e-06
1.421118212187302e-05
3.723756990869171e-05
2.847047198335575e-05
6.279957938432222e-06
8.623592342923753e-06
2.247307875268666e-05
7.251398385615215e-05
6.622097322130599e-05
4.691469499693115e-05
4.019984366380758e-05
1.602891997623518e-05
2.443305006963003e-05
2.254408024131034e-05
0.000104692721477157
6.237711976522148e-05
7.10211190449155e-05
3.116948866985058e-05
2.10184551057347e-05
2.939508720015872e-05
1.988073099214167e-05
4.959398020809074e-06
1.436390041538494e-06
2.981804785105406e-06
3.380214804314173e-06
7.027930338393784e-06
1.776592244618066e-06
8.275969631649782e-06
2.013695820090529e-05
8.344453121115272e-06
3.538352324537599e-05
3.114578651769689e-05
1.162026313179363e-05
9.790324509434674e-06
1.682475338179998e-06
3.03893346226914e-06
3.525258597059177e-06
7.853668890162543e-06
3.571808299589437e-05
1.753775586796109e-05
2.300213991869762e-06
1.369284029367565e-06
4.006028102210162e-06
2.912361684588151e-06
3.954559111022846e-06
2.209074825765899e-06
1.011989130976613e-05
4.835694044447372e-05
5.869784169143525e-06
1.96507453855081e-06
1.31366342341307e-05
2.071653633918886e-06
5.035793938989716e-06
4.782938656086516e-06
3.718358586899315e-06
1.098971847039348e-06
4.333675472327923e-06
3.266406249665579e-06
3.909597702491765e-06
1.441974218447542e-05
3.871509572457792e-05
3.032936365041195e-05
6.555551220584593e-06
8.68593648257048e-06
2.270720505068666e-05
7.302884359767497e-05
6.712811859283932e-05
4.792283340277879e-05
4.102518961562848e-05
1.64961524240878e-05
2.498490227781436e-05
2.330491238516502e-05
0.0001109900428098001
6.277833548437608e-05
7.079187882149838e-05
3.111825540167734e-05
2.133382462535461e-05
3.00331090820749e-05
2.000654440872603e-05
5.142442732638297e-06
1.519921234833299e-06
3.086754371614159e-06
3.484303357857514e-06
7.515260431827289e-06
1.883827336471116e-06
8.371858909660173e-06
2.022746064508807e-05
8.555514245899465e-06
3.578468915882572e-05
3.255282235034537e-05
1.224433108665589e-05
1.058416656353009e-05
1.788889033359696e-06
3.212952583730141e-06
3.530923393671725e-06
7.838659562038959e-06
3.633534493078321e-05
1.766733648496522e-05
2.459335389274998e-06
1.456881091390742e-06
4.270769771587441e-06
2.921791694978989e-06
4.223043706133006e-06
2.279598888691819e-06
1.013591974734515e-05
4.826526228310286e-05
6.355758233131771e-06
1.964972272849311e-06
1.407681216365126e-05
2.047631858749681e-06
5.465520325045097e-06
5.053464801487594e-06
3.925917717358949e-06
1.101971790298187e-06
4.480741357692891e-06
3.262788245673782e-06
3.883272024866156e-06
1.458837358137269e-05
4.031713197072858e-05
3.252883186547856e-05
6.881818790723649e-06
8.788048325973062e-06
2.292210633785205e-05
7.330247364641515e-05
6.797893322032433e-05
4.907061232733789e-05
4.210288847619133e-05
1.706388695114192e-05
2.551065733488852e-05
2.430450102390288e-05
0.0001185443189169266
6.325003225772841e-05
7.082545462499821e-05
3.079372504668813e-05
2.188803364438845e-05
3.077035267851318e-05
2.009806909453036e-05
5.358932328127814e-06
1.619664538675342e-06
3.218049019312591e-06
3.594265670053559e-06
8.093216307795062e-06
2.012639518670522e-06
8.429475139597855e-06
2.029620783103238e-05
8.820012280164499e-06
3.613692362708547e-05
3.419322375896345e-05
1.300356106215591e-05
1.153761922011014e-05
1.913090084967133e-06
3.412530126173271e-06
3.524925615383527e-06
7.816985553472097e-06
3.684847626085285e-05
1.775197484601242e-05
2.652282481665054e-06
1.560585539629124e-06
4.589815724925371e-06
2.914158029999237e-06
4.544812791015315e-06
2.359699456041923e-06
1.013104666054736e-05
9.916826351731354e-05
3.722901202868707e-05
5.041356143640393e-06
7.265297696664949e-05
1.08838871825184e-05
1.352996209651622e-05
1.669100446138725e-05
1.490894958305192e-05
5.409966628845369e-06
1.097920471464527e-05
5.308647055011524e-06
4.86631227257002e-06
1.174696829315054e-05
7.017942271654236e-05
0.0001121251903077509
7.631828938421346e-05
1.178525310631268e-05
1.898943142366853e-05
9.018817826434436e-05
8.777975259169368e-05
0.000128793880738483
5.530087980719689e-05
4.368247333079316e-05
4.348874158207669e-05
3.988710245888772e-05
0.0003284495322617614
6.260104301207199e-05
8.782406256229514e-05
3.04230020772674e-05
5.839082652937684e-05
5.040238792486128e-05
1.774817363331312e-05
1.497570770591534e-05
1.557144315295854e-05
7.962941399773725e-06
1.4208870035188e-05
1.213811518617674e-05
2.136188202033381e-05
1.313435216120397e-05
9.302724388596691e-06
1.930953494345972e-05
4.593080995666411e-05
8.654126065248309e-05
4.616956860677691e-05
6.036983110283895e-05
1.740884622766824e-05
1.51371396229075e-05
4.778201191887285e-06
3.701560893064496e-06
2.593397339303438e-05
4.287558534023537e-05
1.036571408226187e-05
6.789286747979878e-06
1.933052101340747e-05
1.007673439975053e-05
9.531450580721655e-06
1.462796480395851e-05
1.624020051452029e-05
9.853526097688391e-05
3.827100917772714e-05
5.120791995087542e-06
7.694487396963401e-05
1.104257285639633e-05
1.360228248505727e-05
1.699136623136504e-05
1.515967937757924e-05
5.444472357352405e-06
1.097593060063977e-05
5.5116754823461e-06
5.105092750701763e-06
1.181011911214683e-05
7.030442391210919e-05
0.0001125386982573862
8.023915892374893e-05
1.179943232581827e-05
1.884884190908375e-05
8.963575099114245e-05
8.772001573013118e-05
0.0001316907016680951
5.524435225589514e-05
4.382868914806145e-05
4.423383256001268e-05
4.038616805813883e-05
0.0003336478565932891
6.266899141908598e-05
8.826546194546668e-05
3.084939339667307e-05
6.030548741949513e-05
5.200039364984292e-05
1.743267744541346e-05
1.516362965961101e-05
1.577682253161366e-05
8.071761385910856e-06
1.471051863033385e-05
1.218764445392255e-05
2.1602939441502e-05
1.323976872979408e-05
9.519374771196635e-06
1.943420745972419e-05
4.591022621613788e-05
8.899941729107837e-05
4.753043585234864e-05
6.135452274383548e-05
1.883427135888179e-05
1.567046156012471e-05
4.918617923653198e-06
3.596228286700671e-06
2.567089418907507e-05
4.491484950252676e-05
1.056262414298819e-05
7.030963694679999e-06
2.043015981745055e-05
1.008872563927673e-05
9.719930184869086e-06
1.475009007027307e-05
1.645306520775441e-05
9.69576000096954e-05
3.936549765999191e-05
5.243006002344919e-06
8.286505541671026e-05
1.123010751912614e-05
1.339443623634461e-05
1.724573694173388e-05
1.530529054529095e-05
5.440442976539666e-06
1.087869319364725e-05
5.796664858974019e-06
5.449275002462199e-06
1.178160663204575e-05
6.97616017698434e-05
0.0001110284391228376
8.617072086135621e-05
1.175686769468615e-05
1.858458390411443e-05
8.830669690076956e-05
8.768248095363382e-05
0.0001342699793599863
5.478908431875526e-05
4.356961944686405e-05
4.523572663709763e-05
4.08155367052926e-05
0.0003363955258246732
6.274702110793125e-05
8.890758230188417e-05
3.143439543699729e-05
6.266111279505448e-05
5.460922055988673e-05
1.702841107203804e-05
1.514092215356236e-05
1.589646044743588e-05
8.154325291980645e-06
1.548040705773063e-05
1.20521372411107e-05
2.15168199520311e-05
1.347702223718949e-05
9.762047353742092e-06
1.940086517489143e-05
4.645436240116131e-05
9.167926417190633e-05
4.934419064717331e-05
6.236726813251709e-05
2.096724300657289e-05
1.624473027298189e-05
5.096233165721487e-06
3.499393717952266e-06
2.542312573504137e-05
4.810020030303848e-05
1.071683720799199e-05
7.310053278375931e-06
2.193079222615387e-05
1.006128739392361e-05
9.905419987652011e-06
1.476288142018176e-05
1.661940112393339e-05
4.140026833068546e-05
5.890044143811027e-05
1.551192455313245e-05
0.0001272049420302719
4.230268825248677e-05
1.898677401835651e-05
3.013340341871931e-05
2.500943032157149e-05
1.101511436087439e-05
2.384783716957698e-05
1.784343763639724e-05
1.242268501673776e-05
8.492209052155231e-06
2.34730815659603e-05
6.356497070611989e-05
0.0001433305934395898
8.599364215580667e-06
2.086229369168577e-05
0.0001021095505277292
8.231741700534832e-05
0.0001394971678602851
0.0001526227269305038
4.703617728029269e-05
9.408932780679911e-05
5.077225124203927e-05
0.000223870933512235
4.666994308618901e-05
5.082051559825245e-05
8.493071125278252e-05
9.113663456191673e-05
8.922604250238834e-05
2.234826133083083e-05
2.006693978233856e-05
2.347849578172273e-05
1.669606950733821e-05
2.602269760756019e-05
1.36925554047757e-05
2.763343119033718e-05
2.354923524218376e-05
1.515734882682057e-05
1.695049091192262e-05
8.305901727895125e-05
7.377420200730805e-05
7.492626808690267e-05
7.138356669948942e-05
8.860304603754456e-05
3.694144336473355e-05
1.074021676493328e-05
1.733754201377167e-05
3.736536401505088e-05
5.869055583748485e-05
3.012450655133181e-05
2.337313477392114e-05
4.902611836983675e-05
3.867138483644058e-05
2.271639297150698e-05
9.850934503641476e-06
1.807662997725527e-05
4.088278855003696e-05
6.046038846204943e-05
1.677638793895916e-05
0.0001253349609675595
4.217462033908116e-05
1.881362784630714e-05
2.99121611348443e-05
2.593166439143634e-05
1.171946837734366e-05
2.387560521983367e-05
1.812196767712454e-05
1.277434655197798e-05
8.357338301228753e-06
2.078672342553291e-05
5.989764051313528e-05
0.0001418654687322783
8.5564690476599e-06
2.119644418662269e-05
0.0001023178259006934
8.051766858050066e-05
0.0001378018410906313
0.0001606518913209362
4.690980942917954e-05
9.564787337758134e-05
5.123975131770526e-05
0.0002117394640532324
4.511273485570666e-05
5.032252194120287e-05
8.998713097306829e-05
9.135101076079141e-05
9.002845406757577e-05
2.270028424827343e-05
2.013581252132216e-05
2.418576052683951e-05
1.696901602444739e-05
2.668848196724103e-05
1.304426427111474e-05
2.738990583775668e-05
2.369592393334558e-05
1.497622609690812e-05
1.741074340046773e-05
8.678513351694249e-05
7.073444333377388e-05
7.907555804282149e-05
7.10037476376007e-05
8.941032532717995e-05
3.696083267549909e-05
1.122721129406159e-05
1.857726841664999e-05
3.67430966713678e-05
6.128768559285667e-05
3.114337138426252e-05
2.382704600855738e-05
4.798885188302622e-05
3.882016100133983e-05
2.316891706530988e-05
1.009579809758665e-05
1.802547397852814e-05
5.897065057523608e-05
9.331409617936018e-05
4.918962852342516e-05
0.0001200378558650957
0.0001022013296821422
3.364672602026911e-05
2.75225694915451e-05
3.933449522345653e-05
2.233175752399627e-05
4.577827466486876e-05
2.595011780863745e-05
1.038816775062101e-05
1.65291323354706e-05
9.031887349487209e-06
1.678475186230439e-05
0.0001137409304300102
2.092277273541305e-05
2.876890680212972e-05
8.649359015195773e-05
0.0001306283607532311
0.0001093483018126053
0.000165477846793364
4.760535838284107e-05
0.000100359774233701
8.185288129171608e-05
8.679034411926783e-05
8.15219918901694e-05
4.416082634365784e-05
0.0001025330986578869
0.0001056904726216225
9.657202576067287e-05
5.48954420217208e-05
4.909691270746147e-05
3.842792926257041e-05
2.370626060287962e-05
8.079149496006255e-05
1.329800848588684e-05
3.54218182300638e-05
2.647474618792187e-05
2.065838933716369e-05
1.72912256015898e-05
0.0001651949553905455
6.635540360170399e-05
0.0001142385245297916
3.556546103296142e-05
6.948919774624451e-05
2.305315666691808e-05
2.836035825224571e-05
3.999834913015104e-05
3.947839023596971e-05
0.0001117518680222805
3.720665054171652e-05
4.675920538454729e-05
3.194949732988251e-05
1.830941209711171e-05
3.898984971045771e-05
2.299026308291021e-05
1.696474083433775e-05
4.637284932359004e-05
0.0001621590286254501
0.0001281479358463838
4.397912581046198e-05
0.0001308595162921633
4.924914373429292e-05
3.200138805508074e-05
5.461533307406067e-05
3.084097266601598e-05
6.529143758161928e-05
3.661335197430588e-05
6.993174753933892e-06
1.612094052264151e-05
1.538164147361701e-05
4.24930596900157e-05
1.598025132103167e-05
3.414062941198132e-05
1.497619613197112e-05
6.251289022592285e-05
0.0002604938819955021
4.685138143726532e-05
0.0001560568807201343
7.008686702506621e-05
6.464759544615083e-05
0.000139259657191309
4.701442189883243e-05
0.0001723198013978663
6.971475519727778e-05
5.591569833997965e-05
5.248605586801564e-05
7.087938100560791e-05
3.463136000519193e-05
3.583905181741044e-05
4.267535093924679e-05
2.96455149796038e-05
0.0001085773434174752
2.80600514204533e-05
4.669037306854795e-05
5.215641304759781e-05
3.92871012953243e-05
2.258950099547855e-05
0.0001785490930038624
9.5797634303475e-05
0.0001398352947733061
6.112971383497121e-05
6.532792762799347e-05
1.378297054269738e-05
1.79590087946516e-05
8.511938876274524e-05
7.283533502896753e-05
0.0001428705413169592
9.064325544616682e-05
6.195010926421015e-05
1.359585033629428e-05
3.133737095171254e-05
4.711389839321508e-05
3.035645593932874e-05
1.730678735074706e-05
8.823894312127733e-05
0.0001627284339196036
0.0001147032219566282
3.792902856689362e-05
0.0001187759624542843
7.046346668741674e-05
4.499307715020274e-05
2.851272957770343e-05
1.217423398906984e-05
6.862328097313462e-05
4.032771665486717e-05
1.619928826537076e-05
1.223510322092691e-05
2.602442954925464e-05
6.034675267047388e-05
4.115828034651254e-05
1.597678198154501e-05
1.595328335440874e-05
4.057071212666184e-05
0.0001989921819287047
3.708862812420302e-05
3.923653960377369e-05
0.0001041021714530198
3.165763527796487e-05
0.0001517004577991563
7.192588602492373e-05
0.0002496083468845139
0.0001510198344593923
2.480557309837703e-05
4.816201594268323e-05
7.323726656599966e-05
2.664653512123914e-05
3.243498403223739e-05
4.400730239924821e-05
3.25763657225564e-05
9.933417403928672e-05
4.578888039612762e-05
3.868619118305522e-05
9.638568725338822e-05
3.640825604436988e-05
1.976887597639698e-05
0.0001699763529303111
0.0001375441000349921
8.188357975110449e-05
8.953262865309756e-05
9.38281520685357e-05
2.824111783121396e-05
1.081456741671991e-05
0.0001111434394100172
0.0001262955918480336
0.0001169386749030962
8.371372076199477e-05
8.674923619427135e-05
1.287728034468615e-05
4.03198853504865e-05
3.482119359149751e-05
4.036591028550156e-05
2.525744764656594e-05
4.431604782445285e-05
0.0001136620937871155
5.651459808268861e-05
9.939025159553767e-05
0.0001748912529040803
7.296866591131553e-05
5.475268712104933e-05
3.000151354487791e-05
1.817557629079537e-05
3.982777079111732e-05
6.327332267883358e-05
4.2581659344892e-05
2.228740936734401e-05
4.28978284359886e-05
0.0001050681985311504
4.416319985946192e-05
4.873793396280833e-05
4.469392954318109e-05
3.151634982809577e-05
0.0001362784558566291
2.289281152177104e-05
2.782348456563565e-05
7.095138310800121e-05
2.344160615757537e-05
9.750372616830144e-05
0.0001793055789619111
0.0002101011875707187
0.0002051584754504719
2.594960074234096e-05
4.080700448127948e-05
0.0001007797389673429
6.253474655819792e-05
2.051996511400902e-05
1.847288879932136e-05
1.510356471980485e-05
4.553910896635326e-05
4.23084694872587e-05
3.738393604355918e-05
0.0001368564023344554
4.041459089390529e-05
2.585360966834173e-05
0.0001148692040059897
0.0001920645815650307
8.39375814646081e-05
9.932260324178145e-05
0.0001379571143341178
5.014574265956257e-05
1.26187489397736e-05
0.0001179276932897392
0.0001298352467341679
7.475313355067754e-05
0.0001840423693379598
0.0001094620565544371
5.901620637244127e-05
4.512432190123396e-05
3.62398211662186e-05
4.350018931144815e-05
4.096333337721853e-05
2.463576993261284e-05
4.727146832904508e-05
2.423020208315807e-05
0.0001389435461997398
0.0001359747923221156
0.0001619823048086832
4.184168212086467e-05
2.695110760240009e-05
1.050656153532705e-05
2.828001789303922e-05
4.287062842281776e-05
4.006183827575297e-05
3.406903543976596e-05
6.11860664683383e-05
7.608985914091108e-05
3.959498395051934e-05
0.0001210771379894893
0.0001045998080762
2.286487073641134e-05
7.051268072932003e-05
1.078476809368546e-05
1.478337447911433e-05
3.48854587507742e-05
2.438864688362323e-05
3.775893071270049e-05
0.0001500861491995291
0.0001261238811526517
9.614239213411022e-05
4.737720467670644e-05
5.090284309581046e-05
0.0001387338142743732
6.645067991373489e-05
2.15136321055669e-05
2.158495804585132e-05
5.276718231032101e-05
1.790690926903429e-05
2.631296769253449e-05
3.046614890840832e-05
8.497259082093321e-05
5.225381582353624e-05
2.555048276536631e-05
4.660097141406373e-05
0.0002349494497564755
5.355979681658248e-05
0.000105068345333481
0.0001960917453247504
9.65760974791648e-05
1.768276645988642e-05
7.71267383674882e-05
0.0001062267712953505
3.908993054282265e-05
9.569561390691131e-05
7.193457442665503e-05
4.215451749103078e-05
3.322855424924931e-05
2.724187439019949e-05
4.746020345882024e-05
3.739536664455144e-05
2.539753723589457e-05
4.185497391011555e-05
2.243201227913911e-05
0.0001542683925977268
0.0001355961687090185
0.0001862266752657698
4.088682945857682e-05
2.653265908764712e-05
1.085423829121214e-05
2.835228118586141e-05
3.944058620292836e-05
3.920989707935929e-05
3.395318245643741e-05
6.108380599121414e-05
7.424969458202018e-05
3.890689150653201e-05
0.0001289766336774787
0.0001145725072618017
2.171506077277004e-05
6.406988970586494e-05
1.078570178496016e-05
1.359383148291483e-05
3.290155794520733e-05
2.459528813103898e-05
3.622870333900664e-05
0.0001466280664631641
0.0001069930218162954
8.756220477538725e-05
4.745669715188498e-05
5.067743074289559e-05
0.0001379655526431684
6.466439301448074e-05
2.214197649821248e-05
2.091408444954024e-05
5.251020280145321e-05
1.775364292198652e-05
2.71405911622943e-05
3.035885591268526e-05
7.899109676692694e-05
5.372748095738275e-05
2.59672952418564e-05
4.403423167298818e-05
0.0002374050450842712
5.422880674385058e-05
0.0001043370883221071
0.0002074477984629071
9.936025067819817e-05
1.841155458937399e-05
7.104093058839817e-05
0.0001087484874988289
3.892184650957427e-05
9.38186541107493e-05
6.469953266990963e-05
4.350225891318952e-05
3.225665845572898e-05
2.645292397065308e-05
4.900352022996173e-05
3.865965413532358e-05
3.183121072536884e-05
4.216871981261874e-05
3.312637541899128e-05
0.0001526156196759447
0.0001896823735617538
0.0003317169387832783
3.203600957029973e-05
1.617085687367912e-05
2.180971506708826e-05
3.762066693154068e-05
2.388715256444113e-05
4.674298416279173e-05
5.525740095961122e-05
8.480815485697194e-05
4.650157082361122e-05
4.43758396543403e-05
0.0001183517366269042
0.0001215276973328361
1.657567818562982e-05
5.822070651634452e-05
1.854567162362331e-05
8.415846687990864e-06
2.659493511399797e-05
3.14424870527617e-05
2.300811655603263e-05
3.919821086013509e-05
2.354823690197152e-05
8.008079513560596e-05
6.067471890658293e-05
4.635365414506982e-05
8.975919158835741e-05
2.10405467228564e-05
3.007249937794491e-05
1.692408335349249e-05
3.348152398486857e-05
7.393224670705883e-05
3.824435025765906e-05
2.251261269446818e-05
5.087187288122067e-05
2.819710820635286e-05
3.195559772447485e-05
2.517329377890144e-05
0.0001610739191448222
6.863912677922975e-05
9.462915735632925e-05
0.0002455658335142687
0.0001174297264585448
5.809222197317928e-05
2.698887895481864e-05
7.812601285749684e-05
4.507908898517022e-05
4.832896818365169e-05
3.900562269028673e-05
5.727444133529843e-05
2.68772235054569e-05
4.691649195867552e-05
5.791303441373376e-05
2.777287862900348e-05
3.94564630120122e-05
4.705468301106849e-05
3.070342954960703e-05
9.912376991648269e-05
0.000176387995359314
0.0003736560912896201
2.564490306201342e-05
2.031366722625772e-05
6.084435032818008e-05
6.312459761309802e-05
2.661005795771883e-05
3.810155684804565e-05
7.370455110488948e-05
0.0001666464857678014
2.890035188521896e-05
8.995813958634615e-05
3.792152117189292e-05
4.087122521440028e-05
1.915459747912047e-05
0.000137207203626582
7.078766993647703e-05
1.556907146602591e-05
3.150792554898946e-05
6.184993789378278e-05
3.60654265175796e-05
6.946972131171981e-05
2.671431116461642e-05
0.0001031818368020942
0.0001290140346867489
5.198054112588699e-05
3.74986941173297e-05
2.850225771984308e-05
3.293657150091008e-05
2.5507082396082e-05
3.036723892585119e-05
0.0001284333020685888
6.105991296664605e-05
1.844702604932125e-05
2.396633778052804e-05
2.178361496350242e-05
2.698859731156738e-05
4.703416228285856e-05
6.767174933789104e-05
5.496234307753364e-05
0.0001521154236092725
0.0002257868679353971
6.916715338063841e-05
0.0001143475851948363
1.621145398249371e-05
6.25964398862519e-05
3.827451503917996e-05
4.187469895907542e-05
3.946232389160577e-05
8.211152193715024e-05
4.708578380528423e-05
0.0001413212422406023
0.0001785925205039295
4.868537943821178e-05
6.33628628138669e-05
3.133082926985206e-05
1.905830574340434e-05
4.277323279056845e-05
0.000111906135779384
0.0001824506868316486
1.819408436871089e-05
2.088170598227278e-05
9.811468877060129e-05
6.084853828017657e-05
4.013083571081163e-05
4.349414327917497e-05
5.079056676931278e-05
0.0002885668106292834
5.701008136844668e-05
0.0001158698032692578
1.92089865567475e-05
3.007508863189188e-05
4.495450527706956e-05
0.0001051381363580002
4.557550860146992e-05
1.774433740467235e-05
5.471672918569284e-05
9.153271068850656e-05
7.446434508321493e-05
0.0001219893683898177
1.978368659954903e-05
0.0001035544403734541
6.853143822882142e-05
5.398815105729875e-05
5.683879120760945e-05
9.476844476175406e-05
9.637405115507167e-05
7.043337158921827e-05
2.832632305167231e-05
0.0001320792896572453
4.538012232948461e-05
2.632763622299548e-05
1.360395221633469e-05
1.056215385678745e-05
2.76568821659372e-05
5.480504358638145e-05
5.877069212517086e-05
8.581333255796242e-05
0.0002553324459184734
0.0001396185643130181
4.895825025781381e-05
0.0001421113129918361
3.182533630220156e-05
8.021479831517625e-05
2.986273007016908e-05
2.921269414247116e-05
3.15726489866087e-05
4.588552474776941e-05