/*--------------------------------*- C++ -*----------------------------------*\
| =========                 |                                                 |
| \\      /  F ield         | OpenFOAM: The Open Source CFD Toolbox           |
|  \\    /   O peration     | Version:  v1812                                 |
|   \\  /    A nd           | Web:      www.OpenFOAM.com                      |
|    \\/     M anipulation  |                                                 |
\*---------------------------------------------------------------------------*/
FoamFile
{
    version     2.0;
    format      ascii;
    class       volVectorField;
    location    "0";
    object      U;
}
// * * * * * * * * * * * * * * * * * * * * * * * * * * * * * * * * * * * * * //

dimensions      [0 1 -1 0 0 0 0];


internalField   nonuniform List<vector> 
924
(
(0.1745005121276079 0.004476240248304686 -0.0303356466418016)
(0.1850882390923276 -0.005892548493782271 -0.03204333299105158)
(0.1521724169707655 0.0106263477139231 -0.007749512244640504)
(0.1930263225069759 0.006875942233128523 -0.0454843367168776)
(0.2127598045853204 -0.004536136721525863 -0.02154907499093038)
(0.2252929175942756 -0.003401225264247714 0.0008846400394925457)
(0.2288015763925495 -0.003731160332895363 -0.0007951927005366295)
(0.2534589635770285 0.003813991132357804 -0.006999659191715949)
(0.2787346232631566 0.001713504603747928 -0.002128085147166499)
(0.2788287868933045 -0.002003870701009613 0.001135933258543975)
(0.3297641371622476 -0.001706601280683876 -0.04194000935441113)
(0.3300924163209333 0.0003724703394459911 -0.05589143683008777)
(0.3050487869056086 0.006257366437281985 -0.09350548432931852)
(0.2938987322124452 -0.005517847161307255 -0.01459904152755162)
(0.2949081894420625 -0.002076262817504673 -0.007720997776803756)
(0.292208484355459 -0.001171483918475787 -0.01288157141715553)
(0.279197941892114 -0.002699598253316828 -0.03433300596924267)
(0.2942467245297721 -0.01106495383999867 -0.0001672448487345087)
(0.2185922000845705 -0.0004849932452984359 -3.92286459870323e-05)
(0.2470363078341242 -0.002541359587386154 0.01608831540202456)
(0.2871013489721596 -0.01036197383886378 0.01445660648435636)
(0.3448240226884163 -0.006525177827650499 0.02267406217945738)
(0.3682574087382707 0.01150300410293869 0.003379037469696508)
(0.3047053516644313 -0.0109791336445325 -0.05233630780751931)
(0.2914385189312685 -0.00203692680740493 -0.02143475346973372)
(0.1751640402998512 -0.002258057419005322 0.0286400829249435)
(0.1567113869779747 0.003714807595037603 0.000121501674818125)
(0.1526503523206576 0.001005642810091629 -0.01985051434292831)
(0.1805428336886888 -6.589492438558459e-05 -0.02877931888139871)
(0.1770781246764804 -0.001509965883433944 -0.02905075716111732)
(0.1577633426883759 -0.0004097346230480668 0.000879292488443304)
(0.1854236045062742 0.005007389766480845 -0.02587528371050576)
(0 0 0)
(0 0 0)
(0 0 0)
(0 0 0)
(0 0 0)
(0 0 0)
(0 0 0)
(0 0 0)
(0 0 0)
(0 0 0)
(0 0 0)
(0 0 0)
(0.4302675532533073 0.008112730742896198 -0.03559733796257396)
(0.486924627627387 0.01206789652583448 -0.06846662042645481)
(0.4047913864886967 0.001609459141183268 -0.01296262129003738)
(0.4695696911085262 0.01154790963161565 -0.07655451734801749)
(0.5113514671144938 0.01417159703449495 -0.1396430071689083)
(0.4914124542561857 -0.006828688624162541 -0.01134846359713055)
(0.4424341057625909 -0.003514766982293432 0.001762910970402813)
(0.4500276409013355 0.01054708424224863 0.0232991747395167)
(0.5180102813829406 -0.0002147198714129286 0.03840910262640248)
(0.5665681305168123 -0.01271042002899354 0.02374910428819702)
(0.6224495235921963 -0.01287743895978448 -0.008011946130459446)
(0.6453791403172174 -0.00534434416971232 -0.06737996822146973)
(0.6191111376941518 -0.02493042348181013 -0.1383508800889831)
(0.6728069546706471 -0.0234281079613532 -0.03787132567988806)
(0.6724284669289213 -0.02075187262837274 -0.03886870588145384)
(0.6961909301513679 -0.01399214794205445 -0.006405407839488944)
(0.7793962825556728 -0.02126444994850383 -0.09044450024634156)
(0.7242372133971511 0.002059961221008529 -0.02390876177326924)
(0.5679719374347477 -0.006452457972072156 -0.01279647950261898)
(0.6085579569286963 -0.01075513538420777 -0.03026170270050851)
(0.7099716794147883 -0.02509289230755067 -0.04965106204151364)
(0.6683126482902145 0.0009184886874948327 0.02356096176455211)
(0.7748182336702398 -0.01973204447288229 0.0697326639101522)
(0.9018506580864308 -0.01905442226513872 -0.01787797820307648)
(0.7954087217512071 -0.007546654592987057 -0.101515674721583)
(0.553080167323689 0.008886130280313915 0.05436752500494561)
(0.4151512060058225 -0.00349866415562352 0.01963825591041057)
(0.4428731121743464 -0.001703604677925707 -0.0245430023467435)
(0.4914531432102283 -0.0007010252254501917 -0.04392583947682512)
(0.4421984286478098 0.01940459842440677 -0.08352626785336745)
(0.4133050347363006 -0.01620882849478574 0.0001516864340520335)
(0.399862565186529 0.001279018935208551 -0.02517796365346702)
(0 0 0)
(0 0 0)
(0 0 0)
(0 0 0)
(0 0 0)
(0 0 0)
(0 0 0)
(0 0 0)
(0 0 0)
(0 0 0)
(0 0 0)
(0 0 0)
(0.5783785009674676 0.007800303070806174 -0.0170275896320109)
(0.6762325699208593 0.01005859482912276 -0.05414730295529909)
(0.6848497976217115 0.01662112209009818 -0.04174057760673638)
(0.6722239318798718 -0.0004610562511422214 -0.05421368491728135)
(0.6891739818583467 0.02604802875739961 -0.1629912889642271)
(0.7225312464831015 -0.009411810856340044 -0.027244320155329)
(0.6645778762999488 -0.006806019314815438 -0.03831177656295914)
(0.6226787727082772 0.01823826924375068 0.01363713518677403)
(0.6673496406451582 0.0005384756056693729 0.07067343487486087)
(0.6851560455760798 -0.02656360995330048 0.06707659553685165)
(0.7455507268289074 -0.02716184870570452 0.02366931860492862)
(0.7117775057654662 -0.0125349251343293 -0.03347105726707159)
(0.7618234012056962 -0.07734750541112685 -0.06760751250905299)
(0.7887900623074915 -0.02991956169381887 -0.08237076187034352)
(0.7479612713364531 -0.04701582961800093 -0.03260903833426215)
(0.8532537555868493 -0.04235601455856626 -0.01251324534609967)
(0.9143709660932742 -0.04291727473501749 -0.09305307702869499)
(0.9305941490467213 -0.01446804022306353 -0.06648854666253726)
(0.7901932775156867 -0.006441884942467994 -0.01145957189578289)
(0.7843252692351501 -0.004765609875245265 -0.105722568005937)
(0.8716234787330994 -0.05397066921484392 -0.1302307986024521)
(0.9367614558243786 -0.005158840836062656 -0.03965215256071222)
(0.9527632133303574 -0.01438558977004615 0.02687869646215124)
(1.095158856100048 -0.05552988731995828 0.008265568046759023)
(1.05058709628412 -0.01582070145875246 -0.07666895981864207)
(0.868972586002743 0.02440996611958518 -0.004040353773717619)
(0.6578506011587942 -0.001082129539005835 0.04718927047913017)
(0.5851654102117646 -0.02436649781769312 0.005343309873005042)
(0.6340914196830491 -0.01126887459846821 -0.02390035059674513)
(0.7037150341120112 0.02350120822959878 -0.07941941539640675)
(0.6958269077513325 -0.01191506616025917 -0.05544600081464638)
(0.6093067703978552 0.002688867877722568 -0.02339684796897905)
(0 0 0)
(0 0 0)
(0 0 0)
(0 0 0)
(0 0 0)
(0 0 0)
(0 0 0)
(0 0 0)
(0 0 0)
(0 0 0)
(0 0 0)
(0 0 0)
(0.7219603703559089 0.02364260096583816 -0.02333069412950451)
(0.7621931431694369 0.00591728213276337 -0.02670658606733471)
(0.8498933397684039 0.01863467906824389 -0.05913517905432948)
(0.853348601624292 0.01352678913391653 -0.04404755842545124)
(0.8024302928508615 0.02443253467097409 -0.137871324430654)
(0.8345034987407483 -0.01183483499217872 -0.01886906527927805)
(0.8419461733971069 -0.01186408924472951 -0.02535251939200613)
(0.7507876353247428 0.02304997422501682 -0.028396125588493)
(0.7912018144867312 0.01008811802644142 0.0500971997084012)
(0.7513369547186386 -0.03844754509819483 0.06917694198576532)
(0.7869291058055847 -0.03457932701020731 0.02339615530218066)
(0.7318881246285197 -0.007126927802921195 0.01356409267232694)
(0.7664182598115478 -0.137204090595399 -0.007923195809094246)
(0.8414375149091903 -0.003653899993494239 -0.1002084646175222)
(0.707218192178656 -0.03938006816957397 0.02610888968422758)
(0.8346835573757971 -0.07060965916051144 -0.01992627138829058)
(0.8737799533281008 -0.05392299561556108 -0.06084759022074446)
(0.9070953284436706 -0.05020114911447518 -0.07347861031443721)
(0.8556227173594089 0.01462199808181898 -0.02798748907724483)
(0.8273993726322726 0.006623603958760617 -0.1660408642975532)
(0.8778026060921252 -0.07374074573812278 -0.1648373443403772)
(1.010804709063744 -0.045254760270414 -0.07918192102525681)
(1.020607081835252 -0.00751028773582459 -0.03345605777424478)
(1.108156542613415 -0.0747776105208338 -0.01333171460263775)
(1.081645177567537 -0.03502545048240099 -0.05860566107513438)
(0.9774249738409285 0.04158275530146335 -0.02491806338087284)
(0.8071822176346932 0.02202435347824198 0.02333469062772684)
(0.7345911763462921 -0.02499262661411231 0.03086806545274062)
(0.631154540389505 -0.03805993076852295 0.0144645751142676)
(0.76250896612095 0.007777316805669024 -0.05086985304979764)
(0.841034909348308 -0.008221338087797979 -0.08504161261617196)
(0.7754719285340925 0.007144725335649015 -0.03601224101096596)
(0 0 0)
(0 0 0)
(0 0 0)
(0 0 0)
(0 0 0)
(0 0 0)
(0 0 0)
(0 0 0)
(0 0 0)
(0 0 0)
(0 0 0)
(0 0 0)
(0.7834733421069299 0.01808416845021795 -0.01412046106803381)
(0.8235633381297764 0.0268242810713014 -0.0003120982858084444)
(0.9008568529164608 0.02121296259381871 -0.03035944188175469)
(0.9656104635734205 0.0282562219724516 -0.03643477333695114)
(1.002372966328716 0.04227352808133668 -0.1118367932444478)
(0.9906798079531779 -0.01441156255293531 -0.06830642489429527)
(0.9522722965194019 -0.05370816434244826 0.03277259333465413)
(0.8536271177348435 0.02981544496104889 -0.06569741773444542)
(0.875092332477702 0.03290550764290128 0.0127278533573128)
(0.8718389575999616 -0.05037436007143068 -0.01604784870641346)
(0.8668231321778721 -0.04917270895610409 0.01123616866111739)
(0.8472846843078672 0.004419902047652783 0.0398672505490176)
(0.8373566149953344 -0.1752260329701897 0.06981041311282767)
(0.7519333347830751 0.08860435829552296 -0.06188393070255317)
(0.7234119968962753 -0.001497172620029586 0.1416695582300379)
(0.7748543202741746 -0.06709720694860495 0.0210567797940555)
(0.8065040567452129 -0.03758757016403044 0.04978756114600266)
(0.8720638357728914 -0.0485293697518651 -0.03977885058307349)
(0.8325375707928645 0.04637409325863848 -0.06897892919558654)
(0.8904265184737999 0.01943731850464272 -0.1406661982590034)
(0.8742630728794467 -0.05966163690452993 -0.1274417919108978)
(1.004775854898438 -0.08935175709026165 -0.06224080629564138)
(1.088552620607028 -0.01298065031352025 -0.05067674002782446)
(1.110873720826625 -0.07113409470951386 -0.02775291047675895)
(1.042381790332587 -0.03437461626023273 -0.04800383776499257)
(1.02431872037783 0.07432634564314436 -0.02573359392380849)
(0.8695170637305808 0.01102281433356476 -0.06531799589324057)
(0.9833815519135118 0.003384216191739005 -0.009209582292510737)
(0.7579892053484805 -0.05041263082146927 0.006614635725803073)
(0.7205423897606923 -0.03200894093537355 0.03533173902930944)
(0.8396543000701235 -0.01219833034007303 -0.06139125737660237)
(0.7802173824440685 -0.007422011991473437 -0.03394774267571178)
(0 0 0)
(0 0 0)
(0 0 0)
(0 0 0)
(0 0 0)
(0 0 0)
(0 0 0)
(0 0 0)
(0 0 0)
(0 0 0)
(0 0 0)
(0 0 0)
(0.7085568724611621 0.003407068137645237 0.03710788834657609)
(0.7956548678794229 0.04169779459682494 0.03966107825409487)
(0.9137619172696266 0.04129473018897283 -0.01166254359301186)
(0.995205376858167 0.03173535359387411 -0.03658775400973978)
(1.048979273042731 0.03634983182463808 -0.08287157765662277)
(1.078395485783075 0.003862676556506129 -0.07318556411991335)
(1.026800934292732 -0.0594221674645407 0.04328112850427294)
(0.9086770610375033 0.04115506715577558 -0.04446532539222819)
(0.9071845300650985 0.06565994930908084 -0.02584653128730157)
(0.976179524157639 -0.06219203050144269 -0.1121177901255624)
(1.04847683943486 -0.0445163045344841 -0.009704442998828769)
(0.9357380639593211 0.01605187360844845 -0.01753800305811207)
(0.9675732012380615 -0.1351259303264342 0.05087609974507918)
(0.7363489918184123 0.1267285607568094 0.02759791526712803)
(0.7959884355796264 0.02297987901889312 0.09028038743962243)
(0.8392524779125188 -0.02329093581302497 0.08672137200888654)
(0.9024602335891949 -0.03203914882126802 0.04387463140564248)
(0.9268970917619305 -0.01512755493502877 0.07725885066575575)
(0.8873815511902885 0.01898625675389989 -0.05316003567548178)
(0.9221197716937578 0.02632885636537736 -0.06168234359843818)
(0.8500373276178949 0.001799228810401749 -0.02630148024108567)
(0.9795507651375097 -0.05263473849829424 0.03059963875097738)
(1.076846683660546 -0.0120418786260306 0.004892115690996557)
(1.07855915471728 -0.04714566920690086 -0.008339573113697251)
(1.070271803627574 -0.03221535050718148 -0.003621118613569092)
(1.054212643380421 0.0988845552489826 -0.01550734857477641)
(0.979122220413678 -0.0461530216906349 -0.04150244303925098)
(1.037987948786923 -0.004375290284193956 -0.06893841642841574)
(1.058101771877071 0.002172479947973593 -0.01903439390820211)
(0.8054210377391413 -0.003258749721959732 0.08379557458208166)
(0.7814285884418682 -0.01418755901854848 -0.01383200229261107)
(0.7251384127949031 0.002026333378835672 -0.00825851133438462)
(0 0 0)
(0 0 0)
(0 0 0)
(0 0 0)
(0 0 0)
(0 0 0)
(0 0 0)
(0 0 0)
(0 0 0)
(0 0 0)
(0 0 0)
(0 0 0)
(0.83993724138948 0.04695847564803528 0.01179146372580906)
(0.7862224570592179 0.03857259811516395 0.1159159545763264)
(0.9469457623011259 0.05620029832310716 -0.01215077627884854)
(0.9655792648971001 0.0405590929434806 0.01429457503210193)
(1.038426239175642 0.0197175649059797 -0.05473154511011355)
(1.139078668805786 -0.0005150992168221515 -0.1233583099146956)
(1.081408494484741 -0.04858253720415785 0.0007995269858397426)
(1.045367278864308 0.04002028346123086 -0.03465857876801107)
(0.9935725066254412 0.09836347460398315 -0.04655579697384027)
(1.108615860073457 -0.09886976440570669 -0.0007986710247279464)
(1.11758840013793 -0.02605962896588298 -0.06913549620462922)
(1.07816308550967 0.03384080494970964 -0.02354029246060078)
(1.050715425994669 -0.02664400759065354 -0.01214945769874096)
(0.8383296420940759 0.1199372807019104 -0.01035236699719357)
(0.7911025727889901 -0.02381627965736685 -0.03582783532882791)
(0.8471306538323834 0.03714960116370749 0.08030287272993968)
(0.8918061643323505 0.03680234273220958 -0.06923561942308751)
(0.9233873806226617 -0.01882446464088943 0.0774336301992085)
(0.9955412098880629 -0.08819596718703805 0.07521631161070726)
(0.9773670364444759 0.04150109590323144 0.00397466642489398)
(0.9059410199371328 0.1002976368618012 0.09738020615577724)
(1.03200884243748 0.01814034872969864 0.1353919048526657)
(1.034512406132974 -0.01185053853151327 0.08567542689286832)
(1.011746243315596 0.02155846238032474 0.03575667628230526)
(1.111109852037246 -0.06659803748958347 0.03806184694042592)
(1.036958228874588 0.1451415410949221 -0.003858482789907506)
(1.028828156400262 -0.05653863443774784 0.01065527854000074)
(1.061251511471521 -0.02723851029477142 -0.04263683147431234)
(1.096271609529244 -0.007465787324157121 -0.0305049639398754)
(0.956385437028454 0.03132638150909241 0.01694216134288073)
(0.8510656726980002 0.02330116534230595 0.01999241723778629)
(0.8324166757146496 0.02810247511576243 -0.0104430995250002)
(0 0 0)
(0 0 0)
(0 0 0)
(0 0 0)
(0 0 0)
(0 0 0)
(0 0 0)
(0 0 0)
(0 0 0)
(0 0 0)
(0 0 0)
(0 0 0)
(0.9267584125446433 -0.01057308226945232 -0.02763291595414139)
(0.9644819346130543 0.1087314975295816 0.08501474083520644)
(0.9382044630896321 0.09745267847148864 0.01456291231796909)
(0.8732690041634347 0.1418527893522663 0.1189773463016554)
(0.9901335868697874 0.09521440791567437 0.1599888732014636)
(1.098084127117254 -0.0183042519552004 -0.04991975607264412)
(1.15155568003951 -0.01371540001522162 -0.06854151193236922)
(1.182726927564312 0.01228701767283029 -0.04403139245774623)
(1.205362198309004 0.07122692674572585 -0.01052641206090492)
(1.224674167041053 -0.1072039665222663 -0.009736247199891634)
(1.149491491544579 -0.03180127857991037 -0.08832706553804616)
(1.156561917614728 -0.01818589837421024 -0.01923019299761577)
(1.15415842917385 0.02859007927541855 0.006727338217868885)
(1.125889677863692 0.06771613586855336 -0.05086225764395624)
(1.122933572903553 -0.03888219755040304 -0.06904332544579167)
(1.001037391525943 0.01228772739818522 0.04398105562835759)
(1.021031616807853 -0.03710720763428432 -0.03018078747075639)
(0.9688015681196842 0.002146825394440696 -0.09954767896252016)
(0.9899979344171014 -0.0536223437287961 -0.006084761314556539)
(0.9411093819402293 0.05745003446224162 0.02695010880957557)
(0.9868101057069628 0.03218167509681627 -0.005566047549423311)
(1.002721337484247 -0.04889859905403837 0.08839110811232226)
(1.062428460458394 0.004173734705900125 0.1581716528046928)
(1.035495804614456 0.09003122822528517 0.00779203168168276)
(1.095157110902454 -0.06762481277487492 0.09625134182352113)
(0.9957857219868838 0.06304751774672204 -0.06346377946731746)
(1.067196172460092 -0.03944512856322286 0.02622853977234056)
(1.080978309710251 -0.04549882508851608 0.02815212576899498)
(1.12263711571604 -0.04279482786895004 -0.004166343809315345)
(1.143839911342441 0.07590054365273714 -0.018863072593626)
(1.02181348236132 0.05129150536516096 -0.05572102713951442)
(0.9600182600770668 0.006231326007918386 0.02412568555910858)
(0 0 0)
(0 0 0)
(0 0 0)
(0 0 0)
(0 0 0)
(0 0 0)
(0 0 0)
(0 0 0)
(0 0 0)
(0 0 0)
(0 0 0)
(0 0 0)
(1.068070842120463 -0.03674236714876707 -0.04781063403835302)
(0.9178387514718226 0.1271388666040925 0.02373853104546041)
(0.9443010790327688 0.1144029379794418 0.0621000588099281)
(0.8824356041456487 0.07503843589844894 0.0160080587910589)
(0.983191063430858 0.1171702049763516 0.1675085110658784)
(1.047119822471836 -0.01067254496858059 0.1001629096182479)
(1.171550066247862 -0.04529626559477509 -0.05366922398552638)
(1.215485499724268 -0.01228736773483513 -0.04054011452519991)
(1.201280470141671 -0.001516410286980042 -0.04393924287816661)
(1.182313676894452 -0.06305358631411065 -0.01957121364156527)
(1.095552684380315 -0.0531355392008851 -0.03613275012181402)
(1.119925637364884 -0.01900316864521714 0.02224612020117618)
(1.107460821262366 -0.008554223614419591 0.0344032348447903)
(1.163140278201188 -0.007713325438424248 0.02872295503856773)
(1.176152431835776 -0.01085887228190602 -0.03233160197731112)
(1.184078627343203 0.01086579289213678 -0.01979470793770926)
(1.209286420498073 -0.003447933488993473 -0.003435422286442755)
(1.146220148415369 0.01975304366051613 -0.03902507602357293)
(1.108028262189746 -0.005552424326111127 -0.02847408978994222)
(1.08174968407861 0.002865350299275387 0.009805272546300599)
(1.084116292283132 -0.0009628722370953941 -0.04203525919533924)
(1.101475917787071 -0.09925144329370102 -0.1055599284349049)
(1.113543621499265 -0.083127620766725 0.03241070241920355)
(1.213198702792976 -0.007175714750751107 0.09872049277451714)
(1.244649860902716 -0.004923003564239223 0.1085175026449499)
(1.150964196548138 -0.0301674762204029 0.0591763565654574)
(1.120519202233937 -0.03635951155967913 -0.02203473818534951)
(1.129502612401087 -0.04244976319052012 0.03400294450071664)
(1.136547352923574 -0.08454534629873212 0.01253353312150458)
(1.072653303605573 0.06548371282141605 -0.0017314451849379)
(1.092973623485785 0.05917255598930893 -0.08673611506379933)
(1.086743097471522 0.06178085831345102 -0.02058557581966817)
(0 0 0)
(0 0 0)
(0 0 0)
(0 0 0)
(0 0 0)
(0 0 0)
(0 0 0)
(0 0 0)
(0 0 0)
(0 0 0)
(0 0 0)
(0 0 0)
(1.040352406627344 -0.01218301116362622 0.01533530861635525)
(1.015995947215672 0.1178390886010556 -0.03588864723796627)
(0.9040971849362726 0.08985256849838144 0.06342980192807866)
(1.008824230827021 -0.003557823310846006 0.0773202428301662)
(0.9803341367955195 0.07884076496761314 0.03123205780464805)
(1.044124659686602 0.0310255237655129 0.1181043653405039)
(1.186633194588566 -0.06201177182665726 -0.03754938016833333)
(1.194546976201761 -0.02480487402869892 -0.007035814762586511)
(1.152782401690906 -0.02688313825648976 0.02784543834896366)
(1.107783806793172 -0.05161828740663997 0.0353317363999656)
(1.088353742866808 -0.0241066397502881 0.007341709846548719)
(1.126433201163599 -0.02290833849483736 0.03691882619085807)
(1.137289069127992 0.001603667914015631 -0.01349245918666981)
(1.119000300466264 -0.02604948632696928 -0.005611612925666985)
(1.172273580113405 -0.01963042819010774 -0.003158431117029783)
(1.204341175742567 -0.01024815036898828 0.01149629980587121)
(1.226682054665517 0.008635257577904483 0.0006458984519629379)
(1.208638360038052 -0.004891708707319566 -0.01518506935927475)
(1.235921563440138 -0.02645736321242189 -0.0004616339205426076)
(1.257165394337355 -0.02595444301978961 -0.02107298205683169)
(1.263030610576823 -0.08069421374624536 -0.0186090000334179)
(1.245434612237824 -0.0188815284165376 -0.03648093954769802)
(1.216241659194353 -0.00830423511301848 0.005042450309184862)
(1.233973192923016 -0.03371221465371795 -0.02496615685761455)
(1.145641985507889 -0.008964867813896576 0.05200563509242727)
(1.194401384933269 -0.03328477679182726 0.06367360692946727)
(1.157248896649376 -0.03696430195530875 -0.03136736017999806)
(1.136091268712106 -0.02792915621469864 0.03314470714941569)
(1.131597499571598 -0.03194471052026279 0.008319333255698558)
(1.106864972569487 0.0293847501248421 -0.005996089057235227)
(1.131957406637981 0.02020538874081656 0.01999746396540983)
(1.066395324376603 0.08123121543191514 0.005258710230027636)
(0 0 0)
(0 0 0)
(0 0 0)
(0 0 0)
(0 0 0)
(0 0 0)
(0 0 0)
(0 0 0)
(0 0 0)
(0 0 0)
(0 0 0)
(0 0 0)
(1.151664847509549 -0.001869179210280254 0.02362345449314122)
(1.117327557198436 0.04111509185910055 -0.04303480709512434)
(1.209342828685582 0.01475341574278757 -0.06166261538562317)
(1.199765005927605 0.0250528105664915 -0.02750803480186762)
(1.178884450097727 0.05844144131007573 -0.01265877472751972)
(1.184372120522388 0.02626119710227478 0.04605281806302614)
(1.231081090528019 -0.02835657127826727 -0.009289218522351332)
(1.214248452346159 0.02994863765673152 0.02366194617892316)
(1.174614360337316 -0.02934203198857631 0.008310515105158161)
(1.149300147394518 -0.01190511627689904 0.08962890648533038)
(1.123490163882456 -0.01688395634251529 0.0379158179106981)
(1.154666798238469 -0.02159521829698328 0.02197741531200278)
(1.180159631016324 -0.01981036608533417 0.002102603772438859)
(1.200734473528164 0.002948349930896888 -0.04841551113788142)
(1.201898168678721 -0.03604893061913669 0.003025293547485353)
(1.178010953714952 0.003658449773557 0.05238160158636226)
(1.133356220883467 0.001973432317571788 0.0692887870327506)
(1.163050581010242 -0.003955952279861011 0.01168729004092649)
(1.201530191989053 -0.05538024160159004 -0.01600309860123808)
(1.160826055091556 -0.07776314498748504 -0.05525822781122558)
(1.125532314670894 -0.09342960079621479 0.005508580950314035)
(1.145202751221599 -0.01978515159225566 0.01144723454119452)
(1.224221601834153 0.02135619788286115 0.04699648366788952)
(1.242164382669586 0.02458186337614162 -0.03111703896386615)
(1.214891670733512 -0.006260031990172866 -0.007797936100497816)
(1.188066358559146 -0.03357944814764011 -0.01148408896489044)
(1.18071686289554 -0.01389369472891235 -0.05555627224930804)
(1.137422028175725 0.0041068601266595 0.008395428830469351)
(1.14521320116986 0.01262932427245292 -0.02386250530265681)
(1.164953858543924 -0.005003042652711582 0.05532858454436004)
(1.114149646504295 0.03315541251032659 0.03046832672377501)
(1.175689958013982 0.008485400916773501 0.01894467635234311)
(0 0 0)
(0 0 0)
(0 0 0)
(0 0 0)
(0 0 0)
(0 0 0)
(0 0 0)
(0 0 0)
(0 0 0)
(0 0 0)
(0 0 0)
(0 0 0)
(1.148091721979529 0.007360569589376175 -0.02447352336476567)
(1.12907316632954 0.01570062672695121 -0.05281920616412787)
(1.19455631390338 0.05260085475711115 -0.004177370110345598)
(1.172767709291481 0.04625963817123809 -0.007299930760009166)
(1.180017191472597 0.0277974630413856 -0.03815103668990449)
(1.21643805519503 0.0365782940063081 -0.003032954794074044)
(1.246130509591336 0.004048242913209254 -0.01407082111689222)
(1.192235744898594 0.06335988444924937 0.02922702793497577)
(1.222028194216093 -0.01091734435494571 0.04982927932798508)
(1.168421798385025 0.01562473775739581 0.08965832469944036)
(1.147734868868076 -0.005537192357238229 0.03495276621758596)
(1.206558060924407 0.01118225636969502 -0.01337517723564514)
(1.213828242170359 -0.005174786189430701 -0.0627975455927423)
(1.204626888572942 0.01178795961475589 -0.03983346426389731)
(1.204581469017957 -0.01384346346660393 0.003141378258009635)
(1.190043604243262 0.02692444018171789 0.04986702244259193)
(1.152971850696026 0.01482243066585425 0.1259794983203517)
(1.141039344046697 0.01071676589199708 -0.004819795557905093)
(1.129137215830951 -0.03211641954100808 0.01001217219694952)
(1.066630717058508 -0.1055942697061172 -0.06035402650364066)
(1.002269100641949 -0.04660820063603759 0.06470191756676229)
(1.072432693120287 -0.009517364649360626 0.09481524408040153)
(1.190466751161671 0.03058012046129687 0.02647139839134654)
(1.167413165222825 0.01631965351020576 -0.02701357533997953)
(1.166823846644723 0.01111331895093637 -0.01546783798685207)
(1.075415092066089 -0.05740269011127447 -0.02142548490248989)
(1.119895865707859 -0.02606007911353431 -0.08250636337545789)
(1.157644548331613 0.04276306977172779 -0.02468291618685902)
(1.156803596171627 0.01881718500346739 -0.0165842992965324)
(1.119744342516677 0.05120942947619863 0.04994938039858974)
(1.098801919620066 -0.04096062357685101 -0.04855347734618017)
(1.136988726479431 -0.0230984666728678 -0.04650629871893777)
(0 0 0)
(0 0 0)
(0 0 0)
(0 0 0)
(0 0 0)
(0 0 0)
(0 0 0)
(0 0 0)
(0 0 0)
(0 0 0)
(0 0 0)
(0 0 0)
(1.05715259202006 0.01186279537378026 -0.03280994706906446)
(1.100014885784916 0.02565367256231112 -0.09122215792397344)
(1.194890500080759 0.08856304522286343 -0.01900598801635228)
(1.159256063536632 0.04774787274699794 -0.04288090801626182)
(1.125747402331611 -0.001417507451859908 -0.05269313502105235)
(1.182665059987325 0.004047261127988579 -0.04090707660659573)
(1.203489498514527 0.03755399008474041 0.01348007689306693)
(1.172618301203524 0.06784950307299709 0.06229561600327198)
(1.233460957104263 -0.004181562165433451 0.06789897516691702)
(1.167756329017499 0.03056317986696723 0.06502384170527943)
(1.18895919094009 -0.03639645099882763 0.03359363774384769)
(1.213765930719689 0.02354366692299517 -0.03095139237979748)
(1.188606070249266 -0.01405196509028996 -0.05296603899811601)
(1.148367602131694 0.01795501598013186 -0.03593389604600811)
(1.148526924672369 0.01459975687364312 0.08351119416730529)
(1.166964296087863 0.0287752815153066 0.1065118790158345)
(1.142579057974523 0.03641501872532658 0.09585877367400686)
(1.158407508999331 0.03603527791889014 -0.034998873912911)
(1.104282610750715 -0.05555321980687963 -0.05518412301796911)
(0.964364041806012 -0.04869056116150739 0.02184808968283622)
(0.9471498075343143 -0.05084113864151676 0.0757513025636054)
(1.024299875808018 -0.03964914667185421 0.07824483047216672)
(1.105960507858951 -0.0468471757208383 -0.02348218681763891)
(1.135554965597643 0.03497374435649996 -0.05314918266473742)
(1.050271240740232 -0.001914705820936628 -0.008462715664858303)
(1.04615359216497 -0.0170565435315925 0.01211417995958349)
(1.095984015768182 0.02565064220173721 0.02653560634355133)
(1.122662464303441 0.04531770168855361 -0.01487804554575869)
(1.132337454136838 0.06371991259120012 0.02337724758734867)
(1.145985157210687 0.02645631584916044 -0.03608425501610632)
(1.110743189821285 -0.05173881874969347 -0.04495448269880079)
(1.07366494679176 -0.03488394297242496 -0.04069823097230853)
(0 0 0)
(0 0 0)
(0 0 0)
(0 0 0)
(0 0 0)
(0 0 0)
(0 0 0)
(0 0 0)
(0 0 0)
(0 0 0)
(0 0 0)
(0 0 0)
(1.02446457344999 0.01872283149700228 -0.06337756939476898)
(1.138438478369866 0.04134555914301369 -0.08916470529072931)
(1.171527968451895 0.09014362322697089 -0.02014543851335165)
(1.188050730100726 0.05030547734891491 -0.04444352842210259)
(1.171686244557346 -0.004462395438958841 -0.07164806574868658)
(1.148186480783689 -0.02945871059895121 -0.0175912978261338)
(1.161817799733778 0.0413758444283561 0.06470863305815358)
(1.18232533949434 0.03850390501906113 0.05559307419703276)
(1.219287124610259 -0.001904157422920083 0.04081186869907705)
(1.19300411374377 -0.01102526469362618 -0.01320981183314872)
(1.130419593796695 -0.06729918580653926 0.05459932644686703)
(1.19124990992144 0.06206926285162138 -0.07367395438332537)
(1.153672545926381 -0.0182277609744698 -0.04992836288619307)
(1.096899679835229 0.02088434082197051 -0.007029077430483688)
(1.122100967061856 0.03814880688287749 0.03294347908433218)
(1.109361327249627 0.06166706794631481 0.06976114125051475)
(1.137635120672497 0.01533128923805599 0.01680975678583823)
(1.167253605833741 0.04157332889499566 -0.0186710906619744)
(1.023113497983431 -0.002249969725115549 -0.05803055244438719)
(0.9190625610088491 -0.02900327976612679 0.06330429460270744)
(0.9395549705698875 -0.01565872444060165 0.03672164020815747)
(1.042469700867072 -0.03376067736927161 -0.02655646240399982)
(1.030161096657999 -0.1023546141169712 -0.03967070365525763)
(1.091373614919785 0.05863725703059487 -0.06883039080721608)
(1.105325346024598 0.03722411448302351 -0.02923446253272973)
(1.047776355442006 -0.004225687663621391 -0.003592993782882356)
(1.096772801982877 0.03888508834594746 0.0149797045991128)
(1.105806993927331 0.03675178287690414 -0.02046975424892784)
(1.120454219222139 0.06448211582784266 -0.02327868734445622)
(1.102328822528498 -0.01482097372946195 -0.04685601819718156)
(1.045593631571201 -0.007561712151929403 -0.02406933798699753)
(1.003964619744224 -0.001284411906738446 -0.05298433182964394)
(0 0 0)
(0 0 0)
(0 0 0)
(0 0 0)
(0 0 0)
(0 0 0)
(0 0 0)
(0 0 0)
(0 0 0)
(0 0 0)
(0 0 0)
(0 0 0)
(1.02802742165608 0.01899402314143485 -0.09768642311713718)
(1.128209838352108 0.06356739994922268 0.001422033854469408)