/*--------------------------------*- C++ -*----------------------------------*\
| =========                 |                                                 |
| \\      /  F ield         | OpenFOAM: The Open Source CFD Toolbox           |
|  \\    /   O peration     | Version:  v1812                                 |
|   \\  /    A nd           | Web:      www.OpenFOAM.com                      |
|    \\/     M anipulation  |                                                 |
\*---------------------------------------------------------------------------*/
FoamFile
{
    version     2.0;
    format      ascii;
    class       volScalarField;
    location    "10000";
    object      nut;
}
// * * * * * * * * * * * * * * * * * * * * * * * * * * * * * * * * * * * * * //

dimensions      [0 2 -1 0 0 0 0];


internalField   nonuniform List<scalar> 
2838
(
4.025736625819082e-06
4.024262763899794e-06
4.086691463769335e-06
4.08847941327075e-06
4.088004904108806e-06
4.025493976933523e-06
4.023721143909493e-06
4.024214613414619e-06
4.023134252092756e-06
4.023393815677141e-06
4.023244099985561e-06
4.023938592794902e-06
4.023797484988128e-06
4.023565376761606e-06
4.023146499862329e-06
4.02347422565323e-06
4.023364350136674e-06
4.024061112607996e-06
4.024093080597757e-06
4.024148913502539e-06
4.023941033384405e-06
4.023473899437253e-06
4.02410104921725e-06
4.022737236746037e-06
4.023034716116442e-06
4.022917403436209e-06
4.024194208247911e-06
4.023757946872267e-06
4.023952309619572e-06
4.023561364955134e-06
4.023693803242329e-06
4.024033522571526e-06
4.023138822959246e-06
4.023681060680641e-06
4.023833095301533e-06
4.023692605495216e-06
4.023745927032293e-06
4.024049845733178e-06
4.022847363686224e-06
4.023434956323311e-06
4.023019016923342e-06
4.023750370504833e-06
4.086698665769307e-06
4.088502171068572e-06
4.026895661065318e-06
4.085370532448579e-06
4.026761794050018e-06
4.086784852538395e-06
4.088480150234713e-06
4.087966966059303e-06
4.089532367837499e-06
4.089105578568323e-06
4.088405343360529e-06
4.088706867069128e-06
4.088387949767851e-06
4.025479458633266e-06
4.023757232366624e-06
4.02420678811991e-06
4.023448977511259e-06
4.023968808233969e-06
4.024135182147972e-06
4.023537435320132e-06
4.02349066347771e-06
4.023651644438748e-06
4.023248851747231e-06
4.023980325627366e-06
3.298108914746912e-06
3.291834190821285e-06
3.993961430260322e-06
4.04048720719001e-06
4.030009875066855e-06
3.30451886990769e-06
3.287455858604587e-06
3.291081344192541e-06
3.28370525189139e-06
3.28472379342103e-06
3.284267454658143e-06
3.286553110746552e-06
3.287869810833117e-06
3.288173643171791e-06
3.286220806203432e-06
3.285283796274969e-06
3.281524068866013e-06
3.289898652447272e-06
3.297566041599883e-06
3.293621446850405e-06
3.291985901439619e-06
3.283001098801563e-06
3.286500897180022e-06
3.283240650140756e-06
3.28444313307232e-06
3.283407792533473e-06
3.289335172804405e-06
3.292902649087871e-06
3.292177354320044e-06
3.288040696771944e-06
3.291954293031853e-06
3.292813126610849e-06
3.284065139882108e-06
3.287637754835692e-06
3.290857343157503e-06
3.286472697408301e-06
3.291112756343701e-06
3.292323529884982e-06
3.283008014416044e-06
3.286147262116144e-06
3.281643248133207e-06
3.285369573066013e-06
3.994004782059751e-06
4.039792052681815e-06
3.31358440719127e-06
3.976247279233871e-06
3.311771020482292e-06
3.996398757129991e-06
4.040563594053349e-06
4.030271740842526e-06
4.053992139297168e-06
4.050294301592873e-06
4.034657693277127e-06
4.0382267682114e-06
4.035177542104382e-06
3.304376146521997e-06
3.287512465035843e-06
3.291123581847328e-06
3.285958285701027e-06
3.287564509426425e-06
3.291656642378905e-06
3.286428684792443e-06
3.285732774483137e-06
3.283756892067747e-06
3.282039581843033e-06
3.288317409575334e-06
2.057856887170337e-05
2.054929983434852e-05
2.184828621368416e-05
2.195845548737346e-05
2.193603012035341e-05
2.065883160267366e-05
2.050575358742167e-05
2.053868808291403e-05
2.049626013204451e-05
2.049935400980435e-05
2.052510037368521e-05
2.05206493293852e-05
2.049888323865336e-05
2.046195025821752e-05
2.050935555237832e-05
2.051257602236662e-05
2.049003150496182e-05
2.052833766311684e-05
2.055491833082763e-05
2.054641301323369e-05
2.052701908549731e-05
2.048407558675052e-05
2.05143965165576e-05
2.050239527675662e-05
2.050199941202854e-05
2.049844724986436e-05
2.052249867388659e-05
2.051728244490417e-05
2.049973931949521e-05
2.047012285586969e-05
2.050282997495724e-05
2.054059543270953e-05
2.051020046423833e-05
2.051315567874648e-05
2.050436686090996e-05
2.045920547265695e-05
2.046633073788204e-05
2.0520384311708e-05
2.050161148759726e-05
2.049890174071328e-05
2.047233014785259e-05
2.050387064383339e-05
2.184790967309075e-05
2.19572403537949e-05
2.072663547723205e-05
2.181325844159971e-05
2.07102113122253e-05
2.185920957381483e-05
2.195872004012792e-05
2.193521023033613e-05
2.199111881342987e-05
2.197693823764067e-05
2.194199998113064e-05
2.194657250750802e-05
2.19454137026484e-05
2.065738811913736e-05
2.050450865368248e-05
2.0537860018327e-05
2.053302004062519e-05
2.052317811280542e-05
2.053352970330593e-05
2.051321783092459e-05
2.047975071603482e-05
2.044412139747262e-05
2.048060680072272e-05
2.050672602496224e-05
7.649463909045162e-05
7.645426529205884e-05
7.757275696018546e-05
7.772738052709079e-05
7.769782112005201e-05
7.658251355360904e-05
7.639786190781807e-05
7.643661390352107e-05
7.635297906464998e-05
7.636646233311448e-05
7.643209812374703e-05
7.642704590459755e-05
7.638047308112478e-05
7.63034258251225e-05
7.638568866766601e-05
7.636214086795864e-05
7.638319610826861e-05
7.646160589493013e-05
7.648696977675001e-05
7.646008256365839e-05
7.64399699649661e-05
7.636558362470238e-05
7.640505413339778e-05
7.642813087504349e-05
7.642196433654652e-05
7.640590967785644e-05
7.642585224863312e-05
7.642470080746067e-05
7.638904758485533e-05
7.633204446324118e-05
7.634030667278067e-05
7.643181640450811e-05
7.644316707961414e-05
7.643245456185637e-05
7.642482050588253e-05
7.639568507107844e-05
7.6334136760209e-05
7.63832121426222e-05
7.640080887280153e-05
7.64036281090113e-05
7.633687366695537e-05
7.638287238461127e-05
7.757117143688963e-05
7.772680352245355e-05
7.666661524591692e-05
7.752983610769555e-05
7.664173327744363e-05
7.759175822437398e-05
7.772762646058108e-05
7.769470726342069e-05
7.773668988543826e-05
7.772378458545516e-05
7.769183255039142e-05
7.768508284832385e-05
7.770206997979607e-05
7.657450210645993e-05
7.639627566788165e-05
7.643946184135767e-05
7.644865130684857e-05
7.641374030514447e-05
7.642279372815323e-05
7.642058462500486e-05
7.636417745223996e-05
7.627872250657351e-05
7.637481391092021e-05
7.641853970552781e-05
0.0002184318756307311
0.0002183824709670513
0.0002189869069772811
0.0002191116891463147
0.0002190913414704896
0.0002184765952471543
0.0002183330948556688
0.0002183585654007117
0.0002182866793461432
0.0002182595160022889
0.0002183575059705074
0.0002183761824944976
0.0002183118698432993
0.0002182223627830096
0.0002182995013345466
0.0002182763039407961
0.0002183292147858567
0.0002184225819597284
0.0002184434701911781
0.000218401559348307
0.0002183897531852406
0.0002183509844017028
0.0002183345381225121
0.0002183476885101404
0.000218382096414049
0.0002183716154887991
0.0002183725256067244
0.0002183706187963919
0.0002183530283506519
0.0002183319894097683
0.0002182778764448111
0.0002183452819712885
0.0002183987938843945
0.0002183950318586877
0.0002183870927789582
0.0002183564555193221
0.0002183008845462919
0.0002182953542596071
0.0002182832587991199
0.000218333160315863
0.0002182701619469237
0.0002182995142904645
0.0002189769478197861
0.0002191131437292377
0.0002185378559555257
0.0002189615580002126
0.0002185137708517189
0.000219004507537767
0.0002191107598633203
0.0002190844809959843
0.0002190979737425693
0.0002190921909017629
0.0002190661815322426
0.000219053331914903
0.0002190893304189098
0.000218456145686527
0.0002183310085960825
0.0002183663982066119
0.000218379319367962
0.0002183242236365095
0.000218325915605352
0.0002183454199762379
0.000218303028913083
0.0002181941706097277
0.000218322856312654
0.0002183976787431129
0.0005786421863145488
0.0005785933535774275
0.0005787748896680144
0.0005788380513622619
0.0005788304027982291
0.0005786383839695977
0.0005785563414333649
0.0005785818105819257
0.0005785056779979969
0.000578521487484897
0.0005785673751299051
0.0005786000389361687
0.0005785480110717408
0.0005785333374308143
0.0005785369283001786
0.0005785125721638577
0.000578555115639819
0.0005786129094275965
0.0005786406521005546
0.0005785793002920494
0.000578602219162317
0.0005785783105500191
0.0005785789132850584
0.0005785957684616955
0.0005785646440189108
0.0005785680421641518
0.0005785984975019877
0.0005785978532595013
0.0005785354021476972
0.0005785639275194115
0.0005785431743271803
0.0005785441710656393
0.0005785695297178253
0.0005785926047124494
0.000578611770163247
0.0005786107463413365
0.000578530611015334
0.0005785487890615896
0.0005784802926493514
0.0005785404541243048
0.0005785411861898855
0.0005785087928278199
0.0005787473961542016
0.0005788355448789986
0.0005786565377463246
0.0005787714430865428
0.0005786424439412226
0.0005787826333190347
0.0005788344575944149
0.0005788261758662937
0.0005788033759801615
0.0005788426166395515
0.00057881873340239
0.0005787952154554349
0.0005787981591435767
0.0005786078215247902
0.0005785534271436275
0.0005785834995847944
0.0005785495869221055
0.0005785511629029384
0.0005785694294009869
0.0005785337375063903
0.0005785599869098408
0.0005784517005323747
0.0005785437722979487
0.0005786134385380457
0.001306136543688479
0.001306124543175173
0.001306143023265085
0.0013061478903054
0.001306148269969146
0.001306129324359809
0.001306109056343356
0.001306125207775429
0.001306086515222826
0.00130608756806597
0.001306112581877812
0.001306116525609565
0.001306105088076577
0.001306108907703304
0.001306094322676471
0.001306097617662385
0.001306105200449283
0.001306144870338433
0.001306130395916399
0.001306122377396636
0.001306144418588873
0.001306117766575559
0.001306111129268263
0.001306124225853158
0.001306110836018368
0.001306120785119468
0.001306114460164945
0.001306124672789741
0.001306086462213215
0.001306099197660321
0.001306116568046662
0.001306100167368651
0.001306102419716662
0.001306110121418842
0.001306113838164969
0.001306127092127893
0.001306119322768339
0.001306092978690304
0.001306100985552763
0.001306100777919138
0.001306111953073781
0.001306077970963247
0.001306113925335251
0.001306139327336301
0.001306124069008499
0.001306136619775745
0.001306123783589475
0.001306140501381035
0.001306144084894601
0.001306145159216878
0.001306128695943065
0.001306148305971707
0.001306139888089629
0.001306133604386098
0.001306123157185271
0.00130609808296474
0.001306103999115791
0.001306117798887399
0.001306103685467572
0.001306092785283072
0.001306104023471202
0.0013060922254194
0.001306104134839058
0.001306081537484871
0.001306106062438238
0.001306132019208107
0.002261627311732224
0.002261622674818469
0.002261622020148369
0.002261618298403185
0.002261617649259461
0.002261620253222793
0.0022616183199572
0.002261621265706876
0.002261614621466773
0.002261615105981255
0.002261618256083944
0.002261622540711143
0.002261616677711398
0.002261613817168381
0.002261613908042663
0.002261616918955377
0.002261621200247097
0.002261631230436353
0.002261625563032192
0.002261619416923143
0.002261624199522207
0.002261624254824513
0.002261617056494231
0.002261620512214624
0.002261612531276102
0.002261612035916865
0.002261614809583193
0.002261616088108889
0.002261605176240581
0.002261606961782868
0.00226161176647635
0.002261616814418573
0.002261613533256399
0.002261612995346465
0.002261615267465677
0.002261620523604853
0.002261622091693271
0.002261614838066165
0.002261616139910675
0.002261614937041507
0.002261618008899023
0.002261606908944226
0.002261608346006594
0.002261610587500846
0.00226161346914132
0.002261615450695815
0.002261615618783593
0.002261618986810762
0.002261613221675125
0.002261612884973362
0.002261611659267966
0.002261614386972168
0.002261610279331217
0.002261610479859356
0.002261609463893103
0.002261604911783799
0.002261614155978264
0.002261615208285168
0.002261617611874702
0.002261611044934854
0.002261612871608896
0.002261611585029384
0.002261613457956333
0.002261612712924824
0.002261619011684762
0.002261630383669159
0.003171103316431196
0.003171099814621695
0.003171099479371125
0.003171098165511589
0.003171098222103725
0.003171099921671788
0.003171099058776334
0.003171099618643466
0.003171099174961901
0.003171098545047865
0.003171100235185623
0.003171101438513996
0.003171099792291767
0.003171098354760098
0.003171099204289431
0.003171101082531853
0.003171103930964546
0.003171105310704956
0.003171102730558271
0.003171098506646629
0.003171098017232906
0.003171098713810099
0.00317109771197271
0.003171098418757982
0.003171095966908553
0.003171094817746388
0.003171095632645843
0.003171094396882405
0.003171091254465907
0.003171091092260709
0.003171092395882608
0.003171096144508085
0.003171097435930518
0.003171097226788351
0.003171098494617014
0.003171100906633783
0.003171101104159855
0.003171098899970866
0.0031710985007025
0.00317109791291076
0.003171097786856181
0.003171096806756089
0.003171096331179855
0.003171096347819639
0.003171097446365212
0.003171098536081385
0.003171098080628626
0.003171098978651292
0.003171097797962199
0.003171096803138655
0.003171097211921005
0.003171097327664718
0.003171096349185362
0.003171096213609176
0.003171097208201974
0.003171095896870286
0.003171098044782157
0.003171099893333881
0.003171100878079384
0.003171098639232239
0.003171097820743566
0.003171098140004036
0.003171097870888598
0.003171098539325331
0.003171101200542432
0.003171104804936695
0.003908933455004431
0.00390893097113755
0.003908930622918555
0.003908930315988481
0.003908930578142144
0.003908931644203088
0.003908931370417559
0.003908931493374841
0.003908931802804564
0.003908931665673536
0.00390893248017885
0.003908933006188134
0.003908932790692348
0.003908932270605154
0.003908932706875944
0.003908933821094806
0.003908934814213717
0.003908934878297953
0.003908933284817117
0.003908930291769429
0.003908928685928198
0.003908928778048239
0.003908928860567788
0.003908929651705117
0.003908929225049517
0.003908928265822897
0.003908928539314857
0.00390892765417645
0.003908926122581639
0.003908925577178705
0.003908925820192753
0.003908927945284026
0.003908929814765601
0.003908930574080826
0.003908931864909727
0.003908933053773649
0.003908933308766193
0.003908932385508487
0.003908931664422481
0.003908931086600536
0.003908930452663659
0.003908930503400232
0.003908930945844306
0.003908931319008442
0.003908932131571314
0.003908932828711438
0.003908932585531639
0.00390893261912878
0.003908932257404346
0.003908931561705686
0.003908931853533466
0.003908931814030509
0.003908931655107905
0.003908931577915829
0.003908932299984385
0.003908931984454338
0.003908932278933255
0.003908933299822759
0.003908933583998197
0.00390893291130374
0.003908931754580357
0.003908931803224863
0.003908931526023378
0.003908931814268619
0.003908932810980654
0.003908934100865502
0.004474694843321463
0.004474693203626424
0.004474692824331208
0.004474692679906094
0.004474692975263149
0.004474693693442691
0.004474693685584177
0.004474693783333279
0.004474694279420943
0.00447469433101657
0.004474694889260476
0.004474695237112394
0.004474695324987988
0.004474695232723492
0.00447469543329189
0.004474695828499029
0.004474695986049032
0.004474695597633441
0.004474694324829582
0.004474692364012373
0.004474690816783053
0.004474690708656642
0.004474690801046607
0.00447469148675357
0.004474691513723245
0.004474691188761449
0.004474691263729127
0.0044746907069519
0.004474689915267119
0.004474689366791964
0.00447468938276575
0.004474690433280805
0.004474691856111411
0.004474692915958553
0.004474694173215539
0.004474695065547173
0.004474695355717614
0.004474694998670689
0.004474694493516095
0.004474694076560985
0.004474693547301117
0.00447469364112747
0.004474694185220566
0.004474694724493637
0.004474695528308138
0.0044746962131132
0.004474696219059973
0.004474696110701769
0.00447469603305316
0.004474695565574337
0.004474695765034246
0.004474695709344042
0.00447469574651216
0.00447469557149372
0.004474695824856803
0.004474695604753423
0.004474695358955104
0.004474695598703751
0.004474695623615473
0.00447469530758135
0.004474694568810628
0.004474694439473556
0.004474694242916786
0.00447469438347924
0.004474694660812489
0.004474695203840971
0.004899813618902427
0.00489981255598264
0.004899812247890604
0.004899812150293809
0.004899812400552699
0.004899812871802217
0.004899812969379833
0.004899813110354257
0.004899813620030616
0.004899813827038532
0.004899814298486771
0.004899814524569289
0.00489981462952298
0.004899814638446166
0.004899814720639385
0.004899814690972589
0.00489981453280477
0.004899813874270133
0.004899812735021399
0.004899811412797668
0.004899810138948781
0.004899809933270036
0.004899809970786106
0.004899810426541156
0.004899810601222981
0.004899810522861791
0.004899810563618814
0.004899810244087882
0.004899809844881416
0.004899809461670753
0.004899809435320961
0.004899809981633413
0.004899810894598863
0.004899811858926748
0.004899812950578391
0.004899813768960407
0.004899814158451782
0.00489981411964976
0.004899813920857806
0.00489981374819016
0.004899813514535918
0.00489981361956957
0.004899814123122266
0.004899814696511878
0.004899815396793167
0.00489981604227962
0.004899816247682252
0.004899816234916679
0.004899816253031792
0.004899816039412396
0.004899816191433809
0.004899816128130807
0.004899816176655435
0.004899816029892506
0.004899815852129375
0.004899815497078648
0.004899814903117892
0.004899814761660119
0.00489981454608168
0.004899814232922971
0.004899813840208082
0.004899813683404654
0.004899813552355927
0.004899813642551592
0.004899813617727346
0.004899813867750943
0.005211891396728948
0.005211890679861616
0.00521189047910134
0.005211890390226005
0.005211890589772547
0.005211890966407446
0.005211891097520745
0.00521189129773723
0.005211891766119251
0.005211892056096486
0.005211892435108864
0.005211892616199424
0.005211892701852162
0.005211892720985217
0.00521189272886273
0.005211892504046902
0.005211892149707028
0.005211891390316561
0.005211890370994984
0.00521188941445308
0.005211888411270166
0.005211888156101826
0.005211888128122123
0.005211888339626451
0.005211888521323917
0.005211888524219136
0.005211888556127703
0.005211888398914385
0.005211888231439384
0.005211888023193197
0.005211888004894472
0.005211888341097348
0.005211888919647545
0.005211889687218915
0.005211890566306924
0.005211891317980646
0.005211891786176153
0.005211891981225141
0.005211892034031216
0.005211892111526397
0.005211892171615872
0.005211892349912205
0.005211892869669453
0.005211893401017014
0.005211893998548017
0.005211894538006285
0.005211894829698467
0.005211894968704862
0.005211895001120379
0.00521189500034084
0.005211895121142041
0.005211895032433583
0.005211895060243268
0.005211894894539007
0.005211894513701134
0.005211894028205382
0.005211893282032401
0.00521189282872059
0.005211892433010806
0.005211892055770355
0.005211891818486984
0.005211891658677573
0.005211891551796562
0.005211891614535539
0.005211891507866757
0.005211891612631719
0.005431109784703211
0.005431109300365547
0.005431109172938466
0.005431109101692261
0.005431109249878186
0.005431109562874672
0.005431109759310914
0.005431110036253
0.005431110437090485
0.005431110764007912
0.005431111074362326
0.00543111122814971
0.005431111295782345
0.005431111316418192
0.005431111268157874
0.005431110945188117
0.005431110509934034
0.005431109770703354
0.005431108859390421
0.005431108115541203
0.005431107299689158
0.00543110699017775
0.005431106912627301
0.005431106958139279
0.005431107073868336
0.005431107089792838
0.005431107110535264
0.005431107056040002
0.005431107020553611
0.005431106961588844
0.005431106966299555
0.005431107229841994
0.005431107623354813
0.005431108218533659
0.005431108901412368
0.005431109584340592
0.005431110045542201
0.005431110449471589
0.005431110674819821
0.005431110965971243
0.005431111253295486
0.00543111154712802
0.005431112105899418
0.005431112584146999
0.005431113107840934
0.005431113554840201
0.005431113859223399
0.005431114068933836
0.005431114154550602
0.00543111419967105
0.005431114300559392
0.005431114181206582
0.005431114172531975
0.005431113969423301
0.005431113474151671
0.005431112923170639
0.005431112138310645
0.005431111507863648
0.005431111006838825
0.005431110553726706
0.00543111034655912
0.005431110170688102
0.005431110044686688
0.005431110098855095
0.005431109935374736
0.00543110999211857
0.005572704345479687
0.005572704019838237
0.005572703942690764
0.005572703899650791
0.005572704033456772
0.00557270429748327
0.005572704535244191
0.005572704869147584
0.005572705222206585
0.005572705559729523
0.005572705821517398
0.005572705953819123
0.005572706006301402
0.005572706022163091
0.005572705944842659
0.005572705593683388
0.0055727051405036
0.005572704470926998
0.005572703667130138
0.005572703056748729
0.005572702379022095
0.005572702040685934
0.005572701887812097
0.00557270184028366
0.005572701861385313
0.005572701863247992
0.005572701872422134
0.005572701864436572
0.005572701905157575
0.005572701924978257
0.005572701994985052
0.005572702239794716
0.005572702528887777
0.005572703005126289
0.005572703539414347
0.005572704150222923
0.005572704585563699
0.005572705107262858
0.005572705457292034
0.005572705911571285
0.00557270635006542
0.005572706772533622
0.005572707338122348
0.005572707795480065
0.005572708279000329
0.005572708661014906
0.005572708951062164
0.005572709163889744
0.005572709253298948
0.005572709300261647
0.005572709358976596
0.00557270921804035
0.005572709153931565
0.005572708897885288
0.005572708325503849
0.005572707757858334
0.005572706996051128
0.005572706293304279
0.005572705754420358
0.005572705247259745
0.005572705024179119
0.005572704818831577
0.005572704666009734
0.005572704690478569
0.005572704505583648
0.005572704538351483
0.005649022595227819
0.005649022367138198
0.00564902235101819
0.005649022344272748
0.005649022473050561
0.005649022709313601
0.005649022972665984
0.005649023336481808
0.005649023657008768
0.005649023988916671
0.005649024213352373
0.00564902432513257
0.005649024364530937
0.005649024373275698
0.005649024281932476
0.005649023939852664
0.005649023502633425
0.005649022914049172
0.005649022218775203
0.005649021704609935
0.005649021138369049
0.005649020793793529
0.005649020581532219
0.005649020439641558
0.005649020391941432
0.005649020369460955
0.005649020361284159
0.005649020372465553
0.005649020448544408
0.005649020523257523
0.005649020650040647
0.005649020872837389
0.005649021109947403
0.005649021514717235
0.005649021945647975
0.005649022490543614
0.005649022900536264
0.005649023474790816
0.005649023907601172
0.005649024471543887
0.005649025003029455
0.00564902552693258
0.005649026092350039
0.00564902653916487
0.005649026999656922
0.005649027336421804
0.005649027607187292
0.005649027792208783
0.005649027873558941
0.005649027903869727
0.00564902791653212
0.005649027742557509
0.00564902757909683
0.005649027259064298
0.00564902663905842
0.00564902608044083
0.005649025372659793
0.005649024661801664
0.005649024131980626
0.005649023602461571
0.005649023359714924
0.005649023129869104
0.005649022951624037
0.005649022947061003
0.005649022746176464
0.005649022771625775
0.005670872613330078
0.005670872460725108
0.005670872488456123
0.005670872487243734
0.005670872632402883
0.005670872858302803
0.005670873137011851
0.005670873512073097
0.005670873809467502
0.005670874125047569
0.005670874316324469
0.005670874408667786
0.005670874435344551
0.005670874437514902
0.005670874342995549
0.005670874029232222
0.005670873626825807
0.005670873118301731
0.005670872528482892
0.005670872087171349
0.005670871612493973
0.005670871278198584
0.005670871031090751
0.005670870825289532
0.005670870709913255
0.005670870657873838
0.005670870641414479
0.005670870649021781
0.005670870729401035
0.005670870832700656
0.005670870990115819
0.005670871201423403
0.005670871408670087
0.005670871773679522
0.005670872139839604
0.005670872630212338
0.005670873017414305
0.005670873598385038
0.005670874077248128
0.005670874703644938
0.005670875286931177
0.00567087587429325
0.005670876441848749
0.005670876884207041
0.005670877329248425
0.005670877633940245
0.005670877876088191
0.005670878026601576
0.005670878090322701
0.005670878099256844
0.005670878056677185
0.00567087782924543
0.005670877574943177
0.005670877196649461
0.00567087656030435
0.005670876018407545
0.005670875373848735
0.005670874695303425
0.005670874197841795
0.005670873677929978
0.005670873423464466
0.005670873174566951
0.005670872980723585
0.005670872950137212
0.005670872743868486
0.005670872770320554
0.005648521648390203
0.005648521550896616
0.005648521584225805
0.005648521599661828
0.005648521773014147
0.005648521983409439
0.005648522272578786
0.005648522646222165
0.005648522923671882
0.005648523216534279
0.005648523376514741
0.005648523449558547
0.005648523464669992
0.005648523461875245
0.005648523370626744
0.005648523094631696
0.005648522737410606
0.005648522304085377
0.005648521809626788
0.005648521429130748
0.005648521030839156
0.005648520718425005
0.005648520457080559
0.005648520216408551
0.005648520047819026
0.005648519962063921
0.005648519939187892
0.005648519943944587
0.005648520011166386
0.005648520125684958
0.005648520285144593
0.005648520488760963
0.005648520671342768
0.00564852101410534
0.005648521338906068
0.005648521784205515
0.005648522150906983
0.005648522707346029
0.005648523206987282
0.005648523854262941
0.005648524462288135
0.005648525077579079
0.005648525643343533
0.005648526083757928
0.005648526513972515
0.005648526793958294
0.005648527009713901
0.005648527128871119
0.005648527179361477
0.005648527167795975
0.005648527065212221
0.00564852678576176
0.005648526469283627
0.005648526036431916
0.005648525423178597
0.005648524887105062
0.00564852430500459
0.00564852367732209
0.005648523220935581
0.005648522732240986
0.005648522474859151
0.005648522213868743
0.00564852201369478
0.005648521959787345
0.005648521757200411
0.005648521786108594
0.005592618948833753
0.005592618885176961
0.005592618924034172
0.005592618956048578
0.005592619139054194
0.005592619335869843
0.005592619623214791
0.005592619983874319
0.005592620244372849
0.005592620507975964
0.005592620641419598
0.005592620698630156
0.005592620704643518
0.005592620698721336
0.005592620614145461
0.005592620381350861
0.005592620070846121
0.005592619707469302
0.005592619296698829
0.005592618974047303
0.005592618641204404
0.005592618359064414
0.005592618101799971
0.005592617848755739
0.005592617648740234
0.005592617537127974
0.005592617506365371
0.005592617506295625
0.005592617552634611
0.005592617663772575
0.005592617802534687
0.00559261800095299
0.005592618160316036
0.005592618492366098
0.005592618783194859
0.00559261918645749
0.005592619531639543
0.005592620040253081
0.005592620541835733
0.005592621173360866
0.005592621784494239
0.005592622399004749
0.005592622957673711
0.005592623393491919
0.005592623807651303
0.005592624070229806
0.005592624268359796
0.005592624366393724
0.005592624403487901
0.005592624375305429
0.005592624222672126
0.005592623916369201
0.005592623566690611
0.005592623094999913
0.005592622530653763
0.005592621995335337
0.005592621475764225
0.005592620905261757
0.005592620490989382
0.005592620045473961
0.00559261978958722
0.0055926195214125
0.005592619319178959
0.005592619240357669
0.005592619042248712
0.005592619070387329
0.005515348142614654
0.00551534811811966
0.005515348159324102
0.005515348199752372
0.005515348377446256
0.005515348556450465
0.005515348824921929
0.005515349163701225
0.005515349402926108
0.00551534963550383
0.005515349747118338
0.005515349796514257
0.005515349797931294
0.005515349791839225
0.005515349717553535
0.005515349533312845
0.005515349267705685
0.005515348972210678
0.005515348631891569
0.005515348365313619
0.005515348091536039
0.005515347843984955
0.005515347610175061
0.005515347357696851
0.005515347151447535
0.005515347010952712
0.005515346977617354
0.005515346974648097
0.005515347001583309
0.005515347099994039
0.005515347202246404
0.005515347395960595
0.005515347531459062
0.005515347853540821
0.005515348114880511
0.005515348469595604
0.005515348793002218
0.005515349225540531
0.005515349716953501
0.00551535029694721
0.005515350894954661
0.005515351485356918
0.005515352030940877
0.005515352458508014
0.005515352855082672
0.005515353106613542
0.005515353297572021
0.005515353384379454
0.005515353413615255
0.005515353382431023
0.005515353203069245
0.005515352902619924
0.005515352556194403
0.005515352062412817
0.005515351578450561
0.005515351039848286
0.005515350584540004
0.005515350074809583
0.005515349697490457
0.005515349298215157
0.005515349040353718
0.005515348759057521
0.005515348558257829
0.005515348446133657
0.005515348245581823
0.005515348267025506
0.005432768537343104
0.005432768529449913
0.005432768577113498
0.005432768618591152
0.00543276876957297
0.005432768918148642
0.005432769147949965
0.005432769455929216
0.005432769661546916
0.00543276986540815
0.005432769962395481
0.005432770022366082
0.00543277003060549
0.005432770031159152
0.005432769970460659
0.005432769847085933
0.005432769624501938
0.005432769399422377
0.005432769120769839
0.005432768908618135
0.005432768694936399
0.00543276847842539
0.005432768288165889
0.00543276803413525
0.00543276784301267
0.005432767686221292
0.005432767640769606
0.005432767639184384
0.005432767651983064
0.005432767734306859
0.005432767783554142
0.005432767965508283
0.005432768079263787
0.005432768381383263
0.005432768615774141
0.00543276890137004
0.005432769203124508
0.005432769525169918
0.005432769999915394
0.005432770492511379
0.00543277106430815
0.005432771611781459
0.005432772133496358
0.005432772545974155
0.005432772922452474
0.005432773164187193
0.005432773360698131
0.005432773448249163
0.00543277349035918
0.005432773465202285
0.005432773301122946
0.005432773041077003
0.005432772747670587
0.005432772255013609
0.005432771890730653