/*--------------------------------*- C++ -*----------------------------------*\
| =========                 |                                                 |
| \\      /  F ield         | OpenFOAM: The Open Source CFD Toolbox           |
|  \\    /   O peration     | Version:  v1812                                 |
|   \\  /    A nd           | Web:      www.OpenFOAM.com                      |
|    \\/     M anipulation  |                                                 |
\*---------------------------------------------------------------------------*/
FoamFile
{
    version     2.0;
    format      ascii;
    class       volScalarField;
    location    "10000";
    object      nuTilda_0;
}
// * * * * * * * * * * * * * * * * * * * * * * * * * * * * * * * * * * * * * //

dimensions      [0 2 -1 0 0 0 0];


internalField   nonuniform List<scalar> 
2838
(
0.0004985939218026742
0.0004985130391754908
0.0005024121042259651
0.0005025240303306832
0.0005024945080943889
0.0004985899032215574
0.0004984793918549512
0.0004985105074023629
0.0004984562629809234
0.0004984688304677313
0.0004984595265981364
0.0004984932989764184
0.0004984710411467082
0.0004984564065214274
0.0004984504102585412
0.0004984719310982472
0.0004984636481100937
0.0004984832418649072
0.0004984858845439873
0.0004985033027258917
0.000498497832913127
0.0004984702943044258
0.0004985013890773945
0.0004984377508745979
0.0004984524794698256
0.0004984459368076316
0.0004984905416407593
0.0004984858301184496
0.0004984839538890028
0.0004984745213297593
0.0004984726750385462
0.0004984982739473288
0.0004984558834080818
0.0004984691414546514
0.0004984892733499942
0.0004984867949438877
0.0004984774077452545
0.0004984995671486496
0.0004984414522694147
0.0004984717922326712
0.0004984502016370492
0.0004984844773870239
0.0005024125807262631
0.0005025253214513578
0.0004986786765509279
0.0005023309826275182
0.0004986703814076463
0.0005024180220332627
0.0005025240819273861
0.0005024923349680878
0.0005025704604896586
0.0005025551456326353
0.0005025149752388214
0.0005025282295381622
0.0005025134177341051
0.0004985895772426094
0.0004984812012883387
0.0004985103311777088
0.0004984697334619821
0.0004984871155670265
0.0004985046355048263
0.0004984574549462872
0.0004984671358986619
0.0004984633438329892
0.0004984514778815862
0.0004984823701485762
0.0004632607813334629
0.0004628773039124041
0.0005107215223220428
0.0005133104959866158
0.0005127339554755673
0.0004640477004883157
0.0004624691814599247
0.0004628115742853534
0.000462389145238518
0.0004624410084620062
0.000462396247925821
0.0004625165006540763
0.0004623681345193379
0.000462320278605764
0.0004623177172368199
0.0004624492169163686
0.0004622429811220708
0.000462482462705802
0.000462778520287348
0.0004628100937785525
0.0004627872112892445
0.0004623094272565048
0.0004625438543850037
0.0004623495307743128
0.000462423047991888
0.0004623582512772992
0.0004625197823153307
0.0004627573005029864
0.0004626236156717892
0.0004625089021458196
0.0004626358187666929
0.0004627761543491655
0.0004623921198973366
0.0004624627063994025
0.000462642407507493
0.0004625412241976668
0.0004626442207146091
0.0004627682116999577
0.0004622631056010528
0.0004624307106549164
0.0004622437744712145
0.0004624845377937576
0.000510726246366889
0.0005132721954184916
0.0004648501032678958
0.0005097264721382307
0.000464708518284074
0.0005108671932007005
0.0005133146035833662
0.0005127462702917681
0.0005137940560572315
0.0005136941740266994
0.0005129739709975796
0.0005130951828512497
0.0005129528229330741
0.0004640500111730451
0.0004624742228003627
0.0004628146461264087
0.0004624325051568692
0.000462498716371016
0.0004627951924030052
0.0004622706058597838
0.0004622684204365761
0.0004621817589288596
0.0004620663327398719
0.0004624229251168924
0.0007485081169934514
0.0007480500908374533
0.0007721836332599375
0.0007744816014718682
0.0007740087812858315
0.0007499599530273318
0.000747306373973309
0.0007478790313686381
0.0007473150023534507
0.0007473322849077693
0.0007476528118965821
0.0007475628131519034
0.0007470428458695772
0.0007466567585751506
0.000747253860237078
0.0007474210627649568
0.0007471805223178973
0.0007474628028372839
0.0007476755936897653
0.0007478296530165291
0.0007475370055256738
0.0007470156891120859
0.0007475092737088965
0.0007473266441590041
0.0007473573222131926
0.0007473187066227267
0.0007475967941497234
0.0007474557107281008
0.0007470341853373424
0.0007468225587922909
0.0007471930752400668
0.0007477405808751851
0.000747421158318672
0.0007474670480196174
0.0007472167044407917
0.0007466778883749442
0.0007468226659980123
0.0007475879056533625
0.0007471632625233441
0.0007470368550980481
0.0007468674788802214
0.0007473975102330998
0.000772189164632205
0.0007744496257453128
0.0007511511699258376
0.0007714712931779538
0.0007508589166848831
0.0007724050802481458
0.000774488501651797
0.0007739970843028993
0.0007748468289279164
0.0007747403498605085
0.0007741937351659747
0.0007742153184777176
0.0007741405238545125
0.0007499575173793062
0.0007472920631983246
0.0007478660064855911
0.0007475803779742064
0.0007475217857379096
0.0007478018548503191
0.0007472616120007536
0.0007467010309904637
0.0007464436548145838
0.0007468245730461591
0.0007471583150892958
0.001058140132589764
0.001057889218681437
0.001066499848529168
0.001067771421755671
0.001067521668826146
0.001058844108308314
0.001057484493752588
0.001057773018412666
0.001057337306289963
0.001057387744729693
0.001057706950666093
0.001057676565016098
0.001057272569330847
0.001056956683335579
0.001057423525985661
0.001057365642699045
0.001057428365790738
0.001057672940045565
0.001057727623281092
0.001057785385149313
0.001057654400476152
0.001057292330389148
0.00105751412214578
0.001057559736526457
0.001057603821833724
0.001057583371556611
0.001057687279715374
0.001057618766372996
0.001057286570639176
0.00105710487981525
0.001057178717388009
0.001057594333222325
0.001057613778632494
0.001057641648912143
0.001057566251364578
0.00105734676673226
0.001057143075261753
0.001057489636824832
0.001057442106708019
0.0010574295243774
0.001057197505139449
0.001057482909490636
0.001066500107413721
0.001067756430722629
0.001059468587527028
0.001066149091994181
0.001059281155872582
0.001066652459310078
0.001067775514318218
0.001067504982660864
0.001067775484801421
0.001067755736618213
0.001067624208844931
0.001067605675178044
0.001067585004956203
0.001058820241375795
0.001057477885423435
0.001057782396664509
0.001057675600250956
0.001057555219470416
0.001057701196186363
0.001057529057013311
0.001057104815485109
0.001056841794012238
0.001057256954540227
0.001057446984856692
0.001410388222109315
0.001410256359508586
0.001412793398425255
0.001413348156133673
0.001413252074679131
0.001410652588994188
0.001410073309430345
0.001410181646827143
0.00140997529337427
0.001409912114141275
0.001410137905931437
0.001410182560546975
0.00140995849224896
0.001409769337310547
0.001410004673368082
0.001409975402675193
0.001410065071605399
0.001410199368603478
0.001410218298043199
0.00141022491470933
0.001410184383117802
0.001410063164837283
0.001410059726446378
0.001410079526051425
0.001410161712679197
0.001410164514082231
0.001410193550933808
0.001410151146410102
0.00141003055680233
0.001410014772075741
0.001409929256471796
0.00141007106494171
0.001410153160452481
0.001410165731160446
0.001410169041940729
0.001410060204757797
0.001409969188179122
0.001410022429552795
0.001409963877983756
0.001410069357067436
0.001409937978334767
0.001410032147783079
0.001412775199594557
0.001413344880793766
0.001410899257153743
0.001412681446402272
0.001410800912835294
0.001412871522185178
0.001413347953154082
0.001413235392817933
0.001413287648524133
0.00141328711076082
0.00141326874429066
0.001413229955722716
0.001413260214125411
0.001410615631211544
0.001410069612976931
0.001410197204513209
0.001410163329447865
0.001410050880200345
0.001410101430583389
0.001410098582977679
0.001409905867756921
0.001409714808815658
0.001409999486680976
0.001410120470825993
0.00189103595484245
0.001890967462566439
0.001891525037626763
0.00189174042863316
0.001891713894229349
0.00189112385600496
0.00189089190926765
0.001890943378023182
0.00189083488730114
0.001890858442673354
0.001890912220964541
0.00189094572863061
0.001890870953086455
0.001890838694073358
0.0018908722601501
0.001890849164763122
0.001890909959337113
0.001890941506565063
0.001890957029564929
0.001890916726168962
0.001890948370542356
0.001890908629062689
0.001890914133985487
0.001890927889490949
0.00189089812679442
0.001890917046092796
0.001890948574421056
0.001890943847581811
0.001890842119001003
0.001890890486818046
0.001890879376410564
0.001890859333007239
0.001890899664492754
0.001890906885867944
0.001890953006131459
0.00189093774671329
0.001890844054262844
0.001890896110519798
0.001890799844770757
0.001890880030783334
0.001890876849952368
0.001890844675542154
0.001891492406078538
0.001891735163427322
0.001891178475773918
0.001891522484075811
0.001891134377480037
0.001891556168196113
0.001891736915335173
0.001891700215803493
0.001891693041720943
0.001891737474827634
0.001891708482470291
0.00189169121878306
0.001891686735251019
0.00189109364717576
0.00189088929086598
0.001890945765318812
0.001890884221284177
0.001890896697414294
0.001890917106555084
0.00189086768342897
0.001890876045060745
0.001890746128411375
0.001890878259439005
0.001890930492674621
0.002535564281022579
0.002535547815185453
0.002535631083403276
0.002535679266888825
0.002535685199819422
0.002535591857387802
0.002535525099324593
0.002535545596624174
0.002535505532767569
0.002535507771147677
0.002535531672438618
0.002535531611509199
0.002535519060177919
0.002535522008361096
0.002535513222916535
0.002535516477030072
0.002535532458208321
0.002535549724655837
0.00253553070511741
0.002535537825909105
0.002535553657460616
0.002535527496171125
0.002535530510602395
0.002535531117124418
0.002535524222460124
0.002535539251322708
0.002535531030514394
0.00253554094663661
0.002535497635017522
0.002535521105228416
0.002535531894317565
0.002535519381639715
0.002535511972459394
0.002535515943548361
0.002535530058205569
0.002535530624379524
0.002535525714038727
0.002535508593410377
0.002535520585970053
0.002535520339001348
0.00253553186043241
0.002535499429605249
0.002535606915873941
0.002535678212098286
0.00253559311760965
0.002535635321391464
0.002535580823859016
0.00253563842510847
0.002535682685815664
0.002535679118808728
0.002535668250964029
0.002535678701779316
0.002535680451222062
0.002535669213020648
0.002535667049866846
0.00253556815219238
0.0025355218942119
0.002535539346946337
0.002535525591863727
0.002535508622989988
0.002535524451580308
0.002535511969436757
0.002535519379990604
0.002535497084202148
0.002535531210103429
0.002535532253979075
0.003261735067797735
0.003261730725625775
0.003261740006947983
0.003261746029579033
0.003261748472490268
0.003261738546155658
0.003261727715971515
0.003261727017773085
0.00326172381183551
0.003261723592985894
0.003261728027640601
0.003261728564670274
0.003261724568422694
0.00326172019866639
0.003261724016940304
0.003261727260265815
0.003261731636782624
0.003261734146814838
0.003261728875514304
0.003261724469830099
0.003261729643074801
0.003261729389258218
0.003261724140840996
0.003261726336494567
0.003261719430943374
0.003261722061887985
0.003261723818867953
0.003261723826696298
0.00326171324860533
0.003261719343313066
0.00326172238453536
0.003261725384005916
0.003261722225517595
0.003261718620360854
0.003261724853245801
0.003261726041070096
0.003261726332510781
0.003261721968292975
0.003261725001449547
0.00326172369684094
0.003261727300349759
0.003261716382349673
0.003261730031874459
0.003261742840151927
0.003261734475038262
0.00326173858579948
0.00326173295093076
0.0032617406868589
0.003261744251944796
0.003261744122882628
0.003261743667467012
0.003261744597007933
0.003261741491619842
0.003261742121894044
0.00326174204062471
0.003261727669866504
0.00326172378867142
0.003261725565718558
0.003261726063157003
0.003261718992810068
0.003261722612835784
0.003261721156383915
0.003261722739244783
0.003261721609326839
0.003261730475454881
0.003261733284030495
0.003956687508676536
0.003956684698090331
0.003956685993078701
0.003956686377815086
0.003956686747903383
0.00395668662390607
0.003956684826281546
0.003956684411159719
0.003956684638828873
0.003956684108487941
0.003956686058382853
0.003956686117591152
0.003956684704895
0.003956683285785577
0.00395668504197043
0.003956687032087091
0.003956689149077784
0.003956689140079584
0.003956686039621927
0.003956682972043133
0.003956682835387427
0.003956683633027606
0.003956682998927788
0.003956683564159769
0.003956681454862401
0.003956681022302255
0.003956681691979842
0.003956680275567127
0.003956677712153458
0.00395667872168646
0.003956680004438847
0.003956682819329584
0.003956683371754298
0.003956682709419697
0.003956684747151245
0.003956685638838366
0.003956685578809911
0.003956683809443573
0.003956683958805488
0.003956683528398597
0.003956683702371013
0.003956682845060868
0.003956683874613016
0.003956685594511388
0.003956685183048811
0.003956686178686865
0.003956685102069208
0.003956686542673359
0.003956686114262075
0.003956685985709077
0.003956686252396608
0.003956685913434732
0.003956685268712259
0.003956685301726967
0.003956685938919495
0.00395668368751463
0.003956684643457511
0.003956685644506234
0.003956686070662604
0.003956683680765617
0.003956683727349884
0.003956683800356277
0.003956683680089893
0.00395668428760818
0.003956687382339942
0.003956688333141206
0.004546995774648032
0.004546993979743068
0.00454699417496758
0.004546994144768585
0.004546994133417478
0.004546994864665963
0.004546994582927784
0.004546994664946142
0.00454699506511943
0.004546994977092917
0.004546995789955393
0.004546995934880142
0.004546995653748629
0.004546995235516943
0.004546995881986531
0.004546996953570027
0.004546997623800259
0.00454699716509827
0.004546995244508302
0.004546992902311252
0.004546991944538014
0.004546992246707077
0.004546992527297973
0.004546993089563542
0.004546992700584174
0.00454699204707546
0.004546992251813699
0.004546991181610601
0.00454699017088939
0.004546990051275577
0.004546990423816957
0.004546992468337539
0.004546993727621467
0.004546994227639546
0.00454699552712934
0.004546996119589864
0.004546996157587329
0.004546995230436923
0.004546994674686947
0.004546994259617416
0.004546993956488406
0.004546994020399107
0.004546994645167563
0.004546995145187246
0.004546995623953037
0.004546996180712759
0.00454699595934734
0.004546996142815166
0.004546995688300555
0.004546995346906123
0.004546995542766381
0.004546995503233789
0.004546995179097743
0.004546995201851435
0.004546995487088887
0.004546995145003518
0.004546995652965422
0.004546996320751828
0.004546996490223902
0.004546995655159172
0.004546994932082681
0.004546994889631739
0.004546994740856813
0.004546995086226044
0.004546996121970905
0.004546996483622847
0.005018100449315011
0.005018099283210044
0.005018099259012178
0.005018099248425486
0.005018099212187409
0.005018099797837854
0.005018099839578683
0.005018100012680966
0.005018100497443189
0.005018100576941917
0.005018101062596288
0.005018101222296032
0.005018101245662297
0.005018101139195656
0.005018101394075008
0.005018101698425706
0.005018101754621873
0.005018101076787527
0.005018099702134901
0.005018098083496679
0.005018097099902114
0.005018097159151138
0.005018097460337006
0.005018098023102502
0.005018098029299031
0.00501809775937853
0.005018097806937597
0.005018097097516897
0.005018096599841159
0.005018096298618172
0.00501809641460231
0.005018097567005875
0.005018098704185397
0.005018099563197034
0.005018100675339047
0.005018101205298693
0.005018101311511581
0.005018100870494251
0.00501810041424721
0.005018100076935854
0.005018099833308918
0.005018099947148991
0.005018100510771735
0.005018101007708195
0.005018101607702563
0.005018102153367792
0.005018102177193603
0.005018102214670431
0.005018101985823579
0.005018101699369769
0.005018101800886412
0.005018101867462568
0.005018101664988261
0.005018101565138614
0.005018101394597083
0.005018101260218209
0.005018101240411619
0.0050181014190667
0.005018101459761523
0.005018101019927377
0.005018100532192302
0.005018100388796174
0.005018100288849206
0.005018100434931708
0.005018100750288589
0.005018100904335638
0.005382098412294654
0.005382097641904398
0.005382097586889118
0.00538209756106402
0.005382097536761944
0.005382097952251042
0.005382098093920653
0.005382098309912591
0.005382098810565675
0.005382099011662033
0.00538209938363569
0.005382099490664015
0.005382099544417597
0.005382099508604563
0.005382099581344645
0.005382099479000805
0.005382099269718679
0.005382098431414802
0.00538209733313806
0.005382096219049767
0.005382095391575364
0.005382095338703915
0.005382095506643415
0.005382095955394339
0.005382096074109505
0.005382095995980426
0.005382096009904414
0.005382095585239503
0.005382095337459721
0.00538209509610698
0.005382095145185773
0.005382095789381858
0.005382096611284566
0.005382097436266773
0.005382098400426188
0.005382098963611638
0.005382099185115954
0.0053820990673495
0.005382098862539516
0.005382098706879316
0.005382098670818737
0.005382098780606055
0.00538209929104178
0.005382099821131196
0.005382100342590562
0.005382100902966607
0.005382101068067561
0.005382101139507716
0.005382101032082852
0.005382100951575759
0.005382100999362622
0.005382101068162381
0.0053821008751539
0.005382100813547626
0.005382100286067447
0.005382099967009641
0.00538209958461959
0.005382099448306141
0.005382099315736055
0.00538209897778266
0.005382098757162176
0.005382098597229666
0.005382098545930529
0.005382098600735195
0.005382098632357174
0.0053820987040376
0.005654311768368323
0.005654311246790087
0.005654311220698356
0.005654311175509874
0.005654311159069381
0.005654311537485609
0.005654311675554145
0.005654311937517682
0.00565431240299728
0.005654312665117567
0.00565431295215496
0.005654313037329886
0.005654313086896156
0.005654313057572596
0.005654313036637181
0.00565431272233236
0.005654312346619877
0.005654311499345834
0.00565431057596288
0.005654309760305388
0.005654309076369855
0.005654308973649709
0.005654309006627915
0.005654309277134099
0.005654309421826535
0.005654309405637753
0.00565430942083046
0.005654309206397158
0.005654309115974549
0.005654308975459287
0.005654309014898992
0.005654309416666788
0.005654309989187923
0.005654310662944974
0.005654311458624316
0.005654312029102936
0.005654312364684974
0.005654312474645749
0.005654312508793431
0.005654312568432399
0.005654312723774318
0.005654312900374871
0.005654313415540306
0.005654313908138842
0.005654314346161649
0.005654314828818521
0.005654315064107399
0.005654315254243347
0.005654315179576511
0.00565431522568677
0.005654315260522917
0.005654315312375273
0.005654315115204187
0.005654315041002019
0.005654314348326449
0.005654313912584687
0.005654313320148125
0.00565431291856851
0.005654312648573375
0.005654312305654894
0.005654312206992284
0.005654312042095396
0.005654312007308634
0.005654312012498052
0.005654311978286548
0.005654311976056703
0.005847860726111587
0.005847860393194879
0.005847860373914823
0.00584786033181993
0.005847860336584027
0.005847860651524957
0.005847860847428596
0.005847861161122769
0.005847861556955429
0.005847861844852346
0.005847862073815903
0.005847862145491606
0.005847862187175635
0.00584786216055064
0.0058478620651932
0.005847861658853067
0.005847861226789602
0.005847860454692014
0.005847859651444286
0.005847859010192645
0.005847858414095343
0.00584785824916534
0.005847858227939854
0.005847858315943158
0.00584785843021644
0.005847858427712323
0.005847858442648604
0.005847858370922073
0.005847858382600927
0.005847858330800971
0.005847858392787459
0.005847858691135033
0.005847859105762674
0.005847859633912773
0.005847860270416254
0.005847860821680625
0.005847861197915199
0.00584786152516169
0.005847861714676055
0.005847861970917892
0.005847862292374129
0.005847862563891876
0.005847863086235683
0.005847863530095077
0.005847863911059487
0.005847864317386138
0.005847864558679747
0.005847864792057677
0.005847864787475657
0.005847864853374954
0.005847864866306693
0.005847864870520493
0.005847864657938765
0.005847864532012058
0.005847863782327031
0.00584786330243637
0.005847862623402347
0.005847862069978086
0.005847861707651465
0.005847861318644387
0.005847861238571781
0.005847861058363012
0.005847861019243649
0.005847860990716087
0.005847860930008243
0.005847860884093058
0.005973834690454881
0.005973834477981702
0.005973834459270418
0.005973834441601509
0.00597383448257214
0.005973834740333868
0.0059738349820144
0.005973835328996551
0.005973835674467281
0.005973835968631688
0.00597383615856513
0.005973836220141794
0.005973836253705804
0.005973836227964005
0.005973836094072488
0.005973835672987805
0.00597383523758381
0.005973834559375797
0.005973833861281832
0.005973833331406713
0.005973832805939786
0.005973832585106305
0.00597383249589511
0.005973832476060985
0.005973832522434922
0.005973832514407093
0.005973832529828187
0.005973832517660934
0.005973832595870272
0.00597383261884587
0.005973832732661132
0.005973832976520091
0.005973833294590235
0.005973833719948864
0.005973834232644354
0.005973834744835945
0.005973835135543186
0.005973835588785556
0.005973835899387457
0.00597383630839877
0.005973836740311798
0.005973837122283145
0.005973837626756559
0.005973838047331039
0.005973838397893391
0.005973838746824931
0.005973838967658122
0.005973839186617339
0.005973839182984403
0.005973839265788922
0.005973839229765836
0.005973839193858908
0.005973838937331597
0.005973838727856872
0.005973837982968
0.005973837502747474
0.005973836813805876
0.005973836198366605
0.005973835795088213
0.005973835363086773
0.00597383526507568
0.005973835057265497
0.005973834990377584
0.005973834941515873
0.005973834867401551
0.00597383481530682
0.006042032344110659
0.006042032214894709
0.006042032234300851
0.00604203222102264
0.006042032297766416
0.006042032518189492
0.00604203278931925
0.006042033147991462
0.006042033457516245
0.006042033744492442
0.006042033904639818
0.006042033956238813
0.006042033981388412
0.006042033955498478
0.006042033804181385
0.006042033408820354
0.006042032994334236
0.006042032411046708
0.006042031811454088
0.006042031363009307
0.006042030901965775
0.006042030648998466
0.006042030488472174
0.006042030388675988
0.006042030373150601
0.006042030351142451
0.006042030358221806
0.00604203037205603
0.006042030489945023
0.006042030560878093
0.006042030721257798
0.006042030927104528
0.006042031189100809
0.0060420315534139
0.006042031975191577
0.006042032444403133
0.00604203283720346
0.006042033352266682
0.006042033747021883
0.006042034258530575
0.00604203475811338
0.006042035226261896
0.006042035713532293
0.006042036119304233
0.006042036453124638
0.006042036757099413
0.006042036954562554
0.00604203713341847
0.006042037130137354
0.00604203718738057
0.006042037111251645
0.006042037003685784
0.006042036680120788
0.006042036397658536
0.006042035684164603
0.006042035219741234
0.006042034562870995
0.006042033943677323
0.006042033538096196
0.006042033085054931
0.006042032962707148
0.006042032735398185
0.006042032640940891
0.006042032574262004
0.00604203248906209
0.006042032442907456
0.00606159501351823
0.006061594941268398
0.006061594980959751
0.006061594984039535
0.006061595093148534
0.006061595296313727
0.006061595581746403
0.006061595938107421
0.006061596220544773
0.006061596490990386
0.006061596623720977
0.006061596666173669
0.006061596683198178
0.00606159665639749
0.006061596502945744
0.006061596151167618
0.006061595772193921
0.006061595277655206
0.006061594769590572
0.006061594382817229
0.006061593981456691
0.006061593716918447
0.006061593510843902
0.006061593348223711
0.006061593272898475
0.006061593233553281
0.006061593234034413
0.00606159325161446
0.006061593376714179
0.006061593479074865
0.006061593659832447
0.006061593849483741
0.006061594073429174
0.006061594406608306
0.006061594768706141
0.006061595198802317
0.006061595583538843
0.006061596114399086
0.006061596557975345
0.006061597128418745
0.006061597663952062
0.006061598185759929
0.006061598664702362
0.006061599061273215
0.006061599383595855
0.006061599652148785
0.006061599817334599
0.006061599957713655
0.006061599941503824
0.006061599972325459
0.006061599839771692
0.006061599654170156
0.006061599276493885
0.006061598937775746
0.006061598265166838
0.006061597817429571
0.006061597212916994
0.006061596625272723
0.006061596239081459
0.006061595792682055
0.006061595651778394
0.006061595408051695
0.006061595295506859
0.006061595213600136
0.006061595126525734
0.006061595090424888
0.00604158405827839
0.006041584029725765
0.006041584060540587
0.006041584092689846
0.00604158422760309
0.006041584420951981
0.006041584710432893
0.006041585055909064
0.006041585315506621
0.006041585563294084
0.006041585670091119
0.006041585701997496
0.006041585711462521
0.006041585684455891
0.006041585538348614
0.006041585237078584
0.006041584901637568
0.006041584487427199
0.006041584060727609
0.006041583725753903
0.006041583378535297
0.006041583118393809
0.0060415828888832
0.006041582688574257
0.006041582562725634
0.006041582506104849
0.006041582500230032
0.006041582514682736
0.006041582626398352
0.006041582745367566
0.006041582922091039
0.006041583103191527
0.006041583296738443
0.006041583615638427
0.006041583935786121
0.006041584332082045
0.006041584700570301
0.00604158521591471
0.006041585681570033
0.00604158627250277
0.006041586822872068
0.006041587367422977
0.006041587841258838
0.006041588230667749
0.006041588543039318
0.006041588781279313
0.006041588919226163
0.00604158902216994
0.006041589003321709
0.006041589004607991
0.006041588809319673
0.006041588568547447
0.00604158815537495
0.006041587772688768
0.006041587150701203
0.006041586711783677
0.006041586168726406
0.006041585628124728
0.006041585271049127
0.006041584852063483
0.006041584697385374
0.00604158444496836
0.006041584321112699
0.006041584225913528
0.006041584144817052
0.00604158411818092
0.005991610501987994
0.005991610494980952
0.005991610527920126
0.005991610574637801
0.005991610722842457
0.005991610906588439
0.005991611187920324
0.005991611515925276
0.005991611757113535
0.005991611976875673
0.005991612062791023
0.005991612086192417
0.005991612089993281
0.005991612064235426
0.005991611931204823
0.005991611680689219
0.00599161139068744
0.005991611048934744
0.005991610693391196
0.00599161040840084
0.005991610110300596
0.005991609867023051
0.005991609633728709
0.005991609416679627
0.005991609257663213
0.005991609184129207
0.005991609171690864
0.005991609181797161
0.005991609269965938
0.00599160938995579
0.005991609545249028
0.005991609721785388
0.005991609889298465
0.005991610204596405
0.005991610485731665
0.005991610849531097
0.005991611193634447
0.005991611670329386
0.005991612138522437
0.005991612716123035
0.005991613264971502
0.005991613806779461
0.005991614273816569
0.005991614654139235
0.005991614957152516
0.005991615173977219
0.00599161529685154
0.005991615375167949
0.005991615348547821
0.005991615320988994
0.005991615082039371
0.005991614814768381
0.005991614389344634
0.005991613978449493
0.005991613420748129
0.005991612982178192
0.0059916125047943
0.005991612014863303
0.005991611689900592
0.005991611308888709
0.005991611142689236
0.005991610887846783
0.005991610754281696
0.005991610643165657
0.005991610568529904
0.005991610547494677
0.005922718063310801
0.005922718072494702
0.005922718110286041
0.005922718161942444
0.005922718307368941
0.005922718474104948
0.005922718733957726
0.005922719041636472
0.005922719261843554
0.005922719453712716
0.005922719524329389
0.005922719544763908
0.005922719545585113
0.005922719523799933
0.005922719408985574
0.005922719210181913
0.005922718964188088
0.005922718690439983
0.005922718394510769
0.005922718159087694
0.005922717906799762
0.005922717689069736
0.005922717471789274
0.005922717251495271
0.005922717080887731
0.005922716979500181
0.005922716969308395
0.005922716976525642
0.005922717040287479
0.005922717149198161
0.005922717270746861
0.005922717445268006
0.005922717586112417
0.005922717901965834
0.00592271814166619
0.005922718468017921
0.005922718782178032
0.005922719194054583
0.005922719651904897
0.005922720182608671
0.005922720718582549
0.005922721236608559
0.00592272169474972
0.00592272206314933
0.005922722357791447
0.005922722562201904
0.005922722681736397
0.005922722744261957
0.005922722716458621
0.005922722669856312
0.005922722419432613
0.005922722156647755
0.005922721747977686
0.005922721324209144
0.005922720852263166
0.005922720404770577
0.005922719996832836
0.005922719556859599
0.005922719261269809
0.005922718920388021
0.005922718739427929
0.005922718478065363
0.005922718337430104
0.005922718201330341
0.005922718125725325
0.0059227181045256
0.005849332325054064
0.005849332344706805
0.005849332392758295
0.00584933244196693
0.005849332557823461
0.005849332694221164
0.005849332917893884
0.005849333201498942
0.005849333392955977
0.005849333561947741
0.005849333627700998
0.005849333660328743
0.005849333664031465
0.005849333650566914
0.00584933355977028
0.005849333421224425
0.005849333216058275
0.005849333010758588
0.005849332764467693
0.005849332578217938
0.005849332373037917
0.005849332182727081
0.005849332002167114
0.005849331777841906
0.005849331617499612
0.005849331493801737
0.005849331475673616
0.005849331483069806
0.005849331528028934
0.005849331619572924
0.005849331692838344
0.005849331860986772
0.005849331975960118
0.0058493322795991
0.005849332483336806
0.005849332756259614
0.005849333038620588
0.005849333351859437
0.005849333793163223
0.005849334240302214
0.005849334755964732
0.005849335231871654
0.005849335674994023
0.005849336028268414
0.005849336313064914
0.005849336512331603
0.005849336640775886
0.005849336702947816
0.005849336687885035
0.005849336639229779
0.005849336418526527
0.00584933619527359
0.005849335838491402
0.005849335424992008
0.005849335064540274
0.00584933460307418
0.005849334275897069
0.005849333889801626
0.005849333616428886
0.005849333309802233
0.005849333097803983
0.005849332815435503
0.005849332668484657
0.005849332485763461
0.005849332402474864