/*--------------------------------*- C++ -*----------------------------------*\
| =========                 |                                                 |
| \\      /  F ield         | OpenFOAM: The Open Source CFD Toolbox           |
|  \\    /   O peration     | Version:  v1812                                 |
|   \\  /    A nd           | Web:      www.OpenFOAM.com                      |
|    \\/     M anipulation  |                                                 |
\*---------------------------------------------------------------------------*/
FoamFile
{
    version     2.0;
    format      ascii;
    class       volScalarField;
    location    "10000";
    object      nuTilda;
}
// * * * * * * * * * * * * * * * * * * * * * * * * * * * * * * * * * * * * * //

dimensions      [0 2 -1 0 0 0 0];


internalField   nonuniform List<scalar> 
2838
(
0.0005024321228700264
0.0005024907240105638
0.000498591760681859
0.0004984794061435674
0.0004985086860195728
0.0005024138897487603
0.0005025240270456803
0.00050249230628242
0.0005025201157598453
0.0005025148311572358
0.0005025240448078867
0.0005025094612761357
0.0005025586158018999
0.0005025735358126411
0.0005025392056668528
0.0005025155718386246
0.0005025266989503479
0.0005025549345506745
0.0005025509981793061
0.0005025057149823103
0.0005024961646981829
0.0005025204417075485
0.0005025054787181648
0.0005025260650186851
0.0005025190343101405
0.000502524010374917
0.0005025496550294436
0.0005025093081027767
0.0005025392102048627
0.0005025186840866827
0.0005025407641603967
0.0005025063913727703
0.0005025218255104644
0.0005025497744858702
0.0005025083633182148
0.0005024982534911235
0.0005025330748819595
0.0005025045502729938
0.000502528716448445
0.0005025110838687303
0.0005025239074477894
0.0005025124201301869
0.0004985912323499877
0.0004984783701658522
0.0005023226209081296
0.0004986701366912035
0.0005023307884022769
0.0004985856804600356
0.0004984793437114729
0.0004985104743174165
0.0004984707393572763
0.0004984639122136742
0.0004984971014207609
0.000498494743759551
0.0004984995777780127
0.0005024130552879652
0.0005025231056092971
0.0005024918577883101
0.0005025190116406327
0.000502531785118537
0.0005025000021856841
0.0005025668998868473
0.0005025320113723817
0.0005025634955853265
0.000502548787284977
0.0005025474606221025
0.0005123564602937122
0.0005126455407139816
0.0004640710075197029
0.0004624699075739287
0.0004628148425043232
0.0005107618611255021
0.0005133115794770569
0.0005127452981782019
0.0005129905384772933
0.0005129781318142082
0.0005130548756429506
0.0005130141423358132
0.0005137107155636529
0.0005139167240601815
0.0005136199924601958
0.0005130384426844268
0.0005131331364339288
0.0005136490324882224
0.000513864990185266
0.0005131459351243325
0.0005129667123358717
0.0005131441951876818
0.0005129155666588782
0.0005130489658725813
0.0005129936874190053
0.0005130462391615213
0.0005134375490685648
0.0005132084265279665
0.0005135374700637275
0.0005132714814719528
0.0005134623024462341
0.0005131321554057476
0.0005130369231409138
0.0005133614056356484
0.0005132694165167698
0.000512919859410135
0.0005133032562714402
0.0005130821077908981
0.0005132985656492557
0.0005132345025371627
0.0005131491472738565
0.0005129350510489169
0.0004640632780111912
0.0004624929554596495
0.0005095325613220843
0.0004647004187101083
0.0005097162995978629
0.0004639605152719165
0.0004624676454143651
0.0004628118579554962
0.0004627182034534962
0.0004625634904885544
0.0004627041838107302
0.0004627882195853848
0.0004628205411686978
0.0005107322210180373
0.0005133037390237931
0.0005127417344694803
0.0005131990516620455
0.0005132308379269585
0.0005128890406159936
0.0005138085375373652
0.0005137069763109195
0.0005136850586652565
0.0005137988130803852
0.0005135992133536672
0.0007735956106412105
0.0007738774011026714
0.0007500216332649985
0.0007473085186945902
0.0007478740614924403
0.0007722310448059325
0.0007744840661762421
0.0007739945359926581
0.0007740994032654774
0.0007741639629361655
0.0007741661673889352
0.0007742704480512394
0.0007750225173044538
0.0007747951147442304
0.0007747791071868618
0.0007743945963422766
0.00077427101905945
0.0007748632471483904
0.0007752218530578007
0.0007744349632876519
0.0007745888803981606
0.0007745449017100145
0.0007741964428801582
0.0007742958856738295
0.0007741881142505112
0.0007741707985747412
0.0007742374395803183
0.0007744674173353116
0.0007750811275171953
0.0007746020795270374
0.0007747166298233667
0.0007744850564625617
0.0007743046247231078
0.0007742773445271845
0.0007747031478389907
0.0007746271540935139
0.000774458258737857
0.0007741845541525011
0.0007747608686180673
0.0007750413694254968
0.0007745495273074135
0.0007741371918956286
0.0007499930592958939
0.0007473570084539411
0.0007711838631660451
0.0007508348866439462
0.0007714487001092515
0.000749770186190777
0.0007472981349474037
0.0007478790199938509
0.0007473934118915565
0.0007472104113380084
0.0007475573001612516
0.0007476523884263554
0.0007478232658332895
0.0007721844093058984
0.0007744803607898958
0.0007740026964242495
0.0007746840507620108
0.0007744899921106634
0.0007740333895336855
0.0007749015343868928
0.0007753348484598422
0.0007747657118302363
0.0007749926934728665
0.0007749691354246005
0.001067282369865935
0.001067423849899583
0.001058882275785901
0.001057484283308809
0.001057769685200899
0.001066531288107561
0.001067773768407046
0.00106750395374261
0.00106756029404348
0.001067606952871631
0.001067626603241514
0.001067641456252455
0.001068126864877119
0.001067937973093716
0.001067775090826267
0.001067608695820338
0.001067726635869724
0.001068134435484857
0.001068334909654848
0.00106779694360011
0.00106788432632347
0.001067863050279994
0.001067790958756189
0.001067985151603698
0.00106777500069698
0.001067608181282744
0.001067594658421682
0.001067771209478628
0.001068207369200702
0.001067921365421105
0.001067829180015566
0.001067939341319794
0.001068043240967167
0.001067815191633104
0.001067920569724286
0.001068130784823624
0.001067843157774773
0.001067554554399972
0.001067934182444866
0.001068008986292835
0.001067728303227187
0.001067568722326887
0.001058859918503001
0.001057517700034552
0.001065951138942385
0.001059264715438154
0.001066130248351877
0.001058720402465397
0.001057476363635551
0.001057773250867794
0.00105759975185838
0.001057478536360032
0.001057405813201146
0.001057364968066959
0.001057653096692144
0.001066486654170192
0.001067770183820078
0.001067517366651693
0.001067945984373147
0.001067796764988069
0.001067512812695274
0.001067965993297726
0.001068371102224355
0.001067915559359369
0.001068091664544891
0.001068168299516241
0.001413187755169508
0.001413203215813859
0.001410671592041954
0.001410071910591043
0.001410183865178163
0.001412805347196764
0.001413348967376125
0.00141323841467211
0.001413297686074603
0.001413282452192987
0.00141334275234064
0.001413350111427397
0.001413503506860229
0.001413404935244107
0.001413305998603893
0.001413230232587496
0.001413344794452933
0.00141360767592772
0.001413694729268577
0.001413406675221963
0.001413433308588866
0.001413490567521416
0.001413392845179651
0.001413427630976544
0.001413441388638362
0.001413366430729842
0.001413298505211228
0.001413393964232419
0.001413586717226754
0.0014134906516064
0.001413357748992497
0.001413433565824083
0.001413571205209515
0.001413514894043668
0.001413455092712459
0.001413533511609479
0.001413405182023764
0.001413234005630039
0.001413304564762466
0.001413359439886894
0.001413285619981029
0.001413236229890849
0.001410653488042449
0.001410089551423144
0.001412575015758116
0.001410791603943716
0.001412669027804976
0.00141058728635782
0.001410066443402205
0.0014101818858804
0.001410136610489494
0.001410100751098409
0.001409979781213204
0.001409995134039213
0.001410150341608699
0.001412766974669214
0.001413344860289533
0.001413249561654728
0.001413419304283472
0.001413348565570914
0.001413231001938942
0.001413364494157454
0.001413580095040983
0.001413361015569603
0.001413470391443303
0.001413647109040574
0.001891718336955052
0.001891701366142544
0.001891133657571577
0.001890891768897495
0.001890921994503013
0.001891522816969492
0.001891737753114926
0.001891713800480061
0.001891690894207754
0.001891693512859432
0.00189173151267232
0.001891768502207808
0.001891754175981891
0.001891773407709505
0.001891715213989269
0.001891683690853848
0.001891696139779652
0.001891819379356342
0.001891877744258637
0.00189176111795369
0.001891770126554391
0.001891774751495438
0.001891765253149387
0.001891791705260776
0.001891751946645931
0.001891723641116941
0.001891757533644399
0.001891765274882776
0.001891773023102306
0.001891765521381138
0.001891720811001872
0.001891765830314684
0.001891764717862009
0.001891825120983532
0.001891791696392083
0.001891820140319988
0.001891753324188964
0.001891704305837171
0.001891680895748534
0.001891710553142146
0.001891719573908327
0.001891680685874374
0.001891111742535825
0.001890894536336305
0.001891468406351257
0.001891127710965162
0.001891514175653839
0.001891094164949096
0.001890887339258884
0.001890936648217276
0.001890877092139704
0.001890912828377822
0.001890895133559833
0.001890854225851964
0.001890873171823439
0.001891485825539748
0.001891733679348957
0.001891714349346471
0.001891731684846985
0.0018917108449499
0.001891728050951387
0.001891714316004155
0.001891782725686704
0.001891699319318662
0.001891725093394939
0.001891844056136919
0.002535680004102859
0.002535680660683765
0.002535595406682004
0.002535534769161644
0.002535526876731564
0.002535625872972388
0.002535683641715687
0.002535685178453133
0.002535668346021662
0.002535667133563611
0.002535680923546793
0.00253568866853009
0.002535684723577268
0.002535687849940644
0.002535672315696474
0.002535673978461435
0.002535665450140806
0.00253571734547752
0.002535716914923219
0.002535690988396288
0.002535710747037921
0.002535697064795409
0.002535679793702551
0.002535704336988282
0.002535688372461071
0.002535685823477787
0.002535685503921352
0.002535690904608282
0.002535679733112089
0.00253567031269335
0.00253568833948495
0.00253567470279946
0.002535689854631553
0.002535699029537518
0.002535685710896983
0.002535710618419337
0.002535702678677953
0.002535676441610163
0.002535674539146546
0.002535674495339523
0.002535679429295358
0.002535660637073629
0.002535574073561044
0.002535519680650972
0.002535613837392237
0.002535576811112535
0.002535631166907927
0.002535579831743702
0.002535522409158644
0.002535529682870915
0.002535513531102701
0.002535536398021745
0.002535517512404754
0.002535521660259621
0.002535504526028408
0.00253559970659953
0.002535678486445035
0.002535679886933223
0.00253567249813213
0.002535676023091794
0.002535674813230048
0.002535670067643738
0.002535682407681632
0.002535670973434033
0.00253566893934156
0.002535717813049533
0.00326175205222766
0.003261749359041498
0.003261739877273122
0.003261728969759959
0.003261725786439192
0.003261738672719509
0.003261745846890405
0.003261750737559127
0.00326174410418304
0.003261745004274192
0.003261745468074654
0.003261751153438189
0.003261746373770259
0.003261746267889917
0.003261742886597733
0.003261744245533106
0.003261746394242316
0.003261758551027225
0.003261755226343598
0.003261750415006565
0.003261752553805682
0.003261752867043289
0.003261747313381251
0.003261750277551743
0.003261745119563883
0.003261741984991605
0.003261744369019168
0.003261746205732384
0.003261740199003103
0.003261737167733071
0.003261741299602648
0.003261745820695097
0.003261743993965005
0.003261746534496899
0.003261744077884856
0.00326175056573337
0.003261752559169202
0.003261746112403414
0.003261745199812149
0.003261744665092005
0.003261745780597024
0.003261739815264164
0.003261729331953487
0.003261720782822842
0.003261732633499078
0.003261731709984678
0.003261737135721961
0.00326173487713155
0.003261723283214089
0.00326172291633754
0.003261721567527776
0.003261724646410227
0.00326172157883195
0.003261721288274439
0.003261719897791974
0.00326172655179675
0.003261743454154694
0.003261743337146447
0.003261746346065551
0.00326174337896219
0.003261742683437955
0.003261742167667223
0.003261743412798815
0.003261743377687751
0.003261744306135184
0.003261758123459205
0.003956690365723162
0.003956687670497719
0.00395668648084677
0.003956684612336155
0.003956684462508813
0.003956686656974009
0.003956686651048175
0.003956687596876752
0.003956686907671273
0.003956686437599152
0.003956687385003921
0.003956688851169954
0.003956687638582778
0.003956686690206215
0.003956686704136664
0.003956687862288736
0.003956690155408828
0.003956691882315774
0.00395669050973826
0.003956687066598255
0.003956686537338008
0.003956686931373275
0.003956686059043058
0.003956686604247321
0.003956684801377191
0.003956683625179334
0.003956684243069059
0.003956683544840033
0.003956681150817813
0.003956680347107214
0.003956681209619247
0.003956684210240456
0.003956685492544939
0.003956685626105159
0.003956685994260897
0.003956688472689842
0.003956688754905105
0.003956687058571697
0.003956686471424975
0.003956685994385489
0.003956685733477784
0.003956685021223131
0.003956683814586925
0.003956682810908144
0.003956684426683761
0.003956685193317102
0.003956685266310174
0.003956685528721454
0.003956684310715191
0.003956683146011988
0.003956683497213682
0.003956683843530108
0.00395668300667116
0.003956682817843337
0.003956683679292722
0.003956683384127663
0.003956685494751058
0.003956687204985711
0.003956688179849564
0.003956686809885228
0.003956685760881773
0.003956686115748217
0.00395668585159942
0.003956686323767588
0.003956687800909928
0.003956691731896525
0.004546996811978726
0.004546994678282622
0.00454699419103755
0.00454699384671974
0.00454699415644392
0.004546995088679889
0.004546994888809676
0.004546994997309517
0.004546995188783491
0.004546995066325598
0.004546995671586257
0.004546996222446857
0.00454699609012571
0.004546995661210378
0.004546995896544415
0.004546996741525517
0.004546997614600547
0.004546997882249108
0.004546996837189157
0.004546994341596508
0.004546992876833155
0.00454699285678307
0.004546992834649379
0.004546993518223554
0.00454699318567636
0.004546992344986811
0.004546992576930865
0.004546991997843182
0.00454699064173579
0.00454699005766033
0.004546990183509634
0.004546991794782765
0.004546993439291444
0.004546994112054118
0.004546995066529708
0.004546996200040951
0.004546996480660318
0.00454699579700821
0.004546995192176963
0.00454699469477155
0.004546994084966791
0.00454699411708012
0.004546994368730736
0.004546994592309407
0.004546995335958285
0.004546995912509927
0.004546995722825557
0.004546995684670749
0.004546995455242353
0.00454699478970322
0.00454699504671361
0.004546995017404892
0.004546994968995498
0.004546994869624364
0.004546995589478712
0.004546995366454815
0.00454699549516082
0.004546996401568221
0.004546996660786031
0.004546996229830944
0.004546995188693244
0.004546995263149063
0.004546995003330528
0.004546995193233404
0.00454699591661399
0.004546997264801528
0.005018100995716087
0.00501809953572658
0.005018099118230895
0.005018098959706083
0.005018099302703858
0.005018099917840088
0.005018099895466989
0.00501809994885139
0.005018100347700303
0.005018100379735134
0.00501810084799873
0.005018101186212454
0.0050181012771687
0.005018101208287175
0.005018101350410543
0.005018101694737911
0.005018101853164442
0.005018101637786079
0.005018100656993329
0.005018098983898259
0.005018097568311904
0.005018097427806492
0.0050180974335706
0.005018098019725288
0.005018098047957106
0.005018097771220493
0.005018097839841826
0.00501809744591773
0.005018096719769726
0.005018096202545485
0.005018096182779559
0.005018096986489994
0.005018098212675931
0.0050180991221656
0.00501810017080474
0.005018100999334275
0.005018101290237835
0.005018101033103409
0.00501810061482281
0.005018100256814289
0.005018099742427697
0.005018099810665347
0.005018100237730236
0.005018100681054001
0.005018101387564909
0.00501810197826369
0.00501810197719241
0.005018101843500224
0.005018101830766851
0.00501810139957702
0.005018101590279841
0.005018101506198215
0.005018101613657314
0.005018101449822576
0.005018101789357397
0.005018101586180043
0.00501810131696655
0.005018101527790991
0.005018101542507565
0.005018101330982142
0.005018100660944559
0.005018100562485573
0.005018100374528517
0.005018100484703376
0.005018100693266695
0.005018101252195557
0.005382098708936099
0.005382097748495879
0.005382097424868171
0.005382097324607485
0.005382097606032253
0.005382098011971669
0.005382098081069108
0.005382098177855001
0.005382098603109206
0.005382098776432573
0.005382099194288456
0.005382099413851973
0.00538209951468575
0.005382099534114755
0.005382099604843676
0.005382099599769607
0.005382099482294184
0.005382098984299444
0.005382098028162179
0.005382096875290487
0.005382095698505453
0.005382095486795178
0.005382095482857136
0.005382095862835211
0.005382096022796944
0.005382095957725967
0.005382095998751526
0.005382095761931042
0.005382095390040991
0.005382095033993432
0.005382094991856302
0.005382095418764211
0.005382096200642147
0.005382097038110287
0.005382097978019982
0.005382098725555117
0.005382099093837437
0.005382099082874993
0.005382098919574605
0.005382098771757122
0.005382098524798535
0.005382098610656743
0.005382099026554719
0.005382099513880181
0.005382100142907176
0.005382100701284087
0.005382100882520731
0.005382100849293614
0.005382100898070482
0.005382100685067192
0.005382100839205544
0.005382100751176451
0.005382100856363204
0.005382100711715956
0.005382100658256692
0.005382100354030007
0.005382099804403004
0.005382099685666416
0.005382099484507207
0.005382099231375608
0.005382098859314894
0.005382098730071647
0.0053820985999145
0.005382098684255066
0.005382098648486536
0.005382098903850115
0.005654311938917574
0.005654311283630075
0.005654311071952535
0.005654310986140153
0.00565431120648471
0.005654311526263597
0.00565431163609724
0.005654311791817595
0.00565431219069498
0.005654312443758803
0.005654312787566775
0.00565431296403604
0.005654313045324654
0.005654313072965095
0.005654313086425564
0.005654312916303982
0.005654312620077981
0.005654311995109706
0.005654311106011054
0.005654310259734398
0.005654309331937842
0.005654309079221046
0.005654309041125102
0.005654309207086178
0.005654309370243036
0.005654309377184091
0.005654309408235019
0.005654309288011293
0.005654309127545189
0.005654308934605446
0.005654308905495532
0.005654309175928772
0.005654309669199726
0.005654310343773714
0.005654311110711297
0.005654311792281201
0.00565431222144766
0.005654312407242148
0.005654312456515125
0.005654312526589304
0.005654312555315498
0.005654312707292615
0.005654313150243364
0.005654313611065531
0.005654314156500031
0.005654314628455072
0.005654314889677704
0.005654314995852503
0.005654315048546511
0.005654315036877153
0.005654315159755528
0.005654315051345399
0.005654315127798516
0.005654314965445956
0.005654314714874612
0.005654314290450231
0.005654313620002245
0.005654313222474793
0.005654312856551631
0.005654312527783221
0.005654312293517144
0.005654312158849004
0.005654312051060861
0.00565431211790741
0.00565431201021448
0.005654312124396019
0.005847860830639335
0.005847860380312965
0.0058478602472299
0.005847860179516432
0.005847860338054717
0.005847860607735366
0.005847860777361413
0.005847861008487626
0.00584786135545531
0.005847861645907053
0.005847861931124588
0.005847862081388676
0.005847862145299134
0.005847862173210783
0.005847862141634347
0.005847861880755948
0.005847861504476768
0.005847860873593817
0.005847860064083881
0.005847859400253621
0.005847858649241625
0.00584785835124165
0.005847858272278376
0.005847858302467842
0.005847858402645996
0.005847858420327824
0.005847858439468571
0.005847858396126572
0.00584785835542026
0.005847858303005552
0.005847858294825217
0.005847858514804576
0.005847858849867176
0.005847859377799738
0.005847859976996152
0.005847860594469741
0.005847861010623528
0.005847861375583858
0.005847861577706445
0.005847861836415461
0.005847862077061019
0.005847862335390953
0.00584786282536385
0.00584786324541372
0.005847863727843947
0.005847864122272081
0.005847864398424113
0.005847864574331121
0.005847864667497214
0.005847864701990906
0.005847864807856045
0.005847864678443936
0.005847864714552869
0.005847864522781535
0.005847864149785675
0.00584786365912459
0.005847862959214242
0.005847862398710712
0.005847861936704431
0.005847861531991586
0.005847861326046449
0.005847861175208165
0.005847861047901742
0.005847861112325808
0.005847860949280073
0.005847861020194604
0.005973834748835953
0.005973834442555793
0.005973834363624415
0.00597383432104566
0.005973834456229892
0.005973834687336886
0.005973834893527132
0.005973835181567972
0.005973835490447738
0.005973835793008471
0.005973836035379296
0.005973836164800041
0.005973836214298805
0.005973836236487757
0.005973836180573285
0.005973835888961935
0.005973835490871049
0.005973834909718177
0.005973834188689625
0.005973833641112205
0.005973833020453972
0.005973832702249468
0.005973832556342613
0.005973832509388477
0.00597383252266731
0.005973832526281224
0.005973832533009248
0.005973832526899894
0.005973832554797258
0.005973832571416366
0.005973832623534959
0.005973832836842467
0.005973833082671571
0.005973833507504514
0.005973833976972031
0.005973834528569636
0.005973834916541306
0.005973835384490252
0.005973835697146207
0.005973836101732356
0.005973836484783762
0.005973836860716107
0.005973837365393734
0.005973837770950656
0.005973838218656818
0.00597383855787932
0.005973838824319146
0.005973839008358438
0.005973839104935246
0.005973839138597962
0.005973839208795887
0.0059738390649481
0.005973839047900389
0.005973838815620888
0.005973838352091673
0.005973837840323622
0.005973837162463399
0.005973836533108225
0.005973836036672608
0.005973835580029865
0.005973835360635324
0.005973835182368643
0.005973835032020635
0.005973835068093649
0.005973834884819617
0.005973834930440275
0.006042032371408637
0.006042032152665453
0.006042032131637082
0.006042032127013433
0.006042032249774867
0.006042032459462142
0.006042032688228611
0.006042033007365053
0.006042033289791497
0.006042033588790756
0.006042033797589932
0.006042033907077904
0.006042033944309629
0.006042033958714876
0.006042033890544469
0.006042033601815604
0.006042033215060381
0.006042032699349043
0.006042032072707208
0.006042031610279381
0.00604203109461147
0.006042030775426909
0.006042030579723078
0.006042030447434924
0.006042030399445828
0.006042030379695982
0.006042030369568865
0.006042030378828578
0.006042030437195717
0.006042030503264983
0.006042030607572401
0.006042030805700891
0.006042031008181539
0.006042031370020432
0.006042031748626771
0.006042032239870558
0.006042032601736714
0.006042033115434579
0.006042033501324448
0.006042034004686715
0.006042034475660956
0.006042034944659261
0.006042035454328714
0.006042035853047636
0.006042036280435769
0.006042036581312896
0.006042036832383391
0.00604203699537555
0.006042037083025598
0.006042037104274846
0.006042037132673778
0.006042036967585684
0.006042036855892515
0.00604203656871393
0.006042036044802979
0.006042035537948164
0.006042034909106066
0.006042034269620702
0.006042033782083549
0.006042033304130659
0.006042033068370501
0.006042032866890592
0.00604203269467698
0.006042032702808065
0.00604203250457346
0.00604203254079983
0.006061595022384854
0.006061594873236807
0.00606159489520313
0.006061594893311649
0.00606159502737318
0.006061595229550299
0.006061595472266534
0.006061595804257786
0.006061596067526029
0.006061596352551841
0.006061596531340788
0.006061596621837216
0.006061596647059876
0.00606159665456237
0.00606159658320452
0.006061596315848374
0.006061595959000622
0.006061595511071229
0.006061594978861475
0.006061594581936329
0.006061594152167272
0.006061593845994345
0.006061593621710707
0.00606159343317667
0.006061593324417083
0.006061593276400577
0.006061593258714131
0.006061593263446014
0.006061593325172086
0.006061593415794925
0.006061593549101772
0.006061593738294395
0.006061593916514656
0.006061594242244322
0.006061594563611737
0.006061595004600798
0.006061595344082119
0.00606159586242604
0.006061596288505751
0.006061596847751196
0.006061597367666546
0.006061597894592737
0.006061598408636832
0.006061598804786337
0.006061599218161601
0.00606159949191501
0.006061599718803972
0.006061599852541801
0.006061599923787879
0.00606159992737743
0.00606159990749671
0.006061599700285782
0.006061599501495566
0.006061599162637364
0.006061598612514468
0.00606159811986264
0.006061597547791981
0.006061596936131257
0.006061596479074697
0.00606159600966395
0.006061595764913185
0.006061595545997561
0.006061595360561885
0.006061595343706911
0.0060615951400644
0.00606159517532005
0.006041584055821187
0.006041583957116194
0.006041583986750264
0.006041583996985587
0.006041584156068773
0.006041584343367254
0.006041584596158526
0.006041584928373045
0.006041585174461753
0.006041585439340735
0.006041585589609245
0.006041585661508497
0.00604158567582413
0.006041585678106014
0.006041585609024806
0.006041585372625557
0.006041585056017457
0.006041584673383463
0.006041584227799671
0.006041583886205804
0.006041583527967996
0.006041583244587985
0.006041583009852969
0.00604158279152938
0.006041582635771207
0.006041582555099842
0.006041582531778581
0.006041582534045421
0.006041582584140472
0.006041582683407783
0.006041582819471067
0.006041583001909516
0.006041583159420397
0.006041583463792286
0.006041583748708905
0.00604158414764687
0.006041584467944942
0.006041584962520676
0.006041585406044491
0.006041585983024684
0.006041586525940223
0.00604158707776275
0.006041587590414448
0.006041587985471702
0.006041588384655385
0.006041588637625207
0.006041588841470318
0.006041588948826919
0.00604158900650949
0.006041588993888131
0.006041588922281914
0.0060415886703789
0.006041588412520342
0.006041588024239913
0.006041587489710749
0.006041587002000787
0.006041586485386851
0.006041585919539721
0.006041585501088202
0.006041585060163891
0.00604158481506152
0.006041584585175995
0.006041584395246532
0.006041584356168681
0.006041584155312662
0.006041584191431272
0.005991610490504271
0.005991610423705876
0.005991610458754832
0.005991610483720197
0.005991610650174296
0.005991610824323401
0.005991611075965165
0.005991611396827844
0.005991611627727603
0.00599161186623384
0.005991611992033937
0.005991612048651025
0.005991612054334077
0.005991612053135166
0.005991611989101624
0.005991611789745633
0.005991611515023822
0.005991611193996454
0.005991610824949325
0.005991610536213003
0.005991610239177267
0.005991609985509503
0.005991609756497578
0.005991609528761548
0.005991609346243962
0.00599160924135927
0.005991609210886857
0.005991609208793147
0.005991609240824138
0.005991609335919972
0.005991609453557988
0.005991609630864377
0.005991609768131835
0.0059916100608825
0.00599161031629589
0.005991610675650231
0.00599161097671517
0.005991611426382727
0.005991611870216274
0.005991612431405848
0.005991612976492833
0.005991613526604422
0.005991614031827938
0.005991614422759597
0.005991614805931705
0.005991615043927092
0.005991615231644968
0.005991615321027233
0.005991615366085822
0.005991615341398301
0.005991615225611861
0.005991614950850543
0.005991614661213965
0.005991614237958209
0.005991613744764934
0.005991613258870842
0.005991612797601581
0.005991612284274005
0.005991611905365836
0.005991611504182894
0.005991611263243061
0.005991611026847252
0.005991610836868839
0.005991610774622456
0.005991610577290272
0.005991610611638683
0.005922718038298374
0.005922718010099121
0.005922718046549004
0.005922718079304429
0.00592271824011529
0.005922718397936198
0.005922718632618554
0.005922718932933222
0.005922719144389418
0.005922719354554806
0.005922719459842057
0.0059227195086699
0.005922719510022152
0.005922719507975327
0.005922719451893904
0.005922719295066659
0.005922719060600469
0.00592271879976578
0.005922718495373143
0.005922718257683274
0.005922718015741948
0.005922717794833466
0.005922717588588353
0.005922717362917886
0.005922717176638391
0.005922717046687048
0.005922717012992503
0.005922717008314705
0.005922717024082588
0.005922717107289114
0.00592271719201326
0.005922717364024231
0.005922717480468546
0.005922717761165576
0.005922717992347694
0.005922718305922153
0.005922718588391313
0.005922718967889699
0.005922719401124956
0.005922719914450866
0.005922720446033603
0.00592272097315284
0.005922721464500249
0.005922721847631487
0.005922722212700407
0.005922722440631073
0.005922722621028913
0.005922722701346362
0.00592272273847855
0.005922722714607046
0.00592272257367043
0.00592272230525326
0.005922722017566344
0.00592272157475496
0.005922721152429234
0.005922720666381959
0.005922720261619022
0.005922719805024565
0.005922719460828999
0.005922719102401226
0.005922718862833637
0.005922718614690837
0.005922718428078909
0.00592271833575631
0.005922718135992034
0.00592271816339398
0.005849332305374507
0.005849332292677351
0.005849332333729547
0.005849332367874278
0.005849332505680422
0.005849332636507371
0.005849332836142014
0.00584933310714462
0.005849333287624115
0.0058493334710121
0.005849333561388075
0.005849333618986178
0.005849333627066278
0.00584933363053905
0.005849333584584833
0.005849333481350081
0.005849333285532288
0.005849333087056111
0.005849332839656832
0.005849332651029818
0.00584933246479985
0.005849332272346919
0.005849332106075119
0.005849331880492766
0.005849331708972272
0.005849331566586399
0.005849331521522667
0.005849331518235724
0.005849331522410378
0.005849331591488358
0.005849331628858804
0.005849331788840104
0.005849331886754248
0.005849332147167574
0.005849332356002729
0.005849332605187935
0.005849332869754258
0.005849333149570401
0.005849333566434413
0.005849334001270981
0.005849334506741334
0.005849334994516859
0.005849335461563237
0.005849335830192363
0.005849336174691775
0.00584933639238913
0.00584933657652608
0.005849336657507365
0.005849336706064317
0.005849336689373512
0.005849336559865684
0.005849336327577654
0.005849336087899257
0.005849335645810003
0.005849335330604542
0.005849334847155247
0.005849334507249788
0.005849334120638727
0.005849333800238376
0.00584933348416196
0.005849333225949416
0.005849332953604842
0.00584933276965606
0.005849332630314031
0.005849332419837915