/*--------------------------------*- C++ -*----------------------------------*\
| =========                 |                                                 |
| \\      /  F ield         | OpenFOAM: The Open Source CFD Toolbox           |
|  \\    /   O peration     | Version:  v1812                                 |
|   \\  /    A nd           | Web:      www.OpenFOAM.com                      |
|    \\/     M anipulation  |                                                 |
\*---------------------------------------------------------------------------*/
FoamFile
{
    version     2.0;
    format      ascii;
    class       volScalarField;
    location    "10000";
    object      p;
}
// * * * * * * * * * * * * * * * * * * * * * * * * * * * * * * * * * * * * * //

dimensions      [0 2 -2 0 0 0 0];


internalField   nonuniform List<scalar> 
2838
(
7.921656488490557e-08
6.353417732170675e-07
-3.130116554633849e-08
-6.173408179397646e-07
-1.759833325779592e-06
-1.635761242305361e-06
-1.166293164957615e-06
-1.341745210062217e-06
-1.11047292742832e-06
-1.04693918668766e-06
-1.489509079392601e-06
-1.509516258058224e-06
-1.045264148764136e-06
-1.221338320778614e-06
-1.708587679902246e-06
-1.372619649774767e-06
-8.485523255494525e-07
-1.308460290961127e-06
-1.490723706736606e-06
-1.362164724777109e-06
-1.418330236639983e-06
-1.278869488509009e-06
-1.387537099473703e-06
-1.234485813627985e-06
-8.852999775485502e-07
-1.353212781918226e-06
-1.654844026544685e-06
-1.104530098049081e-06
-8.803798062480166e-07
-1.176568640822133e-06
-1.531017222802514e-06
-1.805230826846985e-06
-1.67657815975692e-06
-1.447763493600326e-06
-1.526464130883618e-06
-1.361632719085165e-06
-8.244180591431591e-07
-1.047786572714385e-06
-1.121655939635996e-06
-4.666997370784301e-07
-1.217961827957042e-06
-1.616302340714595e-06
-7.454501081074787e-07
-1.373905416489019e-06
-1.119160483625416e-06
-6.311669383344579e-07
-4.814820145425181e-07
-8.047386636322909e-08
-8.176741657952986e-07
-1.19733252360956e-06
-1.283329714766492e-06
-1.266161112214559e-06
-1.231188077200751e-06
-1.810735006119269e-06
-2.652014888971634e-06
-2.031260901782508e-06
-1.670599813712988e-06
-1.615402939899882e-06
-6.085667441904015e-07
-2.701015344042293e-07
-9.497368257822138e-07
-1.82093253172596e-06
-1.709545122674245e-06
-1.441567129826804e-06
-1.585647828577389e-06
-1.225349954884669e-06
1.035647400574931e-07
5.771889969287254e-07
-9.576716300630298e-08
-6.217875599137404e-07
-1.709792920848278e-06
-1.570991708468147e-06
-1.14931640534495e-06
-1.34625301872548e-06
-1.115927859249862e-06
-1.036585044243265e-06
-1.477697150325928e-06
-1.514858546627294e-06
-1.051015200421033e-06
-1.214704603658337e-06
-1.711085844337618e-06
-1.382837694664483e-06
-8.495690176813453e-07
-1.299155577440358e-06
-1.486153063330361e-06
-1.364902947124002e-06
-1.42561849523384e-06
-1.284790312216875e-06
-1.380932233178906e-06
-1.22764134301763e-06
-8.824391002179905e-07
-1.34945121333287e-06
-1.659252797343611e-06
-1.112625108506218e-06
-8.815274697410027e-07
-1.175186098356259e-06
-1.530704363305112e-06
-1.802105998992576e-06
-1.676720098010234e-06
-1.447611294591651e-06
-1.526267086572999e-06
-1.364222367919523e-06
-8.205519299807501e-07
-1.047116201207785e-06
-1.127554656270369e-06
-4.594153897355533e-07
-1.207673537451358e-06
-1.684408915279691e-06
-8.19277308606065e-07
-1.33252719047317e-06
-1.121915845083245e-06
-6.309583634211635e-07
-4.797600650277507e-07
-1.276975789793962e-07
-8.168043483430361e-07
-1.197709048076612e-06
-1.27943501184348e-06
-1.259515133631868e-06
-1.230573457452018e-06
-1.815621134114919e-06
-2.606511524331507e-06
-1.961656491979936e-06
-1.652248467160682e-06
-1.62074923344798e-06
-6.155242810266474e-07
-2.715757434355099e-07
-9.408989958749658e-07
-1.818747722702251e-06
-1.718165906709447e-06
-1.440465822114699e-06
-1.579215155034239e-06
-1.231661769337064e-06
1.007596783277712e-07
4.687580041391544e-07
-2.309466542991095e-07
-6.51200058081021e-07
-1.599221709968443e-06
-1.441301391597718e-06
-1.12483871704235e-06
-1.350184261277572e-06
-1.128050512081173e-06
-1.027972651269916e-06
-1.453999198237193e-06
-1.518278491045812e-06
-1.07484230055752e-06
-1.212451298806312e-06
-1.701532788839838e-06
-1.387622055146687e-06
-8.554511147956123e-07
-1.286788791583801e-06
-1.476759453220481e-06
-1.358942895389715e-06
-1.436905077756036e-06
-1.307607677095493e-06
-1.367168538041984e-06
-1.215248020199024e-06
-8.80469354399537e-07
-1.340307100746739e-06
-1.665218174462448e-06
-1.125827560021995e-06
-8.884771018243844e-07
-1.182705853282945e-06
-1.532272833752166e-06
-1.787529691607427e-06
-1.671728322406464e-06
-1.447756452521898e-06
-1.521985553228463e-06
-1.362302443934906e-06
-8.193781844770894e-07
-1.049204596468469e-06
-1.134890033455019e-06
-4.641109724903102e-07
-1.194443900272726e-06
-1.786809828971743e-06
-9.650455068816344e-07
-1.248987043278783e-06
-1.101440794079862e-06
-6.293906122206496e-07
-4.79253669389262e-07
-2.422658571168737e-07
-8.330036721745427e-07
-1.198184244030316e-06
-1.275124921271799e-06
-1.252571126759375e-06
-1.242034756381142e-06
-1.827034997352141e-06
-2.49213934662803e-06
-1.818441066844327e-06
-1.629256009672118e-06
-1.622984233867298e-06
-6.252926940998548e-07
-2.863011082820005e-07
-9.337456810630682e-07
-1.809627992078836e-06
-1.722925947837965e-06
-1.433608255877675e-06
-1.562520366895439e-06
-1.234527042583362e-06
6.798270212047953e-08
3.395031704094828e-07
-4.010487575983281e-07
-7.088952184163335e-07
-1.458162205049859e-06
-1.284053629855204e-06
-1.092243324263308e-06
-1.352287336135025e-06
-1.15414580240484e-06
-1.025621770945538e-06
-1.407303653381657e-06
-1.511221869916757e-06
-1.137772328396613e-06
-1.22603612123097e-06
-1.659296766025173e-06
-1.371728800471731e-06
-8.757314324016159e-07
-1.270026211222561e-06
-1.453324180727517e-06
-1.338617889392688e-06
-1.454105848516431e-06
-1.358037492256152e-06
-1.345566751486233e-06
-1.205253730698247e-06
-8.877317969008629e-07
-1.316904648973486e-06
-1.666780543974754e-06
-1.145547353695434e-06
-9.102322199504777e-07
-1.215238669885285e-06
-1.539026508876014e-06
-1.74630897884951e-06
-1.660111673465552e-06
-1.440565461108029e-06
-1.491608476983107e-06
-1.367344747354759e-06
-8.363257389761091e-07
-1.044904598001885e-06
-1.141516026663283e-06
-5.01970122867034e-07
-1.185499910146066e-06
-1.869417332679475e-06
-1.140346256337887e-06
-1.158074763583972e-06
-1.054490570330566e-06
-6.270349837392079e-07
-4.836924449802636e-07
-3.9529054496966e-07
-8.693580468858981e-07
-1.200930411072792e-06
-1.267388241586799e-06
-1.254972684573474e-06
-1.287043071450267e-06
-1.832617213033125e-06
-2.321193170839815e-06
-1.631708330994902e-06
-1.597706035410684e-06
-1.620245062034925e-06
-6.488429746733413e-07
-3.336483546424299e-07
-9.291292229217063e-07
-1.775962781998418e-06
-1.713130618772189e-06
-1.413054189703335e-06
-1.521410095417376e-06
-1.236257129358851e-06
2.552048360015603e-09
2.241659948507269e-07
-5.349110003532109e-07
-7.61379278833377e-07
-1.352697711632424e-06
-1.169890753919548e-06
-1.053684180574786e-06
-1.34871487047359e-06
-1.188259084903068e-06
-1.02984895099692e-06
-1.346314768021836e-06
-1.492509402423943e-06
-1.227108597612336e-06
-1.256682931933342e-06
-1.589649197846046e-06
-1.333964481603447e-06
-9.103391900596048e-07
-1.251356582325951e-06
-1.419774000972277e-06
-1.316474065018021e-06
-1.47205493278315e-06
-1.424600775027092e-06
-1.325573719356033e-06
-1.199427613158704e-06
-9.107216573844746e-07
-1.28680823569911e-06
-1.655066410357973e-06
-1.165232043566397e-06
-9.392474989897802e-07
-1.258913200745111e-06
-1.551822180529805e-06
-1.692006216892729e-06
-1.646633609927985e-06
-1.426914801555424e-06
-1.432322255747675e-06
-1.391512287433718e-06
-8.781011445309772e-07
-1.013900104735678e-06
-1.140570156136951e-06
-5.785471989116697e-07
-1.187337065582544e-06
-1.897019937568387e-06
-1.266273555695228e-06
-1.10027224437159e-06
-1.01778553385963e-06
-6.288451557316955e-07
-4.926599170142602e-07
-5.111846330412106e-07
-9.010965205228646e-07
-1.204057665244217e-06
-1.250917202337857e-06
-1.267310237110532e-06
-1.360325391680207e-06
-1.821371131250857e-06
-2.169034272559589e-06
-1.479624553258415e-06
-1.549374676830509e-06
-1.610983624077188e-06
-6.869870064743516e-07
-4.165755432941762e-07
-9.299505042106919e-07
-1.714476682842073e-06
-1.685742315190882e-06
-1.380379000093318e-06
-1.455525088140828e-06
-1.235431961089121e-06
-9.672446955104163e-08
1.229630526469325e-07
-6.163173948199143e-07
-8.013531875720304e-07
-1.286214255060385e-06
-1.114009877859947e-06
-1.023687053546987e-06
-1.327698942610318e-06
-1.213415565513437e-06
-1.053098567347405e-06
-1.291512173998769e-06
-1.454981148104385e-06
-1.316283242737401e-06
-1.300573309972991e-06
-1.515712472825745e-06
-1.284537039568546e-06
-9.53654941806526e-07
-1.244579695520095e-06
-1.381305519316617e-06
-1.291509215322063e-06
-1.482647345544235e-06
-1.491732944241063e-06
-1.317754166998943e-06
-1.197591862004927e-06
-9.442237382516405e-07
-1.256051384932312e-06
-1.632301219295709e-06
-1.189186992073275e-06
-9.619949524896356e-07
-1.287099220640171e-06
-1.564943875981909e-06
-1.644610011287732e-06
-1.63633918523314e-06
-1.416640733776134e-06
-1.357897596229382e-06
-1.423524529237308e-06
-9.507450033578809e-07
-9.673270922251285e-07
-1.129080087471278e-06
-6.761695229803728e-07
-1.192113646677668e-06
-1.868380885312062e-06
-1.325656305539345e-06
-1.076191580296671e-06
-9.969623269086549e-07
-6.391005774950729e-07
-5.1041000554485e-07
-5.84183293121584e-07
-9.250412216117893e-07
-1.203924413922434e-06
-1.231185346006908e-06
-1.279192560309432e-06
-1.432231977128322e-06
-1.792977134989544e-06
-2.057806491128409e-06
-1.393225707312252e-06
-1.487360341552512e-06
-1.601243826810605e-06
-7.43841923738342e-07
-5.129380220023055e-07
-9.351328676287886e-07
-1.632596227729835e-06
-1.647224776906066e-06
-1.345986832091092e-06
-1.370403611161267e-06
-1.215498549962535e-06
-2.099231432158935e-07
2.841683775130031e-08
-6.492221989728655e-07
-8.235025751737985e-07
-1.239734860793403e-06
-1.106871881580992e-06
-1.020679209359834e-06
-1.292781427090138e-06
-1.214323882264515e-06
-1.094440182663322e-06
-1.269945273403941e-06
-1.403154289247683e-06
-1.363947911235157e-06
-1.333729602277224e-06
-1.454321242102175e-06
-1.251510953310609e-06
-1.005467792772806e-06
-1.2644877186823e-06
-1.353443094719847e-06
-1.263925756491309e-06
-1.473457630480855e-06
-1.522432300827807e-06
-1.323194966256394e-06
-1.211778845352282e-06
-9.811265892196526e-07
-1.223106007576723e-06
-1.599606580444805e-06
-1.223921427310356e-06
-9.862685536807311e-07
-1.293770880075026e-06
-1.564783861259753e-06
-1.612331469793231e-06
-1.625249292508011e-06
-1.415579056808521e-06
-1.298732692606591e-06
-1.426922418925691e-06
-1.033788047087321e-06
-9.518517012039331e-07
-1.121866978296799e-06
-7.648973139682136e-07
-1.179167821917043e-06
-1.792204579136756e-06
-1.331836320279672e-06
-1.075058611736062e-06
-9.911757673554254e-07
-6.641823158634084e-07
-5.443312509548548e-07
-6.325977504798057e-07
-9.396462367426194e-07
-1.197804593322463e-06
-1.220485995703068e-06
-1.278607489602326e-06
-1.470476949573755e-06
-1.752377780655007e-06
-1.977811468420249e-06
-1.381288434216197e-06
-1.427792364355398e-06
-1.582994515104189e-06
-8.201472690826796e-07
-5.936685238725626e-07
-9.396330970412692e-07
-1.549707344383993e-06
-1.610729968291234e-06
-1.329425683310806e-06
-1.290062397078028e-06
-1.167178226403815e-06
-3.303642175475079e-07
-8.196224157500408e-08
-6.60997199665573e-07
-8.303920192607306e-07
-1.191456260166127e-06
-1.115048581153669e-06
-1.032868142999742e-06
-1.261487404880883e-06
-1.21051763865742e-06
-1.127507428899969e-06
-1.269459173543587e-06
-1.357568334066488e-06
-1.368430940256121e-06
-1.348989358350331e-06
-1.397508434814997e-06
-1.242207479316947e-06
-1.064339688464462e-06
-1.281118002320971e-06
-1.345373712243815e-06
-1.259809434625135e-06
-1.453938807133822e-06
-1.513374709015573e-06
-1.326625387316555e-06
-1.235211702692337e-06
-1.038600296866723e-06
-1.213658394837427e-06
-1.543876525543095e-06
-1.237790433913775e-06
-1.02590206442923e-06
-1.294388140224079e-06
-1.546074691875219e-06
-1.577838979051482e-06
-1.59055603403212e-06
-1.428850015550872e-06
-1.282025955381402e-06
-1.398082223108329e-06
-1.094337461316884e-06
-9.64472437143457e-07
-1.122719497847172e-06
-8.607656527962888e-07
-1.166706231534348e-06
-1.68587765883899e-06
-1.3123783051565e-06
-1.078688813222836e-06
-9.956829338640768e-07
-7.064214859988577e-07
-5.979733968836407e-07
-6.825363847329743e-07
-9.463819408996222e-07
-1.187570023081625e-06
-1.219416893484198e-06
-1.274537097767626e-06
-1.481973676127577e-06
-1.699458487084923e-06
-1.893368680712556e-06
-1.400378867921519e-06
-1.390347734085969e-06
-1.528402423076331e-06
-8.942224776644992e-07
-6.90511799573632e-07
-9.568276472537028e-07
-1.463031574658396e-06
-1.549432407770339e-06
-1.320907416522735e-06
-1.237990574782198e-06
-1.109449050874621e-06
-4.472941110283888e-07
-2.07610273832916e-07
-6.78398220307824e-07
-8.371729533269611e-07
-1.143710180307318e-06
-1.117907052051601e-06
-1.048157494306721e-06
-1.235364995762299e-06
-1.200507721368353e-06
-1.148523424323022e-06
-1.277552028004486e-06
-1.322177162310111e-06
-1.350277750872277e-06
-1.360281279216227e-06
-1.360586708650165e-06
-1.238901742114742e-06
-1.11294415782173e-06
-1.2896203996859e-06
-1.351953693885595e-06
-1.265388206062003e-06
-1.427241425462971e-06
-1.490678907838486e-06
-1.327084909208075e-06
-1.258628732495427e-06
-1.100698533247406e-06
-1.222167800310155e-06
-1.480954338688306e-06
-1.243295879826504e-06
-1.077514147966183e-06
-1.28752847420971e-06
-1.512011547000154e-06
-1.543881360716107e-06
-1.5461310738545e-06
-1.441332531144759e-06
-1.286163820899239e-06
-1.355695439353466e-06
-1.141910036769924e-06
-9.97464659925547e-07
-1.127188382289329e-06
-9.548707890716721e-07
-1.160536277699209e-06
-1.576976171880944e-06
-1.287723651812648e-06
-1.080831126803092e-06
-1.004597529254848e-06
-7.580666705552334e-07
-6.624096214853449e-07
-7.38566870800771e-07
-9.562565045826533e-07
-1.172511186459187e-06
-1.225145203317389e-06
-1.274262495445628e-06
-1.471578798767077e-06
-1.644814688329276e-06
-1.806277162312638e-06
-1.414013416633293e-06
-1.357131041399419e-06
-1.457012905558521e-06
-9.618112473970608e-07
-7.973597885565593e-07
-9.850125288909514e-07
-1.382166061920905e-06
-1.476613761175479e-06
-1.304439773626671e-06
-1.192876945366688e-06
-1.050973916767683e-06
-5.440971897639681e-07
-3.301224231420495e-07
-7.037021756437364e-07
-8.472698908893057e-07
-1.103302961152899e-06
-1.11443516876663e-06
-1.060896883343379e-06
-1.214459306974602e-06
-1.1900925662526e-06
-1.159195800169142e-06
-1.282005360106359e-06
-1.298137642435694e-06
-1.327671183517138e-06
-1.36353013267927e-06
-1.340363997816151e-06
-1.238333597313516e-06
-1.146796151194468e-06
-1.29248796295737e-06
-1.358700072752771e-06
-1.277421139417051e-06
-1.404891954026014e-06
-1.466310411795398e-06
-1.328139377481714e-06
-1.27965765187627e-06
-1.155358509842147e-06
-1.234831253495693e-06
-1.428579073476734e-06
-1.248308441750776e-06
-1.120880969967767e-06
-1.278217549625912e-06
-1.477025712918411e-06
-1.510892712095111e-06
-1.503060122555667e-06
-1.446123562338264e-06
-1.298741261227817e-06
-1.32200063980572e-06
-1.177378511099284e-06
-1.039109026856555e-06
-1.136052606928446e-06
-1.029841127654092e-06
-1.161160168658127e-06
-1.485276642985265e-06
-1.264757592405378e-06
-1.081762474085198e-06
-1.014677459368265e-06
-8.098874062698749e-07
-7.267399010734009e-07
-7.937886307672152e-07
-9.713805418695026e-07
-1.161433814440191e-06
-1.22994740424063e-06
-1.271901157185247e-06
-1.453866762508974e-06
-1.595134986512386e-06
-1.723162280315584e-06
-1.413850177871642e-06
-1.327420329246416e-06
-1.393892409922639e-06
-1.017304025853717e-06
-8.89336487733119e-07
-1.012658982159396e-06
-1.31232664252372e-06
-1.405619419548037e-06
-1.279482246892873e-06
-1.158090661914338e-06
-1.006306113044502e-06
-6.218985980573489e-07
-4.401729785552457e-07
-7.324143058206224e-07
-8.593631215317672e-07
-1.071729854850254e-06
-1.107577142085833e-06
-1.069830654426479e-06
-1.196042990896157e-06
-1.182604263451805e-06
-1.164929998297047e-06
-1.278452993830884e-06
-1.282427728862095e-06
-1.309217891290254e-06
-1.359502337150761e-06
-1.327305899461233e-06
-1.239005615149633e-06
-1.17283657501858e-06
-1.291804718901416e-06
-1.361396341944716e-06
-1.292573438316155e-06
-1.388897214239293e-06
-1.44687117039817e-06
-1.332007018796299e-06
-1.296744717337765e-06
-1.198854194503176e-06
-1.247752270224892e-06
-1.388962779798558e-06
-1.250919298198173e-06
-1.153581648466295e-06
-1.270048488848983e-06
-1.442680060379643e-06
-1.480992884971669e-06
-1.467914880967403e-06
-1.442559920483728e-06
-1.313109155066643e-06
-1.301899464095001e-06
-1.203421969581637e-06
-1.081029164612244e-06
-1.148205886870752e-06
-1.085823701342351e-06
-1.165714256256649e-06
-1.413195587175807e-06
-1.245167015869661e-06
-1.083518885476868e-06
-1.02573892513558e-06
-8.582254040442345e-07
-7.860882017667009e-07
-8.448565154640225e-07
-9.896381216737503e-07
-1.154601447694431e-06
-1.232246720429668e-06
-1.269144986228203e-06
-1.434015983266166e-06
-1.547759055796727e-06
-1.648041144927905e-06
-1.403891733798711e-06
-1.303093312908809e-06
-1.34498121322806e-06
-1.058056513439704e-06
-9.580465710848251e-07
-1.034736382092039e-06
-1.256352830664279e-06
-1.343739117659322e-06
-1.251633129458639e-06
-1.131539854606751e-06
-9.766516860330194e-07
-6.848483648109664e-07
-5.349396651139654e-07
-7.614777697380938e-07
-8.727268746135775e-07
-1.048461659462817e-06
-1.099180982303072e-06
-1.075386186982792e-06
-1.179902615582666e-06
-1.177157196334644e-06
-1.167150775342429e-06
-1.268876359872413e-06
-1.272276606862277e-06
-1.295657199325794e-06
-1.349585497486928e-06
-1.317073545582392e-06
-1.2414254708653e-06
-1.194106614740412e-06
-1.289401040361775e-06
-1.360347817252231e-06
-1.308230570248072e-06
-1.378816676375148e-06
-1.43238965677823e-06
-1.337920998254079e-06
-1.310577921182098e-06
-1.232567521246793e-06
-1.259449340173346e-06
-1.359595217648936e-06
-1.251522868382845e-06
-1.177852838553055e-06
-1.263671738130255e-06
-1.410616243697024e-06
-1.454506605003114e-06
-1.440524302863706e-06
-1.433566255030882e-06
-1.326148295473625e-06
-1.292743811905674e-06
-1.223064208021903e-06
-1.119376316607488e-06
-1.162384416419547e-06
-1.127259996559533e-06
-1.172063691261739e-06
-1.358324535975237e-06
-1.229924968889609e-06
-1.087407329422633e-06
-1.037712218681415e-06
-9.018903766277925e-07
-8.396450272846607e-07
-8.907431099312294e-07
-1.009255629715248e-06
-1.151169365691335e-06
-1.232366546290141e-06
-1.26640566857216e-06
-1.413222519704597e-06
-1.503082983789791e-06
-1.581669944381215e-06
-1.388398078944149e-06
-1.283205167828122e-06
-1.30716630626198e-06
-1.085748315916829e-06
-1.005970945521782e-06
-1.051306657187012e-06
-1.213291236376575e-06
-1.292275446755806e-06
-1.223654081583032e-06
-1.110797992134356e-06
-9.598728439352292e-07
-7.361666841475206e-07
-6.150885979832731e-07
-7.897532312195772e-07
-8.868513055641258e-07
-1.032204116152531e-06
-1.090386419962788e-06
-1.078453313993178e-06
-1.165778775161166e-06
-1.172112904334579e-06
-1.167059595819232e-06
-1.256400931962058e-06
-1.264818682958299e-06
-1.285389966137222e-06
-1.336372764124905e-06
-1.308520184627293e-06
-1.245183140509033e-06
-1.211496435480666e-06
-1.286644619911772e-06
-1.356754666232127e-06
-1.322647631334653e-06
-1.37359455204534e-06
-1.421964105470187e-06
-1.344856785145351e-06
-1.32197971143548e-06
-1.258862482579847e-06
-1.269788488771708e-06
-1.338064555631918e-06
-1.251153207922391e-06
-1.195645383517892e-06
-1.258743479918891e-06
-1.381792332147224e-06
-1.430551448932506e-06
-1.418957577326077e-06
-1.421990559518005e-06
-1.336544906508106e-06
-1.290656921790191e-06
-1.238594927931045e-06
-1.153268475136892e-06
-1.177977105561235e-06
-1.158765211571586e-06
-1.179429717169061e-06
-1.317359327987413e-06
-1.21868607188226e-06
-1.093316949513066e-06
-1.050119279551684e-06
-9.407282924576069e-07
-8.876542942791497e-07
-9.31715287624838e-07
-1.029221197556803e-06
-1.150428648032629e-06
-1.231125547478352e-06
-1.26319722955053e-06
-1.392223332520171e-06
-1.462028251707132e-06
-1.523302591787694e-06
-1.369962634097677e-06
-1.266284451680772e-06
-1.276799934239964e-06
-1.103240939066147e-06
-1.038041163144027e-06
-1.063538999633288e-06
-1.180774973439522e-06
-1.250055176412122e-06
-1.197068372887836e-06
-1.094265596131641e-06
-9.525622473366692e-07
-7.785831430440641e-07
-6.825204702078363e-07
-8.167883655616745e-07
-9.012129392297395e-07
-1.021484208334263e-06
-1.081947456939975e-06
-1.079695962629945e-06
-1.153294998703563e-06
-1.166559048167219e-06
-1.165499718888853e-06
-1.243099219359683e-06
-1.258020987214576e-06
-1.277104865955468e-06
-1.322189582518069e-06
-1.301278113796554e-06
-1.249435363846982e-06
-1.225314904554038e-06
-1.284288679920233e-06
-1.351828361171915e-06
-1.335074560136395e-06
-1.372109514389679e-06
-1.414652852555353e-06
-1.352061744695292e-06
-1.331733715331772e-06
-1.27991554636585e-06
-1.279093880720748e-06
-1.322714557331302e-06
-1.250571521414142e-06
-1.208194549191039e-06
-1.254576194574675e-06
-1.356307688658962e-06
-1.408359276340555e-06
-1.401561279391394e-06
-1.40966832553969e-06
-1.343811017082631e-06
-1.292604172091911e-06
-1.251784086874175e-06
-1.183198502522093e-06
-1.194717482284984e-06
-1.183744507509241e-06
-1.187518776020902e-06
-1.287405934484443e-06
-1.210704045428302e-06
-1.100608204477727e-06
-1.062524729785599e-06
-9.750351520966041e-07
-9.305810920796592e-07
-9.683771336453001e-07
-1.04892942507884e-06
-1.151787305290247e-06
-1.229131248924863e-06
-1.259238010161713e-06
-1.371464096617949e-06
-1.424969553582394e-06
-1.472071084841688e-06
-1.350135081567787e-06
-1.2511491095235e-06
-1.251163294913375e-06
-1.113058995386626e-06
-1.058496363850298e-06
-1.072226572657788e-06
-1.156334055702642e-06
-1.215534717769575e-06
-1.172756209258516e-06
-1.080890264873456e-06
-9.517351082135281e-07
-8.143108351880398e-07
-7.391770231934625e-07
-8.421713670287363e-07
-9.152718565805088e-07
-1.014941818846338e-06
-1.074329713955287e-06
-1.079628834858873e-06
-1.142179953556076e-06
-1.160288531685422e-06
-1.162961255647723e-06
-1.230109440888882e-06
-1.250888901330459e-06
-1.269986780425865e-06
-1.308591563756975e-06
-1.295014215819491e-06
-1.253379997083964e-06
-1.235930240547497e-06
-1.282715594272416e-06
-1.346643408997695e-06
-1.345371200369791e-06
-1.373253482744618e-06
-1.409681169809226e-06
-1.359036040010779e-06
-1.340448013859949e-06
-1.297371421325539e-06
-1.287828456268126e-06
-1.312302428395775e-06
-1.250053069706283e-06
-1.216434361637905e-06
-1.25051448139671e-06
-1.333960516690712e-06
-1.387723330027841e-06
-1.387158256619609e-06
-1.397600083218624e-06
-1.347964935931414e-06
-1.296483954924174e-06
-1.263781324841965e-06
-1.209922289985407e-06
-1.212226401109179e-06
-1.204481732639629e-06
-1.196218348181676e-06
-1.266034905062352e-06
-1.205185207259196e-06
-1.108668430675966e-06
-1.07472230661302e-06
-1.00527569703365e-06
-9.689088783139352e-07
-1.001304690289242e-06
-1.068014685275377e-06
-1.154748273198948e-06
-1.226798750199142e-06
-1.254511017201568e-06
-1.351193580082428e-06
-1.391864006175838e-06
-1.427250657000528e-06
-1.329827135405357e-06
-1.236978896596901e-06
-1.2284732767775e-06
-1.117127590266766e-06
-1.070596844823633e-06
-1.077892361244912e-06
-1.137844552623676e-06
-1.187316521943165e-06
-1.1512615263709e-06
-1.070033956853796e-06
-9.551942590513279e-07
-8.449427045054574e-07
-7.868144626316345e-07
-8.656767029532399e-07
-9.287070122624299e-07
-1.011461383884736e-06
-1.067808928844066e-06
-1.078656390018852e-06
-1.132188372834678e-06
-1.153417151375176e-06
-1.159667108069893e-06
-1.217934976164492e-06
-1.243125576071879e-06
-1.263537717057919e-06
-1.296287406520542e-06
-1.289367303746252e-06
-1.256586733501932e-06
-1.243907681523369e-06
-1.282034989530783e-06
-1.341935680702393e-06
-1.353687974507005e-06
-1.376019960861437e-06
-1.406365154484795e-06
-1.365475835511331e-06
-1.348552009170308e-06
-1.312424550449344e-06
-1.296390052750604e-06
-1.30577688737131e-06
-1.249628388720692e-06
-1.221266738647833e-06
-1.246235212918324e-06
-1.31452080514617e-06
-1.368714362823263e-06
-1.374822822838989e-06
-1.386029390967522e-06
-1.34920292370768e-06
-1.300952928740564e-06
-1.275294764943035e-06
-1.234155679669928e-06
-1.230193803184107e-06
-1.222540543764929e-06
-1.205485149203424e-06
-1.251303867906827e-06
-1.201539501516049e-06
-1.117127927581182e-06
-1.086653533168921e-06
-1.031981105081907e-06
-1.003098360413751e-06
-1.031027727287658e-06
-1.086270898244235e-06
-1.158921818812519e-06
-1.224372225952197e-06
-1.249195067053199e-06
-1.331514216082962e-06
-1.362342979305954e-06
-1.388060686802893e-06
-1.309543727087284e-06
-1.223295485490706e-06
-1.207608216639038e-06
-1.116749634489183e-06
-1.076594283071062e-06
-1.080948531907027e-06
-1.123712074509744e-06
-1.164295046507405e-06
-1.13278267077019e-06
-1.061294991047532e-06
-9.613445186868187e-07
-8.716709443525651e-07
-8.269366722665152e-07
-8.871641101255834e-07
-9.413027475612935e-07
-1.010135076337805e-06
-1.06245725132602e-06
-1.077080562821549e-06
-1.123151814317493e-06
-1.146235039071105e-06
-1.155814126950478e-06
-1.206787481308058e-06
-1.234815000565525e-06
-1.257400296922303e-06
-1.285463889868436e-06
-1.284107423315362e-06
-1.258922647349825e-06
-1.249816438054689e-06
-1.282179982791831e-06
-1.338180906975518e-06
-1.360373937452979e-06
-1.37957999664519e-06
-1.404128572287688e-06
-1.371205624459814e-06
-1.35630147001926e-06
-1.325858361103748e-06
-1.305032883664533e-06
-1.302240840584892e-06
-1.249289574212767e-06
-1.223641205444234e-06
-1.2417028505037e-06
-1.297787488025442e-06
-1.351504474269806e-06
-1.363789852762039e-06
-1.374844449127355e-06
-1.34784389091097e-06
-1.30516360659937e-06
-1.286620894966672e-06
-1.256453377095704e-06
-1.24831733429859e-06
-1.238901195670545e-06
-1.215223736313596e-06
-1.241680859535137e-06
-1.199357283289979e-06
-1.125745624771345e-06
-1.098312246404347e-06
-1.05562895485188e-06
-1.033572560492351e-06
-1.057979621113917e-06
-1.103592376194868e-06
-1.164007432755728e-06
-1.222025623414918e-06
-1.243496001774013e-06
-1.312517691637265e-06
-1.335917460668947e-06
-1.353771006647221e-06
-1.28966342908295e-06
-1.209859744987845e-06
-1.187904315221884e-06
-1.11288648027391e-06
-1.078165034499159e-06
-1.081850876105689e-06
-1.112781048492455e-06
-1.14551720380273e-06
-1.117227371194107e-06
-1.054377858184337e-06
-9.690939466197029e-07
-8.953369499683409e-07
-8.608397898727902e-07
-9.066462472985815e-07
-9.529934247257466e-07
-1.010252440373128e-06
-1.058248059741365e-06
-1.075106677047598e-06
-1.114889513001244e-06
-1.139036633107644e-06
-1.151587460432273e-06
-1.196669432266136e-06
-1.226132460831833e-06
-1.251330421507441e-06
-1.276003222790499e-06
-1.279070798314474e-06
-1.260422298465315e-06
-1.254212108125013e-06
-1.283069206443732e-06
-1.335639396608244e-06
-1.365817266001741e-06
-1.383262091000603e-06
-1.402435550590277e-06
-1.376131721434244e-06
-1.363888073314987e-06
-1.338189495288326e-06
-1.313854440385588e-06
-1.300922360685455e-06
-1.249042964267998e-06
-1.224464162300249e-06
-1.237082420465858e-06
-1.283640388484647e-06
-1.336214451632504e-06
-1.353342516976861e-06
-1.363684752114342e-06
-1.344206247311616e-06
-1.308644107220238e-06
-1.297923754272636e-06
-1.277244200649343e-06
-1.266356697793448e-06
-1.254165380281038e-06
-1.225360717233324e-06
-1.236003141445159e-06
-1.198375901081413e-06
-1.134408441670275e-06
-1.109723703275174e-06
-1.07667924246745e-06
-1.060742999420258e-06
-1.082545217182155e-06
-1.119906866728968e-06
-1.169769078973676e-06
-1.219853176853089e-06
-1.237612967898314e-06
-1.294265552133993e-06
-1.312087496094742e-06
-1.323673721381979e-06
-1.270434320434437e-06
-1.196548997428984e-06
-1.168981963615876e-06
-1.106288401862334e-06
-1.076525101307561e-06
-1.081065071666381e-06
-1.104211803974321e-06
-1.13014456308574e-06
-1.104266557246436e-06
-1.049060393424667e-06
-9.777151234002403e-07
-9.166258100845831e-07
-8.89619149420974e-07
-9.2416177499547e-07
-9.637159525217518e-07
-1.011233554801226e-06
-1.055033245894929e-06
-1.072854094267289e-06
-1.107311414882273e-06
-1.132162027672695e-06
-1.14723511859278e-06
-1.187510010388962e-06
-1.217278112586814e-06
-1.245196176739832e-06
-1.267669213041301e-06
-1.27419022135278e-06
-1.261185706585472e-06
-1.257527738595569e-06
-1.284600274410931e-06
-1.33443634208231e-06
-1.370442104603167e-06
-1.386609809967413e-06
-1.400842535419096e-06
-1.380236966240007e-06
-1.371446352101925e-06
-1.349717942274005e-06
-1.322826045982157e-06
-1.301184447875691e-06
-1.248905500636315e-06
-1.224528711562559e-06
-1.232645578245973e-06
-1.27196805312569e-06
-1.322868706628299e-06
-1.342903693168838e-06
-1.352260394596676e-06
-1.338682255810893e-06
-1.31120412061263e-06
-1.309228197181754e-06
-1.296762511486454e-06
-1.284009178883983e-06
-1.268628213806483e-06
-1.235769444763772e-06
-1.233345807747212e-06
-1.198388388355525e-06
-1.143032271140997e-06
-1.120940237540282e-06
-1.095521931920332e-06
-1.08500769907924e-06
-1.105014510536251e-06
-1.135145971461486e-06
-1.176009220820153e-06
-1.217937353250372e-06
-1.23167308326207e-06
-1.276858559526411e-06
-1.290435685435947e-06
-1.297166018463767e-06
-1.25205458687707e-06
-1.183315346955415e-06
-1.150685674329378e-06
-1.09765648026183e-06
-1.072707098806178e-06
-1.079092617677412e-06
-1.097352383016313e-06
-1.11741309694155e-06
-1.09345967744096e-06
-1.045151226027693e-06
-9.867952261176443e-07
-9.360319568958117e-07
-9.141712711929608e-07
-9.398098097184996e-07
-9.734588772980898e-07
-1.012625066241816e-06
-1.052650079655561e-06
-1.070366461347907e-06
-1.100347026807899e-06
-1.125907247225193e-06
-1.143000193812211e-06
-1.179174971440876e-06
-1.208390753012725e-06
-1.238945282279197e-06
-1.26017862794365e-06
-1.269410096885181e-06
-1.261310925218929e-06
-1.260133574243121e-06
-1.286751098710194e-06
-1.334621858701208e-06