/*--------------------------------*- C++ -*----------------------------------*\
| =========                 |                                                 |
| \\      /  F ield         | OpenFOAM: The Open Source CFD Toolbox           |
|  \\    /   O peration     | Version:  v1812                                 |
|   \\  /    A nd           | Web:      www.OpenFOAM.com                      |
|    \\/     M anipulation  |                                                 |
\*---------------------------------------------------------------------------*/
FoamFile
{
    version     2.0;
    format      ascii;
    class       surfaceScalarField;
    location    "10000";
    object      phi;
}
// * * * * * * * * * * * * * * * * * * * * * * * * * * * * * * * * * * * * * //

dimensions      [0 3 -1 0 0 0 0];
oriented        oriented;


internalField   nonuniform List<scalar> 
5567
(
8.304994517384934e-05
-1.37321059833159e-08
8.302911765920751e-05
1.821896893924048e-08
8.300659083450376e-05
1.997068367405632e-08
8.300410806424602e-05
2.558179776501207e-09
8.30233858290937e-05
-1.846393445261931e-08
8.304595616993197e-05
-1.962622002280369e-08
8.304905178633479e-05
-1.325711953702511e-09
8.304888079461051e-05
3.885525373428863e-10
8.304984466483876e-05
-8.599195433247655e-10
8.304971618456582e-05
3.69702013524912e-10
8.304870823439761e-05
1.274377077044936e-09
8.304876226460728e-05
-2.986607216241112e-10
8.304912746664093e-05
-6.094012853524708e-10
8.304823727121753e-05
9.188802730282038e-10
8.304810336121615e-05
1.956481960132149e-10
8.304944114719356e-05
-1.33843721133331e-09
8.304946301945742e-05
2.395006870762853e-11
8.304938551645746e-05
3.544508525201596e-10
8.30498492235341e-05
-1.722553845638624e-10
8.305007447498233e-05
-5.528870802782672e-10
8.30496939734289e-05
3.171193239687906e-10
8.304850753141321e-05
1.196570283693355e-09
8.304909864764742e-05
-6.089092573610301e-10
8.305047185363631e-05
-1.391218027865184e-09
8.305058599120399e-05
-1.266673754128433e-10
8.304909471187636e-05
1.475769455296605e-09
8.304841005936272e-05
6.75120834251693e-10
8.304959661074174e-05
-1.215188802415371e-09
8.304978148714888e-05
-2.056097762519006e-10
8.304898461836549e-05
6.686276916504376e-10
8.304821659227788e-05
7.013976420352692e-10
8.304794540806852e-05
3.776279882329884e-10
8.304891676008556e-05
-6.393744326770858e-10
8.304975762476034e-05
-8.135377755308915e-10
8.304974026075827e-05
2.575383641180152e-10
8.30506517247048e-05
-1.22091273327709e-09
8.30510236272464e-05
-5.439951525488947e-10
8.305003142474297e-05
9.522815855026411e-10
8.305066029125563e-05
-7.027788249513214e-10
8.305036302530483e-05
3.398936356318493e-10
8.304711353594455e-05
3.709782505687516e-09
8.302566447500413e-05
1.91943478315805e-08
8.300533835638474e-05
1.785361538860576e-08
8.302184394255506e-05
-1.491599159560554e-08
8.302508229560974e-05
-2.946579344437233e-09
8.30262977660134e-05
-1.187128460926307e-09
8.30255596534905e-05
9.049033411164815e-10
8.300674070331339e-05
1.720698174636159e-08
8.300308439350304e-05
2.603912641808834e-09
8.300215840741586e-05
7.701955902988549e-10
8.300152133090134e-05
3.168410234288861e-10
8.300134346480319e-05
5.801078673477874e-10
8.299999811302338e-05
1.057719413485899e-09
8.299974537433258e-05
1.536401441310449e-09
8.302081968709385e-05
-1.980390383286676e-08
8.304496122545756e-05
-2.233822394679023e-08
8.304779820406638e-05
-1.265384566236033e-09
8.304769924378706e-05
-9.120010313073044e-11
8.304916810291955e-05
-1.454241907663754e-09
8.304928462754908e-05
1.860008781318026e-10
8.304810218480908e-05
1.393882469892836e-09
8.304779861477477e-05
2.580573788918604e-10
8.304938376307175e-05
-1.351245475240238e-09
8.304975047251254e-05
-6.726027043790823e-10
8.304952795778965e-05
4.651819283332732e-10
-1.538491759868504e-09
0.0002454989719098983
-1.404190242662912e-08
0.0002454694885497105
4.025764916386656e-08
0.0002454332256867859
4.678453794587989e-08
0.0002454226533999328
1.075052874994408e-08
0.0002454516186042311
-4.154125701449552e-08
0.0002454880296984904
-4.583514754362255e-08
0.0002454931292579724
-2.531098043275912e-09
0.0002454929350514003
7.38412664746382e-10
0.0002454941252917276
-2.532678081797825e-09
0.0002454931330578309
2.124486437254144e-09
0.0002454923693197955
3.464284671659091e-09
0.0002454929119082939
-1.47292832785294e-09
0.0002454906808011054
5.2476852183917e-10
0.0002454874673963471
4.434232587816086e-09
0.0002454892807318243
-1.582992286861663e-09
0.0002454941964412602
-6.351568869890542e-09
0.0002454935989730411
1.120290721772929e-09
0.0002454933516273285
1.745585035878707e-09
0.0002454952934453182
-1.30555930821799e-09
0.0002454964882809883
-2.272733005958672e-09
0.0002454953381423499
5.413099261003914e-10
0.0002454916700823692
4.367357466922242e-09
0.0002454933437173288
-1.834862564743273e-09
0.0002454955500033038
-3.335784635099138e-09
0.0002454951700335576
5.753794803343128e-10
0.0002454930794815767
3.868126660232185e-09
0.0002454922560814372
1.24498429315773e-09
0.0002454943101653687
-3.934056108524863e-09
0.0002454930382269042
5.856190320842825e-10
0.000245489583841725
3.732074597163129e-09
0.0002454878806447701
2.040943647515302e-09
0.0002454897626820693
-9.797491830444739e-10
0.0002454923412985044
-2.730861525360676e-09
0.0002454935524736383
-1.92532191448426e-09
0.0002454950081983162
-7.376093131415821e-10
0.000245497178139456
-4.309868629678802e-09
0.0002454968891778053
-6.003340974963542e-10
0.0002454944630791094
3.196510660813058e-09
0.0002454969613370091
-3.248462378926748e-09
0.0002454950398493163
3.076046064585515e-09
0.0002454886778769465
1.074281424196841e-08
0.0002454613076312945
3.891683193916558e-08
0.0002454274218461342
4.162734983271722e-08
0.0002454503704906123
-3.373719567260477e-08
0.000245461159610631
-1.188844392958837e-08
0.0002454640213352161
-3.555216348308641e-09
0.0002454641633899125
9.551655897312057e-10
0.0002454330651622102
4.134344357946647e-08
0.0002454238616101541
9.35919629331328e-09
0.0002454212476962025
2.51604567579697e-09
0.0002454187076053145
1.830924362996873e-09
0.0002454180352530309
1.730852761884669e-09
0.0002454135176700654
5.420994625647328e-09
0.0002454105268565488
6.049117892413651e-09
0.0002454453898048827
-4.748912063876745e-08
0.0002454855401725631
-5.330505781360296e-08
0.0002454900613050907
-2.152655815837311e-09
0.0002454914808904042
-1.513650083331692e-09
0.000245493863581129
-4.391900881432489e-09
0.0002454922713027279
2.337890379595042e-09
0.0002454889721251344
5.566063382297893e-09
0.0002454884879610232
7.060737045249155e-10
0.0002454929092397929
-5.79358821004544e-09
0.0002454959158493722
-3.450967595896605e-09
0.0002454971382103281
1.175791724930249e-10
-5.231372608367445e-09
0.0004056987592234168
-1.197719452621765e-08
0.0004056928785081286
4.65049659798981e-08
0.0004056835810771821
5.652133675541378e-08
0.0004056745247161548
2.094433750037134e-08
0.0004056781179103578
-4.640240495818023e-08
0.0004056874161306893
-5.622757973338521e-08
0.000405690785650219
-5.182415675628898e-09
0.0004056898008103028
1.907625254660239e-09
0.000405689872916124
-2.354765914846327e-09
0.00040569015881058
1.873146132533614e-09
0.000405690398463533
3.146785582715424e-09
0.0004056902168490319
-1.435877349751203e-09
0.0004056864462240438
4.343494329951485e-09
0.0004056828622967597
7.96813488423274e-09
0.0004056861672610909
-4.839178690665181e-09
0.0004056934961511277
-1.364011261357868e-08
0.0004056933712962665
1.179120882104863e-09
0.000405692847150526
2.20818849246984e-09
0.0004056952581889279
-3.656534629469219e-09
0.0004056954103225881
-2.684678469588147e-09
0.0004056930450636991
3.176015432531573e-09
0.0004056899490644535
7.650041532395428e-09
0.000405691708680984
-3.754910013092906e-09
0.0004056922093201299
-3.947768762091356e-09
0.0004056910260105886
1.646426479878438e-09
0.000405689514194108
5.274774203966243e-09
0.0004056892929914262
1.497295379357231e-09
0.0004056916916526879
-6.197538145551149e-09
0.000405690383691903
2.045084125934125e-09
0.0004056856559145704
8.4452648198728e-09
0.0004056832815786829
4.465199738831114e-09
0.0004056860069211188
-3.768108294050595e-09
0.0004056883295169241
-4.794055780784448e-09
0.0004056902637610022
-3.877414223323502e-09
0.0004056934699384997
-3.75908994912194e-09
0.0004056934260871634
-4.346024534292727e-09
0.0004056916927503627
1.092931769422269e-09
0.0004056907027513031
4.201846952369572e-09
0.0004056943639677902
-6.967376388862354e-09
0.0004056918938488788
5.333364166551453e-09
0.0004056847160789299
1.840510758335427e-08
0.0004056834006769414
4.052460614872604e-08
0.0004056769232463538
4.882840206507674e-08
0.0004056776314026513
-3.403284593808083e-08
0.0004056861757647319
-2.078237772924503e-08
0.0004056890667849177
-6.558242482701201e-09
0.0004056897363672718
5.182637399037748e-10
0.0004056829364707165
4.886311232441868e-08
0.0004056756581421341
1.627010985066294e-08
0.0004056725465017218
5.810127581872547e-09
0.0004056702397382409
4.059819829996483e-09
0.000405668824592711
3.614615447552978e-09
0.0004056624469815254
1.13892424153658e-08
0.000405660259847231
9.179853403579146e-09
0.0004056715309944772
-6.017839303920116e-08
0.0004056844539528957
-6.759807713207966e-08
0.0004056875234591269
-4.642830560888663e-09
0.0004056899051851402
-4.198433804565139e-09
0.0004056915547874219
-5.802086962519329e-09
0.0004056890724417966
4.964392982034061e-09
0.0004056858636661075
8.737972282600338e-09
0.0004056861663530735
2.646823906441508e-10
0.0004056914853076232
-1.081152600045176e-08
0.0004056953149714084
-7.766204866436444e-09
0.0004056977753965115
-2.227348382827645e-09
-8.336940735679562e-09
0.0005865302052446749
-1.03261507465133e-08
0.0005865417641766207
3.339743605578924e-08
0.0005865582592312135
3.793456230780479e-08
0.000586558692873704
2.042600294319843e-08
0.0005865413414542444
-2.824386705144104e-08
0.0005865241360340455
-3.703869698014884e-08
0.0005865238643189594
-3.236978011899305e-09
0.0005865230684432218
2.956420194552415e-09
0.0005865225970155433
-1.942441850305371e-09
0.0005865236182299419
1.062546123119497e-09
0.0005865241472296346
3.15849625889481e-09
0.0005865236077504583
-1.09213074430887e-09
0.0005865217552107918
5.678164962096977e-09
0.0005865199084579845
9.837982668641022e-09
0.0005865213920047115
-6.129359157152947e-09
0.0005865259269517657
-1.814972325373782e-08
0.0005865263118618654
8.638109136890149e-10
0.0005865255396442163
3.351558977730189e-09
0.0005865275327605207
-5.144578724950631e-09
0.0005865261360874924
-1.482260806814175e-09
0.0005865236053496915
5.347461325673366e-09
0.0005865233191358299
7.686326346787251e-09
0.0005865236959803476
-4.089754894749979e-09
0.0005865239294385817
-4.199152953381617e-09
0.0005865226126388647
3.006830854188816e-09
0.0005865200974850223
7.87918044421891e-09
0.0005865202831167948
1.267050978461494e-09
0.0005865225584779744
-8.539516302782945e-09
0.0005865237742357614
8.37084979736282e-10
0.0005865224406654009
9.633075816219381e-09
0.0005865203825703184
6.387145853047001e-09
0.0005865204244938425
-3.694047450986008e-09
0.0005865213051668969
-5.388191578220513e-09
0.0005865226784054194
-5.181994841201178e-09
0.0005865248316690354
-5.627786634727872e-09
0.000586523273222801
-3.396946919021417e-09
0.000586521635693887
2.405171303832184e-09
0.0005865227120384687
3.079867925806003e-09
0.0005865251194132373
-9.51565425704787e-09
0.0005865235292135752
6.977796820414869e-09
0.000586519009372371
2.330699029869624e-08
0.0005865349015409233
2.287916188938302e-08
0.0005865546258259424
2.677743515203687e-08
0.0005865410609856564
-1.973753592659553e-08
0.0005865404297631947
-1.993304931775618e-08
0.0005865415330207088
-7.562355407943162e-09
0.0005865418521519789
2.769903422368326e-10
0.0005865578214256438
3.152347469302285e-08
0.0005865577545721908
1.534329145204041e-08
0.0005865564114213206
6.947367393126423e-09
0.0005865557772294777
4.298131426814303e-09
0.0005865547715543471
4.879257923443344e-09
0.000586551476802131
1.432313022839806e-08
0.0005865521140683783
9.80901722936709e-09
0.0005865387039748052
-4.529226576096412e-08
0.0005865218916030069
-4.878763329807241e-08
0.0005865218695199954
-3.076059191780567e-09
0.0005865237522541821
-6.329194614513684e-09
0.0005865239641316607
-6.225400554540044e-09
0.0005865225609737254
6.627548257379615e-09
0.0005865212601351327
1.051910948274469e-08
0.0005865221439009151
-3.707752191517565e-10
0.0005865252244433314
-1.359372960345491e-08
0.0005865266101667951
-9.490623527639748e-09
0.0005865285030897283
-3.884347014122643e-09
-1.285035479570535e-08
0.0009311694837901569
-1.037829551889992e-08
0.000931183119040395
2.060295152230801e-08
0.0009312033665613428
1.854463361739578e-08
0.000931208561881716
1.624074590920501e-08
0.0009311902307344493
-1.103112731680367e-08
0.0009311689162011225
-1.725349282195427e-08
0.0009311662198864441
-2.730667009010958e-10
0.0009311668708961305
2.451760563836401e-09
0.0009311675452383297
-2.426036921508324e-09
0.0009311666046540615
2.008813119318672e-09
0.0009311657935203216
3.896049781573523e-09
0.0009311663841836281
-1.779510356241191e-09
0.0009311680230568349
4.103006367145047e-09
0.0009311690065985733
8.802996473738179e-09
0.0009311675154965741
-4.591579672659582e-09
0.0009311656311960197
-1.622544917232369e-08
0.0009311652635993711
1.178515762539295e-09
0.000931164169378137
4.36654209285158e-09
0.000931165283905964
-6.208540069911384e-09
0.0009311644074988093
-7.822121437684522e-10
0.0009311633659725277
6.600219515970961e-09
0.0009311658817168123
5.291742482419775e-09
0.0009311648787863783
-3.214436925428076e-09
0.0009311648372922456
-4.249879717191418e-09
0.0009311646846358252
3.069946702194821e-09
0.0009311629596251745
9.526643861378832e-09
0.0009311641357923411
1.097991540900672e-10
0.0009311649372192533
-9.222364691965793e-09
0.0009311662042488807
-2.967934335164316e-10
0.000931168281172114
7.548430617350574e-09
0.0009311686088165301
6.120184948659725e-09
0.0009311663724442131
-1.53369966703971e-09
0.0009311658612336303
-4.685470162859153e-09
0.0009311657491779569
-5.094748603071937e-09
0.0009311647979449608
-4.54345418834148e-09
0.0009311647483473173
-3.413827720838013e-09
0.0009311649786444869
2.154912281256941e-09
0.0009311646882706089
3.375848929813533e-09
0.0009311639149036511
-8.777216034028026e-09
0.0009311648926485683
5.797343429056343e-09
0.0009311656749498105
2.282392676069304e-08
0.0009311814325847328
7.681452164017565e-09
0.000931203435569781
5.755267467555593e-09
0.0009311911140888359
-7.337847861296095e-09
0.0009311862668054948
-1.545873001248876e-08
0.0009311859016847649
-7.27123348206756e-09
0.0009311856887780588
6.04642970103841e-10
0.0009312034203558942
1.463682530777847e-08
0.0009312066393313021
1.19604494001545e-08
0.0009312072484628647
6.530430767013948e-09
0.0009312068413967695
4.639681483351241e-09
0.000931206338572794
5.753828954504133e-09
0.0009312090688244691
1.124229046777001e-08
0.0009312118924945835
7.679129541653269e-09
0.0009311929123826287
-2.761815704477238e-08
0.0009311680640564077
-2.530049930317334e-08
0.0009311654003721499
-1.611173140909853e-10
0.0009311663156433313
-7.512860582195991e-09
0.000931165710247633
-5.416620013323568e-09
0.0009311673521390727
5.051093877581643e-09
0.0009311682977833537
9.564614115794997e-09
0.0009311686174898072
-7.799065721298369e-10
0.0009311674099553703
-1.211860496291614e-08
0.0009311648119303825
-7.309455285427325e-09
0.0009311652282176847
-4.222899825754017e-09
-1.719683859017279e-08
0.001748307561484887
-1.203791141216377e-08
0.001748316037882382
1.292753389098152e-08
0.001748327839588755
7.605720604865363e-09
0.001748333721711915
1.111167123911904e-08
0.00174832416375852
-2.463886511730896e-09
0.001748312141986027
-6.507536590910058e-09
0.001748309720457179
2.304515412479014e-09
0.001748310416203578
1.934902683400144e-09
0.001748311017318068
-2.831592013391463e-09
0.001748309073972248
3.928900162310698e-09
0.001748307882175318
5.002310076933822e-09
0.001748309063155355
-2.989578482942498e-09
0.001748312214244629
1.012472630567045e-09
0.001748315275701996
5.676690270680465e-09
0.001748314415959101
-3.665764437641982e-09
0.001748307955694638
-9.71611605485096e-09
0.001748306138399264
2.927175842492194e-09
0.001748306264214189
4.148327615543019e-09
0.001748306063128046
-5.940360180867535e-09
0.001748305363882976
-1.797922895191052e-10
0.00174830541764511
6.709246008823898e-09
0.001748309734163962
1.027257419336341e-09
0.001748308989941511
-2.59219777368806e-09
0.001748307988830923
-3.351368048399592e-09
0.001748309186137515
1.785624988115132e-09
0.001748309727616689
8.926524906108942e-09
0.00174831254745469
-2.666738919323309e-09
0.001748312182568425
-8.6949426567671e-09
0.001748310723682417
1.310515636248928e-09
0.001748312227963659
6.04479995081665e-09
0.001748313940279879
4.451218528836522e-09
0.001748312747264104
-4.099147803521143e-10
0.001748312390588581
-4.175197372163503e-09
0.001748310795309912
-3.554026204118217e-09
0.001748307111464903
-7.651345971178865e-10
0.001748308320426528
-4.719118588257359e-09
0.001748310914084193
-5.139616706709084e-10
0.001748309298502163
4.951809534783197e-09
0.001748305368112015
-4.923314589989029e-09
0.00174830706781968
3.87005027011176e-09
0.001748312615936445
1.750384739862945e-08
0.001748321204918685
-3.621208914266705e-10
0.001748332333772744
-4.6228357310814e-09
0.001748327183424173
-2.2523015850511e-09
0.001748322155666916
-1.08283680662435e-08
0.001748320979330164
-6.184252595272614e-09
0.001748320228308312
1.461370899636806e-09
0.001748328982956551
6.560349185199188e-09
0.001748332566299049
8.24809438425969e-09
0.001748333008555914
6.234470911618665e-09
0.001748331941742396
5.628107819062285e-09
0.001748332695720713
5.284302386899386e-09
0.001748337954939573
5.699346238819025e-09
0.001748342079299807
4.092652228035818e-09
0.001748331230950708
-1.778112616767496e-08
0.001748313892770137
-8.957099299421429e-09
0.001748310088842346
3.874330871497081e-09
0.001748310904247707
-8.498000565390629e-09
0.001748309481014311
-3.823228220560317e-09
0.001748311889285094
2.687651246499564e-09
0.001748314734666045
6.762609392101332e-09
0.001748315298132013
-1.325343387951018e-09
0.001748311986627197
-8.529377362636216e-09
0.001748306766755479
-2.481356717946102e-09
0.001748304945713934
-2.386027430725273e-09
-1.826921787858115e-08
0.003115528287431721
-1.214630162264052e-08
0.003115532273453297
9.792350255283898e-09
0.003115535949586733
4.872335469282672e-09
0.003115540065704878
7.710241949035598e-09
0.003115536752054665
-6.185704884737792e-11
0.003115533144049565
-4.185594099349161e-09
0.003115532921503406
2.467340897693464e-09
0.003115533037526416
1.936017622883078e-09
0.003115532422042377
-2.040042742057992e-09
0.003115531346488829
4.994875299448688e-09
0.003115532216318695
4.02835578887981e-09
0.003115532782110906
-3.598981186674435e-09
0.003115533814431386
8.618618605505104e-11
0.003115535510976435
3.935581206223631e-09
0.00311553542948356
-3.55758400001791e-09
0.003115530957391179
-5.209122644529371e-09
0.003115529991343293
3.843854899762282e-09
0.003115532299422053
1.736082122173066e-09
0.003115532037796639
-5.672422935006408e-09
0.003115530911636053
8.402956098058512e-10
0.003115531156311527
6.661266654440647e-09
0.003115533687875643
-1.418009853367707e-09
0.003115533591289491
-2.59973924597795e-09
0.003115533265046158
-3.115448578291188e-09
0.003115534571608886
3.968992743385904e-10
0.003115535231906801
8.203336680323233e-09
0.003115537384103911
-4.787028378022361e-09
0.003115537104430513
-8.280307893260747e-09
0.003115535320135277
3.217899648725706e-09
0.003115535282061505
6.092410643302142e-09
0.003115535459770844
4.334392311226618e-09
0.003115535699955401
-7.14923711971675e-10
0.003115536122528245
-4.461720823805923e-09
0.003115534638932365
-2.130723301468716e-09
0.003115532363454051
1.583743326088373e-09
0.003115532181928115
-4.565758214033579e-09
0.003115534456901093
-2.797769469119047e-09
0.003115534648965245
4.724066118059571e-09
0.003115531337664532
-1.662485160031746e-09
0.003115531194379718
3.817315312471516e-09
0.003115535827086211
1.307878916520096e-08
0.003115538725025167
-2.705322905342655e-09
0.003115541303076866
-6.416474558938443e-09
0.003115541155871965
-2.075971825575515e-09
0.003115537775409601
-7.810109055653082e-09
0.00311553659555473
-5.080802668551441e-09
0.003115536052099296
2.108135928474428e-09
0.003115537835104573
5.430857782676174e-09
0.00311553987106226
6.176852215545303e-09
0.0031155391554089
7.118688722927475e-09
0.003115538760031714
5.968430929871292e-09
0.003115540584014446
3.7593834245488e-09
0.003115543044455395
2.999330699046508e-09
0.003115545740750916
1.780187743463634e-09
0.003115541882592119
-1.496923355280642e-08
0.003115535806249306
-3.923002970819396e-09
0.00311553402995305
5.712124802279136e-09
0.003115534114180455
-8.740385949245551e-09
0.003115533516268944
-3.024780490706063e-09
0.003115534476025882
1.752177305847316e-09
0.003115536324546075
4.908874069277317e-09
0.003115536666593729
-1.723644431540981e-09
0.003115534823889449
-6.473467682660152e-09
0.003115531888494467
1.122979123910356e-10
0.003115530921689199
-1.385206775603911e-09
-1.553522348275738e-08
0.004497721993324801
-1.090612063612969e-08
0.004497724713983635
7.950583511726689e-09
0.00449772588078223
4.675326233316719e-09
0.004497728500598778
5.737262588946278e-09
0.004497726538885611
1.006915825916513e-09
0.004497724899274651
-3.791614842314648e-09
0.004497725454115562
1.753784134820154e-09
0.004497725333240262
2.156456446801542e-09
0.004497724944704923
-1.472389711724897e-09
0.004497725014992511
4.927642686572352e-09
0.004497726275218307
2.659395694706864e-09
0.004497725713540132
-3.072881949569083e-09
0.00449772580985072
1.248748630586166e-10
0.004497726869261562
2.834169306457818e-09
0.004497725527150852
-2.21094686457734e-09
0.004497723727487695
-3.376765499009849e-09
0.004497724685371267
2.853044992975387e-09
0.004497726438373211
-1.303139909559727e-10
0.004497726065508257
-5.324465132810737e-09
0.004497725955564067
8.49058413079809e-10
0.004497727052422146
5.783447575590619e-09
0.004497727530632604
-1.804092203048396e-09
0.004497727134688326
-2.297624909482885e-09
0.004497726714952438
-2.78493396205832e-09
0.004497727691256222
-6.598775904970609e-10
0.004497729001277204
6.82757217111159e-09
0.004497729196703729
-4.958680649312706e-09
0.004497728028172617
-6.985494500471476e-09
0.00449772758188522
3.782832000411667e-09
0.004497727871270972
5.824203078461398e-09
0.004497727636518821
4.635947172802383e-09
0.004497727206425522
-3.494594636992719e-10
0.004497726564742672
-3.688700157956071e-09
0.004497726103669118
-1.748549648408239e-09
0.004497726428512582
1.321642075221547e-09
0.004497725484991708
-3.624912365539666e-09
0.00449772613345245
-3.436390858424498e-09
0.00449772697150338
3.832201384393526e-09
0.004497725346965889
-9.27692901056221e-11
0.004497725697516358
3.27324525498981e-09
0.004497728659074282
1.031561117807475e-08
0.004497728568148154
-2.073678856030791e-09
0.004497728504928103
-5.637134166572881e-09
0.004497729189833873
-2.709623594590234e-09
0.004497727079435652
-6.064678567363666e-09
0.004497726239628372
-4.318173364459928e-09
0.004497726315492364
2.140912108245532e-09
0.004497727070225438
5.274909051877449e-09
0.004497727753639921
5.481726368376773e-09
0.004497727521246902
7.520174472271291e-09
0.00449772810417118
5.330427310103067e-09
0.004497729282603117
2.898053909551506e-09
0.004497729906083876
2.150449735620755e-09
0.004497730961142673
1.005919695208963e-09
0.004497727100349068
-1.214599075769961e-08
0.004497725459370792
-3.256930449734643e-09
0.004497726453725769
4.748912635785507e-09
0.004497725134905857
-7.528010523825162e-09
0.004497725234047968
-2.891989916542701e-09
0.004497726601442376
3.950737302423402e-10
0.004497727752155841
3.732568079054103e-09
0.004497727330450734
-1.386257709513759e-09
0.004497726111618338
-5.056872157761389e-09
0.004497725366636146
5.324777435735242e-10
0.004497726245757143
-2.21385318014793e-09
-1.244140169578123e-08
0.005383591814829392
-9.19967139232129e-09
0.005383594255568833
6.302402565671925e-09
0.005383595299061735
4.493278718679326e-09
0.00538359719985741
4.391516234859906e-09
0.005383595828597971
1.620540855488992e-09
0.005383594294866679
-3.311404394866272e-09
0.0053835947109273
1.135288270377886e-09
0.005383594662180081
2.265618693291175e-09
0.005383594292225327
-9.524685305107865e-10
0.005383595033562717
4.206671156450873e-09
0.005383595984241544
1.635636151517173e-09
0.005383594920833005
-2.0455146591889e-09
0.005383594778667719
3.882192631901046e-10
0.005383595771589174
1.80434864075431e-09
0.005383594860338323
-1.301197760780397e-09
0.005383594074594349
-2.564815792148108e-09
0.005383595487808546
1.423855694802503e-09
0.005383596324546869
-1.060660347595676e-09
0.005383595685700685
-4.70289988599502e-09
0.005383596040044105
3.928179337284525e-10
0.005383597355403493
4.666093403254871e-09
0.005383597157544722
-1.527615679469813e-09
0.00538359658287811
-1.792276732487221e-09
0.005383595958132442
-2.238533830858139e-09
0.005383596418878504
-1.188515996342065e-09
0.005383597982879939
5.203820550392197e-09
0.005383597170861308
-4.138270343046289e-09
0.005383595498270595
-5.214066195648591e-09
0.005383595874364887
3.502898806835668e-09
0.005383596601933075
5.11271799798164e-09
0.005383596745354931
4.558451806789635e-09
0.00538359616399363
1.785241683817333e-10
0.005383595103675761
-2.492213447657226e-09
0.005383594730813933
-1.454448381256607e-09
0.005383595612066951
5.099522206360512e-10
0.005383594792447553
-2.810018186479044e-09
0.005383594681730814
-3.302225191432369e-09
0.005383595619118927
2.841065956649654e-09
0.00538359487200445
6.061676785991874e-10
0.005383595535993206
2.440942862564487e-09
0.005383597898551736
8.13826102052346e-09
0.005383597097522321
-8.648347717747176e-10
0.005383596365578528
-4.377612847569928e-09
0.005383596559144479
-2.795836712069934e-09
0.005383594987177204
-4.804727100592371e-09
0.005383594280800347
-3.661642822352202e-09
0.005383594605967948
1.906705752208362e-09
0.005383595565392562
4.775548860180347e-09
0.005383595992159923
5.0300062029573e-09
0.005383596379392466
7.294034414251762e-09
0.005383597028025299
4.614582138492451e-09
0.005383597721321693
2.530436679532159e-09
0.005383597839320429
1.803802847808224e-09
0.005383598463921387
6.210464402483778e-10
0.005383594694245452
-9.256176475396061e-09
0.005383593857101811
-3.199028421232449e-09
0.005383595550837129
3.089583028814001e-09
0.005383594038124612
-6.111671675496629e-09
0.005383594065047302
-2.697675227790028e-09
0.005383595144161367
-6.834045367598846e-10
0.005383596369842667
2.4874999826431e-09
0.005383595929796811
-1.045737194899028e-09
0.005383595056148415
-4.008602951502254e-09
0.005383595284045292
-5.048966462119554e-12
0.005383596284003378
-3.132384823044558e-09
-9.574096738078477e-09
0.00582833004498074
-7.454179817513253e-09
0.00582833207150352
4.933337566806061e-09
0.00582833315357508
4.110506010326815e-09
0.005828334578502467
3.428839432743094e-09
0.005828333753777171
1.85268300305128e-09
0.005828332383688408
-2.769440980520095e-09
0.005828332557119739
7.594251751045178e-10
0.005828332657655873
2.193051844106897e-09
0.005828332390242138
-5.647291453107504e-10
0.005828333167670815
3.472323534579826e-09
0.00582833378417024
9.888652352140955e-10
0.005828332960740508
-1.257425372757118e-09
0.005828332886672209
5.635303702312735e-10
0.005828333630603695
1.03006911401326e-09
0.005828333306411795
-9.819991391823003e-10
0.005828332981341695
-2.220555218305833e-09
0.005828334122311193
2.894884697730962e-10
0.005828334460138051
-1.45886231940532e-09
0.005828333708644338
-3.953718215349668e-09
0.005828334011040126
-1.110513743943766e-11
0.005828335202890514
3.637993199306851e-09
0.005828334901726634
-1.167508469570072e-09
0.005828334407217357
-1.341006817052695e-09
0.005828333796834203
-1.692622233527259e-09
0.00582833384726191
-1.290125370256794e-09
0.005828335185899553
3.811777926074266e-09
0.005828334230393056
-3.193520655934581e-09
0.005828332668301831
-3.587634330970297e-09
0.005828333177900049
3.062756631668084e-09
0.005828333951486558
4.350816723309077e-09
0.005828334361793638
4.211482152384401e-09
0.005828333999654943
4.987112546696176e-10
0.005828333140748656
-1.495088784246553e-09
0.005828332725144336
-1.111111769756988e-09
0.005828333463170842
-1.598898176033008e-10
0.00582833284011724
-2.205332346302266e-09
0.005828332465674633
-2.900188320145906e-09
0.005828333258275864
1.992669225570896e-09
0.005828332860647175
9.602512044929306e-10
0.005828333344132817
1.813292916942054e-09
0.005828335256145924
6.36795900531239e-09
0.005828334619368999
1.685252280498502e-11
0.005828333837017664
-3.267051007992007e-09
0.005828333688408456
-2.513485196593747e-09
0.005828332409796533
-3.782606705697252e-09
0.005828331744767937
-3.025895565225284e-09
0.005828332023507846
1.676969189573274e-09
0.005828332919254474
4.191326036152345e-09
0.00582833329246485
4.603441956653344e-09
0.005828334007414477
6.718109105339076e-09
0.005828334546940032
3.995521504533991e-09
0.005828335038396807
2.355356307188809e-09
0.005828335066864002
1.553260764211968e-09
0.005828335615786535
2.95504633646647e-10
0.00582833270193421
-7.011805435708417e-09
0.005828332081531253
-3.12340670420682e-09
0.005828333569382948
1.662998852904436e-09
0.005828332360554173
-4.973934918232381e-09
0.005828332309353426
-2.439323942923e-09
0.005828332862582553
-1.238982843766073e-09
0.005828333901591752
1.442330386944749e-09
0.005828333624925119
-8.729241691877203e-10
0.005828333042612343
-3.273436355488559e-09
0.00582833336983023
-6.153798731902456e-10
0.005828333971180933
-3.627097880221259e-09
-7.296962008928398e-09
0.006083007239450347
-5.903067024549632e-09
0.006083008849809688
3.861662362806848e-09
0.006083009874234828
3.646224747825632e-09
0.006083010960369741
2.722209197616261e-09
0.006083010504537282
1.856111071693654e-09
0.006083009359852859
-2.250109801099963e-09
0.006083009386534016
5.45220796572361e-10
0.006083009567785106
2.011226308067461e-09
0.006083009404519829
-3.107596438838124e-10
0.006083010081420577
2.846296943515245e-09