/*--------------------------------*- C++ -*----------------------------------*\
| =========                 |                                                 |
| \\      /  F ield         | OpenFOAM: The Open Source CFD Toolbox           |
|  \\    /   O peration     | Version:  v1812                                 |
|   \\  /    A nd           | Web:      www.OpenFOAM.com                      |
|    \\/     M anipulation  |                                                 |
\*---------------------------------------------------------------------------*/
FoamFile
{
    version     2.0;
    format      ascii;
    class       volVectorField;
    location    "10000";
    object      U;
}
// * * * * * * * * * * * * * * * * * * * * * * * * * * * * * * * * * * * * * //

dimensions      [0 1 -1 0 0 0 0];


internalField   nonuniform List<vector> 
2838
(
(0.06911666510625675 -3.592207529718991e-07 1.426769147676894e-06)
(0.06911582556943406 -3.798934729148694e-07 1.426706366121841e-06)
(0.06908043454087452 -4.760729296594894e-07 1.426007640968541e-06)
(0.06907608179317663 -9.146715288775802e-08 1.425944212537344e-06)
(0.06907419388639265 4.198949448655425e-07 1.425933618792528e-06)
(0.06911122381803633 4.701661522357926e-07 1.426677134049055e-06)
(0.06911509102971106 5.149997088940409e-08 1.426721512315762e-06)
(0.06911447765756353 -2.048155339506313e-09 1.426693640007621e-06)
(0.06911462589367087 -2.296829554627053e-08 1.426717299774954e-06)
(0.06911567769598938 1.752873483412795e-08 1.426726384209225e-06)
(0.06911413308374954 -8.86248808435535e-09 1.426686983578357e-06)
(0.06911467466611557 -1.530365370674631e-08 1.426700177534377e-06)
(0.06911440734047504 7.790985044660678e-08 1.426703746234285e-06)
(0.06911437673565282 2.487923483627453e-08 1.426689396275963e-06)
(0.06911289399020343 -7.308963728596544e-08 1.426665775835362e-06)
(0.06911475259860542 -3.302228640129702e-08 1.42671349831973e-06)
(0.06911526521298114 2.53929775987179e-08 1.426718561888959e-06)
(0.06911396299201587 6.807115456312634e-08 1.426673745783747e-06)
(0.06911557401048173 9.671871420650982e-09 1.426720775695184e-06)
(0.06911522261726699 -7.621803478453227e-08 1.426704861344843e-06)
(0.06911594561128383 1.661910960731172e-09 1.426712630970024e-06)
(0.06911415866950454 5.515155437001286e-08 1.426676039942856e-06)
(0.06911344987919853 2.179207242917205e-08 1.426681017363963e-06)
(0.06911573867620908 9.394120161084954e-09 1.426719241328656e-06)
(0.06911585998266941 -7.540502167053088e-09 1.426727192903826e-06)
(0.06911549070907282 -9.802544689584887e-10 1.426684671442999e-06)
(0.0691135033588358 2.066334656814828e-08 1.426666631860673e-06)
(0.06911477855696858 -2.992468555324379e-08 1.42669460883772e-06)
(0.06911529638709923 -4.955788958513056e-08 1.42671220429661e-06)
(0.06911484526837292 -2.708968506316569e-08 1.426675194938507e-06)
(0.06911408793952928 -1.007089832581621e-08 1.426669839476579e-06)
(0.06911323374804441 4.057345830703591e-08 1.426643904810923e-06)
(0.06911420667976774 1.541674499771158e-08 1.426681979948217e-06)
(0.06911485823663494 -6.401311304406327e-08 1.426675538294477e-06)
(0.06911524849405826 -1.717810468645468e-08 1.42670674159752e-06)
(0.06911521603454394 5.406490557338099e-08 1.42668232610054e-06)
(0.06911674277715878 2.672578667126383e-08 1.426741630633152e-06)
(0.06911528105278635 -2.621549280880954e-08 1.426669202039167e-06)
(0.06911517329701337 2.38503531975656e-08 1.426706396308262e-06)
(0.06911689287030373 5.560466614096535e-08 1.426705675822399e-06)
(0.06911420191946442 3.795316173250554e-09 1.426645259896175e-06)
(0.06911357938636267 -4.266206246842025e-07 1.426581637558539e-06)
(0.06907800538950899 -5.08845710823976e-07 1.425951983164862e-06)
(0.06907359687185305 3.414882113443321e-07 1.4258640396433e-06)
(0.06911066193298522 8.327261176232998e-08 1.426618836567806e-06)
(0.06907892138718263 9.9270821517722e-09 1.425955733012148e-06)
(0.06911227875735321 -2.43693390197132e-09 1.426642448502958e-06)
(0.06908008239284276 -4.29602426461923e-07 1.425936715305703e-06)
(0.06907627510506018 -3.904720767175164e-08 1.425924030668958e-06)
(0.06907594479650679 -4.335825110279763e-08 1.425851608722919e-06)
(0.06907493250412981 -7.53522816615131e-08 1.425908451840474e-06)
(0.06907462327264322 4.714077078957928e-08 1.425838104549412e-06)
(0.06907476496450339 7.165773595853943e-08 1.425897161483625e-06)
(0.06907217051056549 2.761512092927972e-08 1.425767289362015e-06)
(0.06907139714458807 4.104464648705394e-07 1.425862112540433e-06)
(0.0691105964127917 3.681087768084236e-07 1.42655490862178e-06)
(0.06911434514941969 4.44235145851804e-08 1.426674965049196e-06)
(0.06911308710509341 7.867599288576854e-08 1.426566183040898e-06)
(0.06911455411098326 -2.615592291829198e-08 1.426704398487726e-06)
(0.06911444767456909 4.715025115357898e-08 1.426590581183429e-06)
(0.06911442939412939 2.995145327341816e-08 1.426671686122251e-06)
(0.06911290548888044 -7.224234968361139e-08 1.426529298321763e-06)
(0.06911455872557466 -4.454011563336718e-08 1.426698021565246e-06)
(0.06911520288625234 2.095143998102844e-08 1.426582474060513e-06)
(0.06911512609923527 4.436711248608144e-08 1.426694529409534e-06)
(0.06911510907234157 -1.487155012723491e-08 1.42658048549741e-06)
(0.2042066787133512 -6.586315772237046e-07 4.24801020538809e-06)
(0.2042041464976094 -2.047080818005177e-06 4.247923349747476e-06)
(0.204156039072985 -2.702932156111773e-06 4.246932966988273e-06)
(0.2041414827426391 -4.858342053374062e-07 4.246649556057829e-06)
(0.204135955490338 2.100769346761362e-06 4.246566133842046e-06)
(0.2041930481064343 2.722177994072393e-06 4.247771251578299e-06)
(0.2042001585261469 4.870555519961933e-07 4.247881112876398e-06)
(0.2041995362959579 2.769115185424399e-08 4.247820084787924e-06)
(0.2041996586499659 -7.568636248362603e-08 4.24787251067375e-06)
(0.2042010402864259 1.121203239478786e-07 4.247879890923901e-06)
(0.2041976500492269 6.655805796439423e-08 4.247793204938118e-06)
(0.2042005834733684 -1.08694940008487e-07 4.247846932578616e-06)
(0.2041988120652947 2.105973757056684e-07 4.247830577191871e-06)
(0.2041957454477118 2.197610525360566e-07 4.247736276289993e-06)
(0.204193397918454 -2.443624917818192e-07 4.247704430928585e-06)
(0.2041995261619 -2.97545144434838e-07 4.247846897314356e-06)
(0.2042017641405058 7.449971530781272e-08 4.24789439485466e-06)
(0.2041975295897805 2.532193271567441e-07 4.247762045181143e-06)
(0.2042018473343717 1.540710333883747e-08 4.247884465746593e-06)
(0.2042013512904647 -2.326398679729898e-07 4.24784968885284e-06)
(0.2042038600078966 -1.390630333190496e-08 4.247888376549479e-06)
(0.2041989095574476 1.728826539272303e-07 4.247771587044487e-06)
(0.2041971368359733 6.140339713768737e-08 4.247787277238107e-06)
(0.2042024027148705 4.695322997041663e-08 4.24786978550396e-06)
(0.2042009427907711 4.114302758667842e-08 4.247868465974549e-06)
(0.2042012500983575 5.66590764554248e-08 4.247790422014648e-06)
(0.2041976240817715 5.207516310824613e-08 4.247761606011618e-06)
(0.2042003889255387 -1.6362481017202e-07 4.247812913852566e-06)
(0.2042008208830656 -1.667772311175848e-07 4.247853539635646e-06)
(0.2041979930005944 1.405562973681513e-08 4.247720506856454e-06)
(0.2041952136576227 2.840089103544375e-08 4.247689984948737e-06)
(0.2041947692812025 7.856114871450106e-08 4.247646882469227e-06)
(0.2041990158299051 -2.170151810518794e-09 4.247792469678478e-06)
(0.2041990544749751 -1.904416492702234e-07 4.247727385652136e-06)
(0.2042006214055092 -6.367986529737332e-08 4.247832528448795e-06)
(0.2042019583301855 3.45384572393401e-08 4.24778320094894e-06)
(0.2042041807453821 6.431436947649155e-08 4.24790902831196e-06)
(0.2042007879213394 -1.761967209024835e-08 4.247726229186623e-06)
(0.204200277517375 3.062259097126123e-09 4.247816054936592e-06)
(0.204205633611045 2.936335006916695e-07 4.247845453336688e-06)
(0.204196490539678 3.886785743347389e-07 4.247680974416311e-06)
(0.204197213628436 -2.397197497266549e-06 4.247547403114944e-06)
(0.2041506575724967 -3.131112519669585e-06 4.246763760358377e-06)
(0.2041341766206537 1.802868224572651e-06 4.246356646175737e-06)
(0.2041941280140737 2.220980810347537e-07 4.24768706466471e-06)
(0.2041522896503334 7.967891554253306e-10 4.246724629595228e-06)
(0.2041984292390534 1.356710741485351e-07 4.247772256696994e-06)
(0.2041550517269209 -2.259710191126758e-06 4.246705143241891e-06)
(0.2041417076970498 -1.433000622764078e-07 4.246591201738286e-06)
(0.2041417833252769 -1.047782002426413e-07 4.246391636780346e-06)
(0.2041375891687441 -2.249448295359856e-07 4.246508812203949e-06)
(0.2041372805894342 1.493804958215808e-07 4.2463150470791e-06)
(0.2041365992901646 3.448469361402096e-07 4.246479354633416e-06)
(0.2041294585809971 4.192761353737148e-08 4.246100278506325e-06)
(0.2041284395435534 1.994824393228007e-06 4.246357017763265e-06)
(0.2041912240193723 2.406946937209612e-06 4.247407600142273e-06)
(0.2041981861498169 5.037627770247932e-07 4.247749468049121e-06)
(0.2041963632166265 1.398626870000302e-07 4.24744738339564e-06)
(0.2042010105649353 -1.435198665200182e-07 4.247854631654693e-06)
(0.204199037487837 1.769727178336327e-07 4.247505785164954e-06)
(0.2041979649170725 2.215721164668841e-07 4.247750732095011e-06)
(0.2041940391255686 -1.769375594203129e-07 4.247325733870378e-06)
(0.2041979563550495 -2.669732894089923e-07 4.247784803688965e-06)
(0.2042010056539185 4.466142617520836e-08 4.247479157156535e-06)
(0.204202884106111 1.492566679044758e-07 4.247870149888734e-06)
(0.2042033317535807 -3.006745845636357e-07 4.247504763289555e-06)
(0.3349827799324621 -6.095993630734854e-07 7.009284788962602e-06)
(0.3349772396092711 -2.416148897827007e-06 7.009226953625716e-06)
(0.334972073415876 -3.717438417096037e-06 7.009083774871435e-06)
(0.3349605436489735 -8.316560879519614e-07 7.008829019449552e-06)
(0.3349551054487503 2.676189201202911e-06 7.008703980576137e-06)
(0.3349688512795257 3.739868178208807e-06 7.009053242113215e-06)
(0.3349729056985254 9.168704666376016e-07 7.009142097279925e-06)
(0.3349731948195569 7.532830901770301e-08 7.009078912466605e-06)
(0.3349711990749736 -2.172199366938061e-07 7.009093946404907e-06)
(0.3349729234478396 2.580750721946214e-07 7.009108442269003e-06)
(0.3349713461640629 3.701401009503079e-07 7.009065612957616e-06)
(0.3349739937214066 -2.674127323378376e-07 7.009101295937575e-06)
(0.3349713153692894 9.930835271471344e-08 7.009069072278179e-06)
(0.3349667860906369 4.838038852738598e-07 7.008931374599446e-06)
(0.3349652878441745 -3.476696513596231e-07 7.008920928421592e-06)
(0.3349729417301848 -6.789143856464282e-07 7.009091205891808e-06)
(0.3349775780891207 1.795028962807194e-07 7.009206832328899e-06)
(0.3349718753105954 4.825712520006323e-07 7.009026669371527e-06)
(0.3349770811371569 -1.59311002669899e-09 7.0091814530553e-06)
(0.3349763782659304 -3.033544486322264e-07 7.009130642110038e-06)
(0.3349773809931926 -7.377692748725278e-08 7.009142111159952e-06)
(0.3349719981418589 2.109606083783188e-07 7.008990701966014e-06)
(0.3349717820628591 9.692239537665149e-08 7.009060168412077e-06)
(0.3349754720244169 5.330635201930339e-08 7.009093670290349e-06)
(0.3349727084647461 1.988326123080609e-07 7.009092965254099e-06)
(0.3349730847739132 2.880262071236767e-07 7.00898456722484e-06)
(0.334970343539181 2.430077506954438e-08 7.008987206546729e-06)
(0.3349731593754792 -4.815958517914249e-07 7.009015967236388e-06)
(0.3349741093667245 -3.280001465400492e-07 7.009098154744525e-06)
(0.3349707823195118 1.190265437268047e-07 7.00892472937398e-06)
(0.3349664266670089 1.503903399684245e-07 7.008873531367739e-06)
(0.3349665409849519 1.764019665720074e-07 7.008805388314219e-06)
(0.3349714603538725 -5.65013146696379e-08 7.009008374312558e-06)
(0.3349703579065663 -3.49356113896748e-07 7.008869982981976e-06)
(0.3349743488826843 -1.412962005374765e-07 7.009071841390299e-06)
(0.3349760766876558 -7.581215163913411e-08 7.008986344950713e-06)
(0.3349742008427483 1.138372049615237e-07 7.009073060905715e-06)
(0.3349725895693422 -1.104084659788665e-08 7.008867331769572e-06)
(0.3349727424731644 -1.290458124401597e-07 7.009014806594737e-06)
(0.3349792259294653 6.388814771700559e-07 7.009024707984675e-06)
(0.3349681473446368 9.368685507557356e-07 7.008882622631675e-06)
(0.3349686312871762 -3.165518066874662e-06 7.008678366802876e-06)
(0.3349661346108112 -4.598962158639731e-06 7.008835313299858e-06)
(0.3349535657869258 2.015525895354305e-06 7.00838491511306e-06)
(0.3349702627103361 3.575259540773661e-07 7.008953443688318e-06)
(0.3349681442597652 -3.811474010486174e-08 7.008701742548954e-06)
(0.3349747430793336 1.909634815564362e-07 7.009062034241696e-06)
(0.3349707823773769 -2.956632568333756e-06 7.00869257128852e-06)
(0.3349603497085773 -2.226192122653956e-07 7.008720683944883e-06)
(0.3349600285715252 -1.664819109870212e-07 7.008383127141853e-06)
(0.3349553679388745 -3.763067425722533e-07 7.008596710615897e-06)
(0.3349560588738897 3.245713756421164e-07 7.008304192311536e-06)
(0.3349530750294431 6.861095969810416e-07 7.0085474495861e-06)
(0.3349451864274793 1.458622239905306e-07 7.007999590915678e-06)
(0.3349473774447418 2.417255670925335e-06 7.008444304688813e-06)
(0.3349665925122729 3.268946340231596e-06 7.008472195143855e-06)
(0.3349705651905326 9.676449156195091e-07 7.008944698713938e-06)
(0.3349701378658571 1.181168330536337e-07 7.008497607561458e-06)
(0.3349749349602049 -3.33676353706732e-07 7.009088698709063e-06)
(0.3349717638730714 3.117952243388859e-07 7.008528660980691e-06)
(0.334970491432671 5.166048895735489e-07 7.008969867584472e-06)
(0.3349668447497394 -3.034247750226135e-07 7.008327147840652e-06)
(0.334971733056309 -6.091944545412469e-07 7.009023800529631e-06)
(0.3349753377770485 1.428026932095963e-07 7.008498653222439e-06)
(0.334977938216125 2.773438848444541e-07 7.009153109293636e-06)
(0.3349795839486595 -7.893309365321351e-07 7.008545536401274e-06)
(0.4565116304911536 -6.741825332741485e-07 9.601105827175451e-06)
(0.4565044778994399 -1.231633891046015e-06 9.601140847544568e-06)
(0.4565290262233971 -2.500760958678753e-06 9.601593625238473e-06)
(0.4565297095650286 -5.441505650270577e-07 9.601583304289049e-06)
(0.4565281477934078 1.596698554495035e-06 9.601505838740589e-06)
(0.4565042218929816 2.574741363519899e-06 9.601063405765256e-06)
(0.4565027716275136 9.777354052532236e-07 9.601075506770665e-06)
(0.4565031952767614 2.281915361624349e-08 9.601010868198861e-06)
(0.4565015706638892 -4.210989975422608e-07 9.601026864916792e-06)
(0.456502191494791 4.535297285790946e-07 9.601013218032963e-06)
(0.456502834161201 7.186028116014966e-07 9.601029044215112e-06)
(0.4565035103951273 -4.114522030677775e-07 9.601020276008813e-06)
(0.4565023072528266 -7.880805702782439e-08 9.601019260699482e-06)
(0.4564998193252284 6.907930223666568e-07 9.600914824619302e-06)
(0.4564992462861772 -3.461644469221296e-07 9.600923540037075e-06)
(0.4565027741456188 -8.900725835753229e-07 9.600989400460913e-06)
(0.456506504796907 3.431080154272589e-07 9.601102509255097e-06)
(0.456502620144335 6.160568270189834e-07 9.600955536745626e-06)
(0.4565055460664629 -1.114948665795208e-07 9.601072669963251e-06)
(0.4565062100532321 -3.142779619271221e-07 9.60104045464601e-06)
(0.4565034340558626 -1.334043584439033e-07 9.600987309986931e-06)
(0.4565018416110465 2.192242273313803e-07 9.600889803581146e-06)
(0.4565026502792568 9.124036125190733e-08 9.600989217135603e-06)
(0.4565028255223882 -4.883164252074178e-08 9.600932882561532e-06)
(0.4565031158359882 3.57869069180772e-07 9.601019263750297e-06)
(0.4565004104337213 5.55473961940241e-07 9.600828591707601e-06)
(0.4564992651715538 -5.604806602360772e-08 9.600881583156039e-06)
(0.4565011147687367 -7.884716202662272e-07 9.600861528189578e-06)
(0.4565026471120642 -3.188732292306119e-07 9.600971875685421e-06)
(0.4565028303230219 2.617900908948423e-07 9.600856006251635e-06)
(0.4565006943439364 1.861769354976567e-07 9.600872825940627e-06)
(0.4564993832320912 1.629886149890348e-07 9.600731734695991e-06)
(0.4565011267290334 -1.650492567307336e-07 9.600907411426741e-06)
(0.4565007512353274 -3.35414979124111e-07 9.600741365273072e-06)
(0.4565030608408643 -1.803638785797444e-07 9.600939444154707e-06)
(0.4565044284860937 -3.545787312607224e-07 9.600814107448836e-06)
(0.456500591084336 9.494993817481177e-08 9.600900055944561e-06)
(0.4565012914029224 6.779292916134662e-08 9.600697121159807e-06)
(0.4565024782414766 -3.071171985333627e-07 9.600896131980651e-06)
(0.4565055585754551 8.611946944567838e-07 9.600785283137583e-06)
(0.4564995261918722 1.372876812815956e-06 9.600815889362068e-06)
(0.4564990106890277 -2.214415427375034e-06 9.600541075760642e-06)
(0.4565247617945333 -3.582535148352083e-06 9.601322626133222e-06)
(0.456527385578261 9.002987065831711e-07 9.601085195086707e-06)
(0.4565046619063063 1.910499026043749e-08 9.600922195768054e-06)
(0.456527026166877 -1.280171438871641e-07 9.601085531712596e-06)
(0.4565062687892424 1.52376680091934e-07 9.600980288861776e-06)
(0.4565281802766846 -1.796164044978417e-06 9.601059322247401e-06)
(0.4565295156850391 2.489879535350061e-08 9.60142132657986e-06)
(0.4565287061340232 -1.276838163889161e-07 9.600968389735183e-06)
(0.4565275146940644 -2.784461940305374e-07 9.601337954735421e-06)
(0.4565276802092701 4.689734837690008e-07 9.600924042334306e-06)
(0.4565258631383883 8.258320464009917e-07 9.601313938153072e-06)
(0.4565222022148526 3.24845508907856e-07 9.600727923446989e-06)
(0.4565257115494121 1.16513789539538e-06 9.601308000430992e-06)
(0.4565033468044767 2.033773767212541e-06 9.600328120363133e-06)
(0.4565004024491254 1.04329183112579e-06 9.600821377593344e-06)
(0.4565024925260724 -5.084869098151525e-08 9.600278271359104e-06)
(0.4565037815295576 -5.383513883124588e-07 9.600951369870842e-06)
(0.4565018741549721 4.086333551071706e-07 9.600247896184143e-06)
(0.4565013020662596 8.010970455465098e-07 9.600888315641526e-06)
(0.4565001090545252 -2.577331527965213e-07 9.600104318233296e-06)
(0.4565034102034586 -8.631494434198251e-07 9.600952773024298e-06)
(0.4565047311634935 6.272775108641388e-08 9.600167602357331e-06)
(0.4565053700600043 2.694265202633488e-07 9.601007849524772e-06)
(0.4565077131120586 -1.164323844769589e-06 9.600170846760084e-06)
(0.5705648403698294 -7.565516689543149e-07 1.205652699880242e-05)
(0.5705604409149378 3.098307811861428e-08 1.205683717201667e-05)
(0.5705810613291811 -8.641809135273203e-07 1.205721743229885e-05)
(0.5705853963984793 -6.384869935468231e-08 1.205729649714489e-05)
(0.5705861108581134 5.138307187432326e-07 1.205726666928491e-05)
(0.5705640115890956 9.976706049774939e-07 1.205681304087409e-05)
(0.5705608095358089 6.888455060912562e-07 1.205679578448228e-05)
(0.5705603892429575 3.421751904765574e-08 1.205671736787673e-05)
(0.5705617608795168 -5.166257659786533e-07 1.205678575539643e-05)
(0.5705611044740442 4.422125717357047e-07 1.20567361832442e-05)
(0.5705602127938024 8.957959092338049e-07 1.205672860202021e-05)
(0.5705604057685193 -3.651671356117161e-07 1.205670905646971e-05)
(0.5705613554168238 -2.450614468704213e-07 1.205675631834987e-05)
(0.5705617534629909 6.389821972605644e-07 1.205671008747804e-05)
(0.5705622523105358 -2.884978553612045e-07 1.205674426784088e-05)
(0.5705605845118175 -9.136875368196643e-07 1.205667913798051e-05)
(0.5705601732542064 3.915805817368244e-07 1.20567128421649e-05)
(0.5705593894506111 6.286687912968985e-07 1.205663083195611e-05)
(0.5705589790377287 -1.869887169434566e-07 1.20566828742575e-05)
(0.5705612733496047 -2.086448819863606e-07 1.205667497857329e-05)
(0.5705579834509336 -6.236858511349096e-08 1.205662803414999e-05)
(0.5705595748783348 1.449368018722649e-07 1.205658090543555e-05)
(0.5705608466045321 2.567516871498327e-08 1.205669181789711e-05)
(0.5705585947058143 -8.366654838988799e-08 1.205656662902489e-05)
(0.5705609275589023 3.675700018530731e-07 1.205671411588035e-05)
(0.5705580662108081 6.335039135939283e-07 1.205651114750826e-05)
(0.5705587852855053 -1.471677803197912e-07 1.205661677159016e-05)
(0.5705599688400831 -9.034564589160187e-07 1.205656357002101e-05)
(0.5705596685596054 -1.594444502538827e-07 1.205664114363457e-05)
(0.5705613166156331 3.964424868547246e-07 1.205654451678701e-05)
(0.5705623369914222 1.605625725963131e-07 1.205665508140231e-05)
(0.5705615651657254 7.921846892132773e-08 1.205648514374011e-05)
(0.5705598094911186 -2.20131000918109e-07 1.205661334931286e-05)
(0.5705609824340275 -2.504305072071334e-07 1.205645241679073e-05)
(0.5705595420812314 -1.711165580465856e-07 1.205658262753669e-05)
(0.5705600048208109 -4.857215286160341e-07 1.205641056474403e-05)
(0.5705595499803907 8.408670932177094e-08 1.20566040167096e-05)
(0.5705596827790594 1.607903939673128e-07 1.205636102699059e-05)
(0.5705593996148987 -4.749976516458439e-07 1.205655170530815e-05)
(0.5705592702242424 7.078187708857131e-07 1.205632118868895e-05)
(0.5705601058143208 1.439619305267613e-06 1.205655219989656e-05)
(0.5705602319122952 -8.80804358092897e-07 1.205625069929655e-05)
(0.5705801257654497 -1.841089675908385e-06 1.205696589927968e-05)
(0.5705860924822582 -5.589687211146771e-08 1.205674530889704e-05)
(0.5705649111788912 -3.224901064724897e-07 1.205664732538174e-05)
(0.570580830610334 -2.173714327257124e-07 1.205661380761087e-05)
(0.5705644811971595 6.431656692372165e-08 1.205665783777083e-05)
(0.5705806975409361 -5.382998990582738e-07 1.205655850937958e-05)
(0.5705854848565978 2.451060612970916e-07 1.205707977052045e-05)
(0.5705849173601011 2.722671143065234e-08 1.205655896897993e-05)
(0.570586306822279 -3.828687428445552e-08 1.205704809039436e-05)
(0.5705844648505158 4.595372609602928e-07 1.205649828346562e-05)
(0.5705854389087451 7.497971737288307e-07 1.205705258722919e-05)
(0.5705874887716224 4.291731340829747e-07 1.205648493554009e-05)
(0.5705882662595099 -6.523815814558067e-08 1.205711170636499e-05)
(0.5705659381656427 5.343388544547244e-07 1.205598557220711e-05)
(0.5705580830948256 7.219040737761453e-07 1.205648052271154e-05)
(0.5705621938104041 -2.619635433355865e-07 1.205585114076199e-05)
(0.5705597270772673 -5.896450658861823e-07 1.205657251985146e-05)
(0.5705605425357871 3.573425757792742e-07 1.205578278036427e-05)
(0.5705614734823685 8.512193612237603e-07 1.205661373777545e-05)
(0.570561850824535 -1.191747529665256e-07 1.205570523545753e-05)
(0.5705626618659373 -9.026446582755091e-07 1.205665835781288e-05)
(0.5705603281968403 -6.732037552250424e-08 1.205561264499542e-05)
(0.5705591812822771 1.713292932879775e-07 1.205659391450576e-05)
(0.5705606904081911 -1.252253244086469e-06 1.205552744547192e-05)
(0.6819307077452257 -7.633175332269457e-07 1.4480408464874e-05)
(0.6819295312097189 5.845201115701391e-07 1.448123160826644e-05)
(0.6819367582887939 8.607372139652958e-08 1.448134196953074e-05)
(0.6819392218523467 2.960558309145761e-07 1.448138425670427e-05)
(0.6819401930979954 4.954283870838761e-08 1.448138094816983e-05)
(0.6819326135606095 8.136959499567058e-08 1.448119290838852e-05)
(0.6819313395708482 3.611149720811829e-07 1.448120928792668e-05)
(0.6819304858801016 7.777219889621841e-08 1.448113195568215e-05)
(0.681932118357374 -3.48270582831943e-07 1.448119878003901e-05)
(0.6819310479272463 2.604431181851491e-07 1.448113300717038e-05)
(0.6819301477011049 6.422676088188314e-07 1.448112656847931e-05)
(0.6819301365946856 -1.826599700983536e-07 1.448110039891206e-05)
(0.681931595817439 -1.398172955965743e-07 1.44811607000206e-05)
(0.6819321432363753 4.567987950134537e-07 1.448112008801217e-05)
(0.6819335082873793 -2.679427708627881e-07 1.448117839138262e-05)
(0.6819321670511307 -7.15786608681774e-07 1.44811055363997e-05)
(0.681928744108095 2.525556383306647e-07 1.448107181057123e-05)
(0.6819299744513144 4.226421793033274e-07 1.448103121374478e-05)
(0.6819289079748725 -1.999523088236247e-07 1.448107219341079e-05)
(0.681930374599289 -9.890938667782372e-09 1.448104123064887e-05)
(0.6819284484901291 1.44596261289464e-07 1.448103545043101e-05)
(0.6819300014550934 2.77111975908877e-08 1.448098032990063e-05)
(0.6819317199259345 -5.16458596744347e-08 1.448109878184833e-05)
(0.6819295202283141 -1.794238829267098e-07 1.44809601403689e-05)
(0.6819310939973137 1.946988345305684e-07 1.448109916684784e-05)
(0.6819301481085588 6.461111353523545e-07 1.448093575112685e-05)
(0.6819313584250472 -1.153408174512101e-07 1.448105195012721e-05)
(0.6819328645227237 -7.440704775762783e-07 1.448100064220208e-05)
(0.6819311082427633 -6.665725777260433e-08 1.448105313099998e-05)
(0.6819314428656413 3.697967065100318e-07 1.448091445078936e-05)
(0.6819323706269064 1.746777974907003e-07 1.448104580614963e-05)
(0.6819327483619351 -4.398581294949952e-08 1.448087542180703e-05)
(0.6819315060967852 -2.742939662763327e-07 1.448102203120402e-05)
(0.6819325932381681 -7.358203967955718e-08 1.448085406184676e-05)
(0.6819301774053363 -1.730874835870882e-08 1.448096318686496e-05)
(0.6819297031537973 -4.594771041882572e-07 1.448074545672654e-05)
(0.6819313828302215 1.920774270671769e-09 1.448100545333162e-05)
(0.6819311098480918 2.0081794763977e-07 1.448074507724766e-05)
(0.6819302473414673 -4.413245625258104e-07 1.448093824300688e-05)
(0.6819286580138672 4.35148063193218e-07 1.448063571875309e-05)
(0.6819310536851002 1.107737957990815e-06 1.448093563124962e-05)
(0.681932691242408 -2.045929236737524e-07 1.448064259531408e-05)
(0.6819385644334056 -6.461679006232524e-07 1.448109274004378e-05)
(0.6819409529547562 -3.566146544792672e-07 1.448077796665504e-05)
(0.6819338878194003 -4.852054188534414e-07 1.448098496658497e-05)
(0.6819376708356621 -2.675402222030186e-07 1.4480660714662e-05)
(0.6819330635300151 9.285215317995722e-09 1.44809799986848e-05)
(0.6819369257976883 1.303695430891002e-07 1.448057995080644e-05)
(0.6819396170537826 3.148011396887788e-07 1.448111163792027e-05)
(0.6819398359849003 2.353918363622436e-07 1.448056971025744e-05)
(0.6819400460866363 2.364975825860193e-07 1.44810788668623e-05)
(0.6819390847119449 2.578395091563037e-07 1.448047760720775e-05)
(0.6819402407158349 4.894577545731033e-07 1.448110580733672e-05)
(0.6819429225224708 3.726975344906316e-07 1.448047557308221e-05)
(0.6819430478262574 -6.293848377990052e-07 1.448116781211745e-05)
(0.6819361056474195 -1.316016157395414e-07 1.448027234514647e-05)
(0.6819294894072304 4.105668836992724e-07 1.448085959099208e-05)
(0.6819327309528233 -4.565189219205173e-07 1.44801070925246e-05)
(0.6819307551531911 -3.969947227771743e-07 1.448093105573155e-05)
(0.6819307312836639 2.927619114936732e-07 1.448001400281182e-05)
(0.6819323790002916 6.043044921373171e-07 1.448098123943097e-05)
(0.6819329993601315 9.060777169692055e-09 1.447995824581202e-05)
(0.6819336547239203 -7.009830388673107e-07 1.448103063676297e-05)
(0.6819305541219528 -2.203026082464499e-07 1.447983066351921e-05)
(0.6819292142869089 1.465916238522061e-08 1.448092420432012e-05)
(0.6819287469890674 -1.076774257355472e-06 1.447961766097224e-05)
(0.7807663104277023 -7.276326718741566e-07 1.666603980009287e-05)
(0.7807660694375611 5.605305629534369e-07 1.666733916067624e-05)
(0.7807676798290599 2.740219629545393e-07 1.666734090725059e-05)
(0.7807684093124205 3.778213990935148e-07 1.666733821361229e-05)
(0.780768824409302 4.801266481001318e-08 1.666734251401115e-05)
(0.780767401974702 -1.24484575564839e-07 1.666727846026154e-05)
(0.7807674522269334 2.102297835570029e-07 1.666731364034577e-05)
(0.7807670664512593 1.185713356258146e-07 1.66672578762326e-05)
(0.7807677280526482 -1.926885813142673e-07 1.666729827832718e-05)
(0.7807669738818481 2.308381127244765e-07 1.666723658811854e-05)
(0.7807668049178248 3.264968350673922e-07 1.666724276865533e-05)
(0.7807672176351099 -1.64850856073856e-07 1.666722665507771e-05)
(0.7807675654357642 -7.607426287084341e-08 1.666726046496329e-05)
(0.7807675305570956 2.560949059287815e-07 1.666721188521931e-05)
(0.7807678735616064 -1.060205414703066e-07 1.666724838905263e-05)
(0.7807680968278561 -3.843716452591015e-07 1.666720591320434e-05)
(0.7807659370193581 1.286514078715977e-07 1.666719172360467e-05)
(0.7807669172427343 1.971246028159144e-07 1.666714663150092e-05)
(0.7807671088711673 -1.59834321139992e-07 1.666721058549052e-05)
(0.7807672831796073 8.226182766774263e-08 1.666715342579004e-05)
(0.7807665993871338 2.164345821581085e-07 1.666717559835642e-05)
(0.7807670661882999 -1.227741946866569e-07 1.666710083865513e-05)
(0.7807678747144554 -1.182463289716666e-07 1.666719117400672e-05)
(0.7807669895882339 -1.646474390985752e-07 1.666707770859634e-05)
(0.7807678651537849 3.917120266571621e-08 1.666719342538983e-05)
(0.7807674394027113 4.64997395309266e-07 1.666705547293469e-05)
(0.7807679264845403 -1.89308556551481e-07 1.666714375623094e-05)
(0.7807689809802719 -4.219048916919914e-07 1.666708445891312e-05)
(0.7807679584003375 1.13478490163e-07 1.666715476633242e-05)
(0.7807677866032265 3.004216518489072e-07 1.666700240554173e-05)
(0.780767972417726 2.130324961400559e-07 1.666711942628152e-05)
(0.7807679178319421 -5.011087098364792e-08 1.666694253922464e-05)
(0.7807680799838906 -2.525014631099289e-07 1.666710224017617e-05)
(0.7807683243450642 -7.385824061133635e-08 1.666692809330757e-05)
(0.7807672547226221 6.792440443291997e-08 1.666705677691884e-05)
(0.7807669977884064 -3.680159702474384e-07 1.66668384011041e-05)
(0.7807675600345477 -1.602236463237691e-07 1.666706202943075e-05)
(0.7807676157666947 2.99574451147303e-07 1.666682177826043e-05)
(0.7807676426028137 -1.766850016715489e-07 1.666703073111522e-05)
(0.7807665891565164 2.062582305109227e-07 1.666673594486814e-05)
(0.7807671093563637 7.085623300237614e-07 1.666699346501106e-05)
(0.7807685333508548 -1.643087862711155e-07 1.666669942151924e-05)
(0.780769299691592 -3.435017663024875e-07 1.666702538414598e-05)
(0.780769610698681 -2.98940120550553e-07 1.666667577840514e-05)
(0.7807685887600165 -4.464447955767588e-07 1.666699895065895e-05)
(0.7807684121127132 -2.637535754178902e-07 1.666659107187793e-05)
(0.7807680908275052 1.4398288742438e-08 1.666699250683456e-05)
(0.7807679465690053 2.696426512463362e-07 1.666650446304866e-05)
(0.7807688219287344 3.207522489857832e-07 1.666699388872458e-05)
(0.7807690623544189 3.330827169706363e-07 1.666645602222192e-05)