/*--------------------------------*- C++ -*----------------------------------*\
| =========                 |                                                 |
| \\      /  F ield         | OpenFOAM: The Open Source CFD Toolbox           |
|  \\    /   O peration     | Version:  v1812                                 |
|   \\  /    A nd           | Web:      www.OpenFOAM.com                      |
|    \\/     M anipulation  |                                                 |
\*---------------------------------------------------------------------------*/
FoamFile
{
    version     2.0;
    format      ascii;
    class       volVectorField;
    location    "10000";
    object      wallShearStress;
}
// * * * * * * * * * * * * * * * * * * * * * * * * * * * * * * * * * * * * * //

dimensions      [0 2 -2 0 0 0 0];


internalField   uniform (0 0 0);

boundaryField
{
    inlet
    {
        type            cyclic;
    }
    outlet
    {
        type            cyclic;
    }
    bottomWall
    {
        type            calculated;
        value           nonuniform List<vector> 
66
(
(-0.004026397769052237 2.834095136892651e-08 -8.31165766317943e-08)
(-0.004026349089850018 7.307488780875979e-09 -8.311291928614723e-08)
(-0.004024287754509711 1.262537258568363e-08 -8.307221498381256e-08)
(-0.004024034743169131 3.280631232111891e-09 -8.306851995433228e-08)
(-0.00402392445568075 -1.108154110544881e-08 -8.306790281468901e-08)
(-0.00402608078317305 -1.145985105601083e-08 -8.311121636888005e-08)
(-0.004026305972546044 -2.006402257779084e-09 -8.311380162915957e-08)
(-0.004026270606067692 -1.259231747819519e-10 -8.311217792511523e-08)
(-0.004026279328015428 2.519346462013429e-09 -8.311355622718166e-08)
(-0.00402634059583407 -1.663485125604588e-09 -8.311408544179111e-08)
(-0.004026250571154724 7.377707450721111e-11 -8.31117901541756e-08)
(-0.004026282231019645 1.356737653980444e-09 -8.311255876937754e-08)
(-0.004026266615116951 -6.234083829470705e-09 -8.311276666434068e-08)
(-0.004026264656510525 -2.859756482932623e-09 -8.311193070611125e-08)
(-0.004026178364597131 5.907434038340276e-09 -8.311055469502744e-08)
(-0.004026286781747631 4.017913908452711e-09 -8.311333477303475e-08)
(-0.004026316646548028 -2.456189232521541e-09 -8.311362975175682e-08)
(-0.004026240678171413 -5.098107783179348e-09 -8.311101898515227e-08)
(-0.004026334410040676 2.058324525940212e-11 -8.31137587172556e-08)
(-0.004026314064851426 6.147815891234429e-09 -8.311283162521565e-08)
(-0.004026356311045289 -7.810166818788441e-10 -8.311328424549256e-08)
(-0.004026252110334318 -5.813063455933954e-09 -8.311115263161617e-08)
(-0.00402621075912693 -7.245221285348338e-10 -8.311144259177091e-08)
(-0.004026344108317674 7.471086857857065e-10 -8.311366933258299e-08)
(-0.004026351192462274 4.33755921867276e-10 -8.311413255237442e-08)
(-0.004026329715850696 -1.367873318379124e-09 -8.311165546050349e-08)
(-0.004026213890041611 -2.04136243926828e-09 -8.311060456286584e-08)
(-0.004026288138895573 3.423025837346692e-09 -8.311223436440763e-08)
(-0.004026318372288056 3.890210139310614e-09 -8.311325938959099e-08)
(-0.00402629212600998 1.3636776240468e-09 -8.311110340580495e-08)
(-0.004026248033641175 -2.0521193115923e-10 -8.311079142284506e-08)
(-0.004026198233868111 -3.078723388167719e-09 -8.310928059635364e-08)
(-0.004026254792547292 -2.020722408218462e-10 -8.311149866721108e-08)
(-0.004026292815225509 5.610488330517836e-09 -8.311112340804064e-08)
(-0.004026315688196395 1.553522325218155e-09 -8.311294115951974e-08)
(-0.004026313729089299 -3.283791716256535e-09 -8.311151883234858e-08)
(-0.004026402555489825 -2.036044729155792e-09 -8.311497362371232e-08)
(-0.004026317473737582 1.074554625206774e-09 -8.311075428886611e-08)
(-0.004026311274259855 -8.649039607029705e-10 -8.311292104466013e-08)
(-0.004026411354535027 -4.914215262808313e-09 -8.311287907268553e-08)
(-0.004026254168140131 -2.325121144633391e-09 -8.310935953697791e-08)
(-0.004026217874457528 1.09578036161733e-08 -8.310565321145902e-08)
(-0.004024146684944363 1.50246619912093e-08 -8.306897263300047e-08)
(-0.004023889704559575 -6.514388599173446e-09 -8.306384947452659e-08)
(-0.004026048084359006 -3.205493923545545e-09 -8.310782024339222e-08)
(-0.004024199261717302 2.196326633984751e-10 -8.306919108072189e-08)
(-0.004026142173385263 9.0068728854365e-10 -8.310919575899032e-08)
(-0.004024266941344013 1.130759560805838e-08 -8.306808320236771e-08)
(-0.004024045536074724 4.976340822801479e-10 -8.306734425761003e-08)
(-0.004024025905544171 2.545111498130455e-09 -8.306312531004057e-08)
(-0.004023967050900624 5.043113581816516e-09 -8.306643671142879e-08)
(-0.004023949088530417 -3.764246292601e-09 -8.306233862308846e-08)
(-0.0040239571897374 -7.06882603594042e-09 -8.306577899058325e-08)
(-0.00402380637890263 -4.208582074025155e-09 -8.305821327740131e-08)
(-0.004023761327958797 -8.335460469475614e-09 -8.306373721096009e-08)
(-0.004026044235799164 -2.276042891730944e-09 -8.310409611462664e-08)
(-0.004026262689214632 -1.924365198038941e-09 -8.311109001358055e-08)
(-0.004026189602871462 -5.982996436036426e-09 -8.310475290701808e-08)
(-0.004026275099338481 2.865305366161244e-09 -8.311280466142887e-08)
(-0.004026268979420067 -3.738743159978054e-09 -8.310617422320414e-08)
(-0.004026267753185756 -3.271402061423698e-09 -8.311089899936978e-08)
(-0.004026179019205448 5.690560949307357e-09 -8.310260418408732e-08)
(-0.004026275482794147 4.867307342546807e-09 -8.311243317318438e-08)
(-0.004026313004497737 -1.279714679006746e-09 -8.310570194196356e-08)
(-0.004026308416620515 -3.503631467423265e-09 -8.31122297373109e-08)
(-0.004026307086697174 2.098146028420539e-09 -8.310558609802492e-08)
)
;
    }
    topWall
    {
        type            calculated;
        value           nonuniform List<vector> 
66
(
(-0.004024195361214462 -2.031464008552615e-08 -8.283682704098523e-08)
(-0.004024141247571671 -6.910704832495241e-09 -8.283568641627232e-08)
(-0.004024160734243812 -3.085434676841404e-09 -8.283566988247575e-08)
(-0.004024226347073927 -5.45002362303649e-10 -8.283633259199331e-08)
(-0.004024117991742314 4.392191793156997e-09 -8.283309653450859e-08)
(-0.004024114425304632 -1.970918344241398e-09 -8.283326495498083e-08)
(-0.004024250788766997 -1.556806559271564e-09 -8.283647170997346e-08)
(-0.004024132393819529 1.895684737469158e-10 -8.283244418857383e-08)
(-0.00402405418888009 1.764958195695998e-08 -8.283144482515049e-08)
(-0.004026035522817214 7.213651968849192e-09 -8.286921734518813e-08)
(-0.004024324616338518 -2.027777228227402e-08 -8.28367706627275e-08)
(-0.004024124636809039 7.382613892115051e-09 -8.283257843779774e-08)
(-0.004026113485665264 1.755093216587676e-08 -8.287032752923361e-08)
(-0.004026341734457659 2.358758928848542e-09 -8.287434075275884e-08)
(-0.004026335220009056 9.528132571191508e-10 -8.287425888828372e-08)
(-0.004026357432518952 1.246432588352405e-09 -8.287376868553646e-08)
(-0.004026314869683874 2.840899379459402e-09 -8.287372306585565e-08)
(-0.004026388673662646 -1.348590063944292e-10 -8.287488917802277e-08)
(-0.004026418887246681 -1.14615518979751e-09 -8.287457330887293e-08)
(-0.004026278454621474 4.22460731149409e-10 -8.287234998682321e-08)
(-0.00402634855580031 -9.888709933243147e-11 -8.2875173498e-08)
(-0.004026286700151125 2.824541072449184e-09 -8.287136796874037e-08)
(-0.004026281994975532 -9.645795929569222e-09 -8.287157476305999e-08)
(-0.004024310723791933 -2.085466427610483e-08 -8.283528187462645e-08)
(-0.004024180060656793 -8.217832536273052e-09 -8.283274076437245e-08)
(-0.004024148227583959 1.115691617851105e-10 -8.283159119706735e-08)
(-0.004024203895988954 -2.51888876394773e-09 -8.283425471369677e-08)
(-0.004024126452749677 1.362836397354332e-08 -8.283052510009112e-08)
(-0.004026104659059414 1.851078705836473e-08 -8.286912662024948e-08)
(-0.004026344649344332 3.89336939668713e-09 -8.287250626364037e-08)
(-0.004026259676409704 -1.5115267157482e-09 -8.287173789495926e-08)
(-0.004026388367639187 1.952621880010023e-10 -8.287436605422665e-08)
(-0.004026312399039617 3.301089781330978e-09 -8.287265748736361e-08)
(-0.004026246205447225 -1.55390739315578e-09 -8.28699417619767e-08)
(-0.004026454261815801 7.752745144374198e-11 -8.28758086884927e-08)
(-0.004026311446791689 2.517764364132984e-09 -8.287002450986294e-08)
(-0.004026249488455739 -3.148662819470372e-09 -8.287131874626689e-08)
(-0.004026388519138525 -1.748084865082918e-09 -8.287309589190516e-08)
(-0.004026293912264686 6.073861525512742e-09 -8.287160480219908e-08)
(-0.004026302828838501 -7.662201985158867e-09 -8.286972296614756e-08)
(-0.004024267388865566 -2.344617602360664e-08 -8.283425329760764e-08)
(-0.004024266463106429 -8.472773165550554e-09 -8.283217322503442e-08)
(-0.004024119248406822 2.100850924271319e-09 -8.283012777826727e-08)
(-0.004024036433589014 1.472271945130898e-08 -8.282614710118265e-08)
(-0.00402604681015042 1.264648253679916e-08 -8.286812372893431e-08)
(-0.004026402530117606 5.039896684526491e-10 -8.287151189445077e-08)
(-0.004026351915544356 6.80656832757062e-09 -8.287302116633197e-08)
(-0.004026318225282814 2.213543937589195e-09 -8.286909634973914e-08)
(-0.004026384346911656 -5.184466410866003e-09 -8.287346578006152e-08)
(-0.004026364466830627 -2.734575067477925e-09 -8.28694605090857e-08)
(-0.004026304548869595 4.760090747211284e-09 -8.287235943776781e-08)
(-0.004026257223678379 -2.52563145044103e-09 -8.286669482734913e-08)
(-0.004026314450970583 -3.092616857204734e-09 -8.287265514289882e-08)
(-0.004026304661485097 3.449593261940219e-09 -8.286717736309157e-08)
(-0.00402628451358747 2.195622263670764e-09 -8.287168096162129e-08)
(-0.004026318276904368 -1.374816490150505e-09 -8.286763279806059e-08)
(-0.004026331590898 -1.551948963717429e-09 -8.287384716572986e-08)
(-0.004026288786439338 1.223417325931321e-10 -8.286536227427465e-08)
(-0.004026315738924534 -4.675778152555402e-11 -8.287234203705459e-08)
(-0.004026324014510366 5.796672334486895e-09 -8.28664039745113e-08)
(-0.00402635612815595 -1.033374360627233e-08 -8.287376590479312e-08)
(-0.004024285517202138 -5.52097304583447e-09 -8.282687357077717e-08)
(-0.0040261055840069 6.596539893830446e-09 -8.287060303683797e-08)
(-0.004026499747983213 2.024252862648989e-09 -8.286834866084952e-08)
(-0.004026331458173139 8.736901374782108e-09 -8.287397621705654e-08)
(-0.004026324299965477 -9.132173886368214e-09 -8.286197164945418e-08)
)
;
    }
    left
    {
        type            cyclic;
    }
    right
    {
        type            cyclic;
    }
}


// ************************************************************************* //
