/*--------------------------------*- C++ -*----------------------------------*\
| =========                 |                                                 |
| \\      /  F ield         | OpenFOAM: The Open Source CFD Toolbox           |
|  \\    /   O peration     | Version:  v1812                                 |
|   \\  /    A nd           | Web:      www.OpenFOAM.com                      |
|    \\/     M anipulation  |                                                 |
\*---------------------------------------------------------------------------*/
FoamFile
{
    version     2.0;
    format      ascii;
    class       volScalarField;
    location    "10000";
    object      nut;
}
// * * * * * * * * * * * * * * * * * * * * * * * * * * * * * * * * * * * * * //

dimensions      [0 2 -1 0 0 0 0];


internalField   nonuniform List<scalar> 
3770
(
5.734122816625287e-06
5.733255173869976e-06
5.735768119710025e-06
5.737318299140789e-06
5.733282313991688e-06
5.735695100087977e-06
5.737318997659222e-06
5.733284037140807e-06
5.735578150884563e-06
5.737183908532887e-06
5.736969632770942e-06
5.735950582782592e-06
5.733533118663684e-06
5.733747706123227e-06
5.853305829661784e-06
5.857446028352968e-06
5.85476528799773e-06
5.853114898243167e-06
5.857444750055221e-06
5.854766354246116e-06
5.853114209206564e-06
5.857445304595825e-06
5.854766141649894e-06
5.85311455159067e-06
5.857445045602815e-06
5.854766323188158e-06
5.853114576160922e-06
5.857445437958354e-06
5.854766536688716e-06
5.853113742702843e-06
5.857326608537317e-06
5.854718830709522e-06
5.853134948226628e-06
5.856705942024206e-06
5.858465633153733e-06
5.734026774979957e-06
5.733846744120259e-06
5.85334094655845e-06
5.856879794768669e-06
5.854134494234274e-06
5.856704926412478e-06
5.858389434896475e-06
5.736415081850351e-06
5.733637053249151e-06
5.733756842339002e-06
5.853330264073959e-06
5.856710006287323e-06
5.858354042585947e-06
5.73717729634897e-06
5.736960038097051e-06
5.736008958943421e-06
5.733551432259954e-06
5.733917560464528e-06
5.856504253466795e-06
5.85402588000512e-06
5.856707459025523e-06
5.858436165170581e-06
5.733614766277965e-06
5.825834286472542e-06
5.829738262990899e-06
5.82397919081421e-06
5.834206396761425e-06
5.819111124962102e-06
5.824260872244456e-06
5.834221883397684e-06
5.819291388143908e-06
5.828090848403658e-06
5.837781795255574e-06
5.851510755661833e-06
5.844473813091226e-06
5.818082439616356e-06
5.843889089800006e-06
7.653341801303599e-06
7.723500229241874e-06
7.688582412502564e-06
7.650817646209761e-06
7.72344119613664e-06
7.688609381583534e-06
7.65080469606147e-06
7.72345749119995e-06
7.688603877672278e-06
7.650814261437689e-06
7.723454178151377e-06
7.688612260292309e-06
7.65081809183762e-06
7.723463177554327e-06
7.688617476935326e-06
7.650825870829614e-06
7.723433812421426e-06
7.688613930718725e-06
7.65092471569824e-06
7.72916114419222e-06
7.609128740895195e-06
5.818692064237711e-06
5.844821985345732e-06
7.650189712909932e-06
7.70315551751309e-06
7.684343461613266e-06
7.728905494950391e-06
7.617441361107008e-06
5.831550138322955e-06
5.818078772289717e-06
5.843907927091808e-06
7.653751934156568e-06
7.728959316830585e-06
7.613994025566814e-06
5.834035114035644e-06
5.851479946322082e-06
5.844459045530044e-06
5.818025650980013e-06
5.845975545776814e-06
7.698786939520222e-06
7.683860240644784e-06
7.728921863190255e-06
7.609836460487118e-06
5.808471523097104e-06
3.863411539199948e-05
3.85616005762256e-05
3.870163480881331e-05
3.882405188798649e-05
3.858643745095802e-05
3.869979387347729e-05
3.882402359176774e-05
3.858583410305315e-05
3.868907996341551e-05
3.882929356410687e-05
3.880058421954916e-05
3.880170284602062e-05
3.857001339160875e-05
3.894252172754944e-05
4.31911738264654e-05
4.330495892891837e-05
4.324459386925304e-05
4.317938893983558e-05
4.330532459537276e-05
4.324447695345672e-05
4.317942959729745e-05
4.330533204719373e-05
4.324449491205074e-05
4.317945099874141e-05
4.330534603650867e-05
4.324451128233193e-05
4.317946731025261e-05
4.330534983113913e-05
4.324450855013733e-05
4.317944880280585e-05
4.33052491596422e-05
4.324440734278525e-05
4.317914894410184e-05
4.331440564798611e-05
4.309755192607691e-05
3.858564065751878e-05
3.895908469325118e-05
4.317665740734383e-05
4.321488856816809e-05
4.320247274224614e-05
4.331365375699698e-05
4.311843905442483e-05
3.880772952304909e-05
3.856925689448616e-05
3.894110361259642e-05
4.319167648002257e-05
4.331325064765056e-05
4.311015175143025e-05
3.883983333402718e-05
3.879968191408946e-05
3.880155775467582e-05
3.856918235577176e-05
3.897195674023066e-05
4.321911037330688e-05
4.320747685466264e-05
4.33140712523484e-05
4.310469377731529e-05
3.866682369697714e-05
0.0001446289278734514
0.0001445681432358015
0.0001446739083995246
0.0001447752033699248
0.0001445846546428366
0.0001446731165412849
0.0001447743929939339
0.0001445835996960874
0.0001446639645628796
0.0001447792573895623
0.0001447665266865078
0.0001447605092220828
0.0001445682360746518
0.0001448508398453269
0.0001480604686795028
0.0001481714842540659
0.0001481051486722761
0.0001480442702336653
0.0001481739204700801
0.000148104041281444
0.0001480446729089319
0.0001481736829792395
0.0001481042609834155
0.000148044612554541
0.0001481737842536633
0.000148104215287397
0.0001480446288287271
0.0001481736971784812
0.0001481040952950279
0.0001480443851930979
0.000148173037711382
0.0001481035018827315
0.0001480420887559674
0.000148178925557593
0.0001479765925400717
0.0001445829925795938
0.0001448606391614551
0.0001480440233194437
0.0001480768112683252
0.0001480640875250477
0.0001481765913692929
0.0001479974993281107
0.000144762799368794
0.0001445658924870213
0.0001448489665537204
0.0001480579359708889
0.0001481746437871987
0.0001479870464360496
0.0001447896897813661
0.00014476366631688
0.0001447594042805853
0.0001445646911274978
0.0001448719726735843
0.0001480876185507296
0.0001480691467885218
0.0001481791847359464
0.0001479852724804259
0.000144653494651968
0.0003517533700583218
0.0003517130622655831
0.0003517687499657926
0.0003518363144779193
0.0003517258121468198
0.0003517694015667677
0.0003518338451601763
0.0003517241761097557
0.0003517623910540183
0.0003518422308699189
0.0003518563312182949
0.0003518350289241023
0.0003517103016592426
0.0003518699181718851
0.0003532709774696348
0.000353287846253132
0.0003532641268552029
0.0003532531496697325
0.0003532941404833353
0.0003532607315655387
0.000353254231256282
0.0003532932055044915
0.0003532613898434649
0.0003532538795479105
0.0003532934831520156
0.0003532611216469556
0.0003532538537846194
0.0003532931216016845
0.0003532606843966843
0.0003532530646560476
0.0003532911332229947
0.0003532593127420322
0.000353247042824468
0.0003532862220480722
0.0003532352439925032
0.0003517220437385798
0.0003518670099378101
0.0003532689702089485
0.0003532886127070076
0.0003532700281358234
0.0003532814959265076
0.0003532418486078681
0.0003518288020066019
0.0003517044616985041
0.0003518669943783191
0.0003532616763409123
0.0003532769941410646
0.0003532362639281307
0.000351850710997045
0.000351850135733705
0.0003518319113374779
0.0003517021732123053
0.0003518792005308987
0.0003533116701419756
0.00035327186964048
0.000353289088471315
0.0003532415660792466
0.000351787756154755
0.0006501427213234489
0.0006501176185700438
0.0006501461339669021
0.0006502031075094256
0.0006501308995001171
0.0006501484436671429
0.0006501987101460412
0.0006501287430949392
0.0006501411636494158
0.0006502036157394579
0.0006502340836752889
0.0006502080601931915
0.00065011319544408
0.0006502206349675123
0.0006506716056413911
0.0006506245001152798
0.0006506301209860697
0.0006506528360923236
0.0006506343431027467
0.0006506237774762845
0.0006506542854144167
0.000650632457155551
0.0006506248723485835
0.0006506534852889714
0.0006506329053697148
0.0006506242754832022
0.0006506533692084801
0.0006506321630111241
0.0006506234164899405
0.000650651921103792
0.000650628479014682
0.0006506215515275035
0.0006506424197402856
0.0006506146897004286
0.000650658914264272
0.0006501262556601864
0.0006502077783280712
0.0006506755725221384
0.0006506808699893885
0.000650664939031123
0.0006506082545848259
0.0006506574539345627
0.0006501999281883338
0.0006501026788943481
0.0006502160433499813
0.0006506554608899486
0.0006506012623827424
0.0006506537134554104
0.0006502161984918103
0.0006502249914663726
0.000650202310788991
0.0006500999520438023
0.0006502233727328043
0.0006507227901480317
0.0006506694991293851
0.0006506224322953373
0.0006506671236482464
0.0006501944233359601
0.001012200975682156
0.0010121754349526
0.001012193006783721
0.001012252334276663
0.001012187438303777
0.001012196975978909
0.001012246396554915
0.001012184928672931
0.001012187590539426
0.00101224795095858
0.001012287835861454
0.001012261617568109
0.001012169623037971
0.0010122644820451
0.001012382979217831
0.001012304860131494
0.001012320733004631
0.001012360262757918
0.001012314890622366
0.001012313302734908
0.001012362327352378
0.001012312060507192
0.001012314626354853
0.001012361058984009
0.00101231258804389
0.001012313692661929
0.001012360810416059
0.001012311479443572
0.001012312431748037
0.001012358807110995
0.001012306793639202
0.00101230880781723
0.001012346220629799
0.001012287642704684
0.001012372502418403
0.001012183854285006
0.001012245476066986
0.001012385227262548
0.001012385813440234
0.001012374967493725
0.001012282915265499
0.001012368250368048
0.001012253703599163
0.001012156713657918
0.001012258182546678
0.001012361808965301
0.001012273622580449
0.001012363617711455
0.001012266149852522
0.001012278607455932
0.001012256452304057
0.001012154223670214
0.001012263629576309
0.001012439710906888
0.001012382428205372
0.001012302199891944
0.00101238423395549
0.001012259683971904
0.001413846741303586
0.001413816274533593
0.001413825933395543
0.001413889454586706
0.001413825980440247
0.001413831170233127
0.001413882622606093
0.001413823244116524
0.001413820046364201
0.001413880291865489
0.001413926793345477
0.001413904508470989
0.001413808388546971
0.001413899006431952
0.001413932959519664
0.001413844014662199
0.00141385909587069
0.001413905605444065
0.001413852546346251
0.001413850800841509
0.001413907543455309
0.00141384891677667
0.00141385208265724
0.00141390587472459
0.001413849395973427
0.001413850854846608
0.001413905456297317
0.001413847997009201
0.001413849272000188
0.001413903070635852
0.00141384264053806
0.001413844485574545
0.001413888896932545
0.001413819214823813
0.001413916953239197
0.001413821376085662
0.001413876930600851
0.001413931311516628
0.001413931738513941
0.001413925828016331
0.001413818392564781
0.001413911992486433
0.001413895378989394
0.001413793783882127
0.001413891192078329
0.001413909024614748
0.001413806939367221
0.001413905611514931
0.001413904038300309
0.00141391913061717
0.001413900051309647
0.001413792066949899
0.001413895504104294
0.001413990376412077
0.001413936825996442
0.001413841264914631
0.001413932313686493
0.001413903845648514
0.00184292788533345
0.001842892885620425
0.001842895190067107
0.001842960478221098
0.00184290050291483
0.001842901207584463
0.001842953335668038
0.001842897610688037
0.001842889029922894
0.001842946628213524
0.001842997495981141
0.001842982205313285
0.001842883962951133
0.001842967397199082
0.001842990685218798
0.001842901501923205
0.001842910617322221
0.001842959075028621
0.001842907440535254
0.001842901760921287
0.001842960422444985
0.001842903140051443
0.001842902723713764
0.001842958394175212
0.001842903472698785
0.001842901268719007
0.001842957786113626
0.001842901862403705
0.001842899450317422
0.00184295518670317
0.001842896193155648
0.001842893921519333
0.001842940668955032
0.001842868960059654
0.001842966832889474
0.001842894045472712
0.001842943988101786
0.001842984029800753
0.001842986120186434
0.001842985794883082
0.001842873802107935
0.001842962090029171
0.001842971303634753
0.001842868335662601
0.001842958401115699
0.001842965854159442
0.001842860274389566
0.001842953739681949
0.001842975376860886
0.001842992765272813
0.001842978873638684
0.001842867917289653
0.001842961343519525
0.001843044554202083
0.001843000205456755
0.00184289888716851
0.001842985640765404
0.001842979858612688
0.002299918007681103
0.002299880096056282
0.0022998750602282
0.002299938992793531
0.002299885692678952
0.002299881210902497
0.002299931916674095
0.002299882489844329
0.002299868530327231
0.002299920556677718
0.002299973731319976
0.002299967395746421
0.002299871050574546
0.002299942848953426
0.002299971806619133
0.002299888569091486
0.002299889531489786
0.002299936932110073
0.002299890986155431
0.002299880184975402
0.002299937370051105
0.002299886241749133
0.002299880663234005
0.002299935019050393
0.002299886201086231
0.002299878974905889
0.002299934199883898
0.002299884438141807
0.002299876990501086
0.002299931512151098
0.002299878753526999
0.002299871008420646
0.002299917567663259
0.00229984829072255
0.002299940125780474
0.002299876417596251
0.002299918976715593
0.002299959670342769
0.002299964171417521
0.00229997011856816
0.002299860018300845
0.00229993605310236
0.002299954791362188
0.002299855037504068
0.00229993297366012
0.002299947364931643
0.0022998445597189
0.00229992571898226
0.002299953417359204
0.002299972851907853
0.002299965644957994
0.002299856251117458
0.00229993457803843
0.002300018902729768
0.002299987427205275
0.0022998864331036
0.002299962327008839
0.002299963584079589
0.002794320431120694
0.002794281294814798
0.002794268765916674
0.002794328596978696
0.002794284392763637
0.002794274421283583
0.002794321794798943
0.00279428079008306
0.002794261715747193
0.002794305812735414
0.002794359133652723
0.002794363028223643
0.0027942724243487
0.002794329359449346
0.002794365229811847
0.002794292059047122
0.002794284156407365
0.002794328455623028
0.002794290447930615
0.002794274398072808
0.002794327685652965
0.002794285282436045
0.002794274195651814
0.002794325014544926
0.002794284790478259
0.002794272295857098
0.002794323948271863
0.002794282905989447
0.002794270190314859
0.002794321252541938
0.002794277433322818
0.00279426393019867
0.002794308529259725
0.002794244332067712
0.002794326403311508
0.002794271675948129
0.002794305397077186
0.002794347126603151
0.002794354561877471
0.00279436739132513
0.002794263815728836
0.00279432373661214
0.002794349082502363
0.002794256437948941
0.002794318796770551
0.002794342209746694
0.002794246369340883
0.002794311473802612
0.002794341392511716
0.002794362624286711
0.002794363264348467
0.002794259693314798
0.002794319241392403
0.002794403200439115
0.00279438690658254
0.002794290978578751
0.002794352247771135
0.002794358729174124
0.003339043646146512
0.003339005246288614
0.003338985273652556
0.00333903854871027
0.00333900488460989
0.003338989690637193
0.003339032019666162
0.003339000703644271
0.003338977312200251
0.003339011810258241
0.003339062771972922
0.003339077624452434
0.003338996115207693
0.003339036466550668
0.003339077139006213
0.003339017071896065
0.003339000662187842
0.003339040122990628
0.003339011227652498
0.003338990501400152
0.003339037899958626
0.003339005622883465
0.003338989428896624
0.003339034871937406
0.003339004581487748
0.003338987308963554
0.003339033511604596
0.003339002579630658
0.0033389851057747
0.003339030849502874
0.003338997491218877
0.003338978668704932
0.003339019790315632
0.003338962473773714
0.003339032306784561
0.003338988213296454
0.003339012290611437
0.00333905287903196
0.003339063412541471
0.003339083463020902
0.003338990255708565
0.003339032061633249
0.003339062788088184
0.003338980577822263
0.003339025365054254
0.003339056270614137
0.003338970796727952
0.003339017922930853
0.003339048404570612
0.00333907085434714
0.003339080250228348
0.003338986146718564
0.003339025178080499
0.003339104222660975
0.003339104508426706
0.003339017687676488
0.003339062487023727
0.00333907408720062
0.003944283303590958
0.003944247927848551
0.003944220954999478
0.003944265540308751
0.003944242719013925
0.003944223318507968
0.003944259090150702
0.003944237692658686
0.003944211513570083
0.003944235547882521
0.003944281247522532
0.003944306762877072
0.003944237402559659
0.003944261219069149
0.003944303456200469
0.003944258517082426
0.003944235165615177
0.003944268247388453
0.003944248664820609
0.003944224584257318
0.003944264403902523
0.003944242579133932
0.003944222456464186
0.003944260937168136
0.003944240870652855
0.003944220077077972
0.003944259218868677
0.003944238725363436
0.003944217775865861
0.003944256592596554
0.003944234131751202
0.003944211210958811
0.003944247448864555
0.00394419824974369
0.003944254271900679
0.003944221525666288
0.003944236408089152
0.003944273248544182
0.003944286634539722
0.003944313740070109
0.003944234308870351
0.003944257797061776
0.003944291714422344
0.003944222753839925
0.003944249708428444
0.003944285206356237
0.003944212952720879
0.00394424185732171
0.003944270928629732
0.003944293768798051
0.003944312104629423
0.003944230809028959
0.003944249752120943
0.003944318412807623
0.003944335979907905
0.003944261322136308
0.00394428963209414
0.003944305393054915
0.004612458547974273
0.004612428697465673
0.004612396196868879
0.0046124304298136
0.004612417333921055
0.004612395611721044
0.004612423622857243
0.004612411120102554
0.004612384512334233
0.004612398226437658
0.004612435518529751
0.004612469974566375
0.004612415270185689
0.004612424675942563
0.004612464305424795
0.00461243532884173
0.004612407960557576
0.004612433495263377
0.004612422270385454
0.004612397030035152
0.00461242797830987
0.004612415665714567
0.004612393681312717
0.004612423969278174
0.00461241317549427
0.004612390980412792
0.004612421817234777
0.004612410833868903
0.004612388559903202
0.004612419192255525
0.004612406768842986
0.004612381907364973
0.00461241198405568
0.0046123714854435
0.004612413300476802
0.004612391418793136
0.004612398195306099
0.004612429114745078
0.004612444651600709
0.004612477749287587
0.004612414826890199
0.004612422085367448
0.00461245561960568
0.00461240202001667
0.004612412938348324
0.004612448909486679
0.004612392067788069
0.004612404484196908
0.004612429636802696
0.004612451740442548
0.004612478115005375
0.004612412496815484
0.00461241352885215
0.00461246784850103
0.004612500637182371
0.004612440899476899
0.004612454660601626
0.004612472427435503
0.00533552264039881
0.005335500443730989
0.005335465116856067
0.005335488241978352
0.005335482309478265
0.005335460923698607
0.005335480500644359
0.005335474617041618
0.005335450512278788
0.00533545481720912
0.0053354817102039
0.005335521324407237
0.00533548261290944
0.005335481078648134
0.005335515007196546
0.00533550046965207
0.005335473146829309
0.005335490657021367
0.005335485727024497
0.00533546208668644
0.005335483612141614
0.005335478535102208
0.005335457527370976
0.005335478969769594
0.005335475204778482
0.005335454412141684
0.005335476303889147
0.005335472583266724
0.005335451842110712
0.005335473614113521
0.005335468952117573
0.005335445177501426
0.005335468115535544
0.005335436191967734
0.005335464590034105
0.005335451807092628
0.005335452308277407
0.005335476207198637
0.005335492441865643
0.005335529348085217
0.00533548449748341
0.005335479106723313
0.005335509261572874
0.005335471442438041
0.005335469682295882
0.005335502146978204
0.005335461419035787
0.00533546085443518
0.005335479627731043
0.005335499851273957
0.005335531922912957
0.005335483825080182
0.005335470364107318
0.005335509679243917
0.005335552260222002
0.005335509175958342
0.005335512140993977
0.005335529076400944
0.006095302521335784
0.006095288218946252
0.006095254271217587
0.006095266737015022
0.006095264943862743
0.006095245885604404
0.006095257505404686
0.006095255695435646
0.006095236024291645
0.006095232557035622
0.0060952495532655
0.006095288659720721
0.006095265535909391
0.006095257013085192
0.00609528422893758
0.006095280323697163
0.006095257436995115
0.006095267294282889
0.00609526639682919
0.006095246190098343
0.006095259098277792
0.006095258666972149
0.006095240587224243
0.006095253795346836
0.006095254647014498
0.006095236885615585
0.006095250551844941
0.006095251690710375
0.006095234113501657
0.006095247722360545
0.006095248338637029
0.006095227505945528
0.006095243495581958
0.006095219331700314
0.006095236333463017
0.006095230187718403
0.006095226016517854
0.006095243360590391
0.00609525851725153
0.006095296093984297
0.006095268772178959
0.006095255553162124
0.006095280827900426
0.006095257150943788
0.006095246363565934
0.006095273653386242
0.00609524739056289
0.006095237360167391
0.006095250186898813
0.006095266771312525
0.006095300816259632
0.006095269841534975
0.006095247858929104
0.006095273271513975
0.006095318495037742
0.006095292030452427
0.006095288616518429
0.006095303065504367
0.006866777363336986
0.00686676916658487
0.006866740758672057
0.006866744399682274
0.006866744226978281
0.006866728292217909
0.006866733477078892
0.006866733510572688
0.006866718750969746
0.006866709818786748
0.006866719180836744
0.006866752354084267
0.006866742075394954
0.006866731304491437
0.006866751351738937
0.006866754801252449
0.006866737773025135
0.006866741972385653
0.006866743289571741
0.006866727122230648
0.00686673328366787
0.006866735379538579
0.006866720720525431
0.00686672736382153
0.006866730710258439
0.006866716406308227
0.006866723549569971
0.006866727375371471
0.006866713400517296
0.006866720485503966
0.006866724222828461
0.006866706833399054
0.006866717071480712
0.006866699426912126
0.006866707715443564
0.006866705274949993
0.006866698751894621
0.006866710305351605
0.006866723036642882
0.006866757954055569
0.006866745242871424
0.006866729928092044
0.006866749475831664
0.006866736745346041
0.00686672176871831
0.006866742758328657
0.00686672776057399
0.006866712858961639
0.006866720514260277
0.006866732774803301
0.006866764471653546
0.006866747920392259
0.006866724262668772
0.006866738815395287
0.006866779276542497
0.006866767400845981
0.00686676189533867
0.006866773455825583
0.007623203322523251
0.007623199656112527
0.00762317886515256
0.007623176442063746
0.007623176399132203
0.00762316359370009
0.007623164110004448
0.007623164543600468
0.007623153977363917
0.007623142489086707
0.007623146135130304
0.007623170885253091
0.007623169023486118
0.007623159853533545
0.007623173152618713
0.007623181050237869
0.007623169508527264
0.007623170426140618
0.007623172557759303
0.007623160510363388
0.007623162091633968
0.007623164839625308
0.007623153740227421
0.007623155869960558
0.007623159656141788
0.007623148900725528
0.007623151586780276
0.007623155948761566
0.007623145674364446
0.00762314826698423
0.007623152848697393
0.007623139125681752
0.007623145049646044
0.007623132571035917
0.007623134906595825
0.007623133888524858
0.007623126692371833
0.007623133604199864
0.007623143283804421
0.00762317292619643
0.00762317045745088
0.007623157900798545
0.007623171820623812
0.007623166167533777
0.007623151548329357
0.007623166157166724
0.007623158547873241
0.007623143031443423
0.007623146698178422
0.007623154592815751
0.007623181041545535
0.007623174431116578
0.007623154818782633
0.007623161758925628
0.00762319339390948
0.007623192137426307
0.007623187833109613
0.00762319667809189
0.008341117770474252
0.008341117401204828
0.008341104054269431
0.008341098435867795
0.008341098044981088
0.008341088238079393
0.008341085629431871
0.008341085665591249
0.008341078247447325
0.008341066681897323
0.008341066103056594
0.008341082474713065
0.008341085354349801
0.008341078719448324
0.008341086951933981
0.008341096522599569
0.008341089721728381
0.00834108918784641
0.008341091182939048
0.008341083051785757
0.008341081920428511
0.008341084046268788
0.008341076369475261
0.008341075779328522
0.008341078576508643
0.00834107114485916
0.00834107121218737
0.008341074556676672
0.008341067760105942
0.008341067696636277
0.008341071357559253
0.008341061160395699
0.008341064172122154
0.008341055709329817
0.008341054322109444
0.008341053477787642
0.008341046328826972
0.008341049978118008
0.00834105658607912
0.008341079509057468
0.00834108386439973
0.008341075308662464
0.008341084941291191
0.008341083226478412
0.008341071641058025
0.008341080840674378
0.008341077094561873
0.008341064115677803
0.008341064960727233
0.008341069055170512
0.008341089102748082
0.00834108842026807
0.008341075018433721
0.008341077395311494
0.008341099552706569
0.008341105101579404
0.008341103035437267
0.008341109937991642
0.009003459029256478
0.009003461333233076
0.009003453503164139
0.009003447361369663
0.009003446616644976
0.009003439281092348
0.009003435256317515
0.009003434702152048
0.009003429174297996
0.009003419071292118
0.009003415266495788
0.009003425243893732
0.00900342987786109
0.00900342537510089
0.009003430366692881
0.009003439634459562
0.009003436361491864
0.00900343558506962
0.009003437313641487
0.009003432233499007
0.009003429769430638
0.009003431157637312
0.009003426106246113
0.009003423945984752
0.009003425739153175
0.009003420929274942
0.009003419350291241
0.009003421551750032
0.00900341730893052
0.009003415582440286
0.009003418198636376
0.009003410719663277
0.009003411909727388
0.009003406327422806
0.009003402765682452
0.009003401764772705
0.00900339500697676
0.009003396524092495
0.009003400411862034
0.009003416568143385
0.009003424838300366
0.009003419739157595
0.009003426624726389
0.009003427215346888
0.009003418866670542
0.009003424308897208
0.00900342248032843
0.009003412835747201
0.009003411966468765
0.009003413496758088
0.009003427292382292
0.009003430208277149
0.009003421737654097
0.009003422086597608
0.009003436415466443
0.009003445407639175
0.009003445321699367
0.009003451230366182
0.009600246558116747
0.00960025072425758
0.009600246710073862
0.009600241650050235
0.009600240798262679
0.009600235459908646
0.009600231120411725
0.009600230137514036
0.009600225747849092
0.009600217627867507
0.009600211971551951
0.009600217387363946
0.009600221796521514
0.009600218849407668
0.009600221981918188
0.009600229753976753
0.009600228871896311
0.009600228482445385
0.009600229955711517
0.009600227020218864
0.009600224264970085
0.009600224996747382
0.009600221767922622
0.009600218988457953
0.009600219911724057
0.009600216850262265
0.009600214503371023
0.009600215719841383
0.009600213156878042
0.009600210605369688
0.009600212212574967
0.009600206779031586
0.009600206915787153
0.009600203192368761
0.009600198678879835
0.009600197434093309
0.009600191263899804
0.009600191371658816
0.009600193138313456
0.009600203569094853
0.009600213102149847
0.00960021063657512
0.009600215684031193
0.009600217783946803
0.009600212017475681
0.009600215175124322
0.009600214278778793
0.009600207547999765
0.009600206036334998
0.00960020605276618
0.009600214696377504
0.009600219185235603
0.009600214369631297
0.009600213992951313
0.009600222882142772
0.009600232645345538
0.009600234030286391
0.009600239716157427
0.01012743089704811
0.01012743610507232
0.0101274345513471
0.01012743124639278
0.01012743054969962
0.01012742684306248
0.01012742289022085
0.0101274217318597
0.01012741808569159
0.01012741188121934
0.01012740560583343
0.010127408000686
0.01012741120058179
0.01012740924696518
0.01012741127350584
0.0101274173098148
0.01012741783932486
0.01012741794083104
0.01012741924112315
0.01012741764170916
0.01012741524687638
0.01012741549699568
0.01012741341113645
0.01012741068372375
0.01012741096316593
0.01012740894361042
0.01012740645461612
0.01012740691765415
0.01012740532434082
0.01012740253940303
0.01012740330725352
0.01012739942157809
0.01012739902651423
0.01012739628297175
0.01012739163238568
0.01012739021433999
0.01012738482590173
0.01012738391195394
0.0101273842346213
0.01012739031123071
0.01012739922370723
0.0101273985084364
0.01012740235656506
0.01012740520623967
0.01012740141287363
0.01012740327033833
0.0101274028314405
0.01012739830480046
0.01012739700427271
0.01012739599721682
0.01012740110874021
0.0101274056780453
0.01012740318916808
0.01012740283530063
0.01012740832483088
0.01012741726507261
0.01012741955220776
0.01012742524199402
0.01058497197745237
0.01058497756140679
0.0105849774752007
0.01058497595217562
0.01058497559239865
0.01058497324673697
0.01058497005971094
0.01058496894445939
0.01058496590017556
0.01058496131027888
0.01058495533697888
0.01058495586090715
0.01058495755507501
0.01058495619407988
0.01058495750394546
0.01058496181731887
0.01058496307232768
0.0105849636210479
0.01058496485337642
0.01058496397091468
0.01058496226147652
0.01058496223333405
0.01058496076790535
0.01058495849965219
0.01058495840008781
0.01058495688930505
0.01058495464820317
0.01058495463030752
0.01058495347828889
0.01058495083204067
0.01058495097005347
0.0105849480416455
0.01058494742805935
0.01058494527698265
0.01058494092585513
0.01058493944687132
0.01058493473989153
0.01058493336614386
0.01058493261380127
0.01058493586882131
0.01058494298327902
0.01058494331995078
0.01058494638614771
0.01058494933084018
0.0105849469432795
0.01058494810100714
0.01058494790557681
0.01058494495281859
0.01058494405441486
0.0105849425882089
0.01058494546587387
0.01058494938520562
0.01058494822386493
0.01058494818177604
0.01058495174324107
0.01058495916139905
0.01058496182458194
0.01058496741032413
0.01097500617746892
0.01097501162842981
0.01097501278829952
0.01097501232509247
0.01097501239064868
0.01097501115623494
0.0109750088888124
0.01097500796327138
0.01097500549376107
0.0109750021850064
0.01097499714056778
0.01097499647695183
0.01097499698787561
0.0109749958945952
0.01097499666698431
0.01097499950070657
0.01097500096199428
0.01097500172245985
0.01097500288416523
0.01097500244813507
0.01097500134557824
0.01097500123563002
0.01097500016399395
0.01097499839237914
0.01097499815832781
0.01097499695279965
0.0109749950150909
0.010974994805431
0.01097499385271964
0.01097499155959231
0.01097499132805843
0.01097498889460106
0.0109749881818492
0.01097498643526273
0.01097498259753096
0.01097498114560655
0.01097497706195376
0.01097497545619434
0.01097497397122061
0.01097497558269672
0.01097498038675582
0.01097498130390148
0.01097498389059084
0.01097498650302755
0.0109749850496748
0.01097498586960535
0.01097498581234075
0.01097498393397186
0.01097498339801697
0.01097498189171201
0.01097498344781459
0.01097498647098622
0.01097498598766449