/*--------------------------------*- C++ -*----------------------------------*\
| =========                 |                                                 |
| \\      /  F ield         | OpenFOAM: The Open Source CFD Toolbox           |
|  \\    /   O peration     | Version:  v1812                                 |
|   \\  /    A nd           | Web:      www.OpenFOAM.com                      |
|    \\/     M anipulation  |                                                 |
\*---------------------------------------------------------------------------*/
FoamFile
{
    version     2.0;
    format      ascii;
    class       volScalarField;
    location    "10000";
    object      nuTilda;
}
// * * * * * * * * * * * * * * * * * * * * * * * * * * * * * * * * * * * * * //

dimensions      [0 2 -1 0 0 0 0];


internalField   nonuniform List<scalar> 
3770
(
0.000500004673085092
0.0004999957380033765
0.0004998549587057523
0.0004997840359898906
0.000499969933819101
0.0004998558826367813
0.0004997840554621105
0.0004999697187042612
0.0004998757552408915
0.0004997960167786667
0.0004999106382094427
0.0004998326733783379
0.0004999431022437435
0.0004999959738235696
0.0004947193384742133
0.0004945481865891415
0.000494656457563558
0.0004947275986407548
0.0004945482189973406
0.0004946564368759622
0.0004947276138796053
0.0004945482119559807
0.0004946564408685354
0.000494727608851757
0.0004945482203974872
0.0004946564402437267
0.0004947276090835478
0.0004945482112238707
0.0004946564360691083
0.0004947276165413647
0.0004945488557615958
0.0004946564406194723
0.0004947043047493174
0.0004945676346804345
0.0004945567561370734
0.0004999352331737997
0.0004999932244660547
0.000494721027654637
0.0004946752430154276
0.00049467207677266
0.0004945646659922849
0.0004945535922947273
0.0004998025876450767
0.0004999426963510152
0.0004999953304819209
0.0004946962718428103
0.0004945679872818875
0.0004945569451025849
0.0004997899587632867
0.00049990877319522
0.0004998288911195174
0.0004999415394723144
0.0004999910494965094
0.0004946816459870942
0.000494674660958201
0.0004945648758236524
0.000494557409958844
0.0004999126166283989
0.0005551260013776386
0.0005554541997405881
0.0005534921379620948
0.0005523525391323247
0.0005545378108891098
0.0005535162136238623
0.0005523526079977503
0.0005545466888617767
0.0005538202348153637
0.0005525196097149156
0.000553582031383067
0.0005531529123024529
0.0005546991431662358
0.000551301094378968
0.000480941336092734
0.0004799769990530245
0.0004804198252026557
0.0004810368558673276
0.0004799780832407717
0.0004804197233862928
0.0004810368631673251
0.000479978202857256
0.0004804197427473554
0.000481036959801825
0.0004799782492302566
0.0004804198107585317
0.0004810369608692825
0.0004799782770104443
0.0004804198477895821
0.0004810370290925988
0.0004799784055853829
0.0004804200974301447
0.0004810338578864073
0.0004798999599051371
0.0004817335946038546
0.0005546282543379193
0.0005512111299362731
0.0004810359300703965
0.0004811553679874576
0.0004810871392342738
0.0004799028040851851
0.0004816115201543853
0.000552467050373479
0.0005546999238208877
0.0005513127352237548
0.0004809291843992632
0.0004799009541173546
0.0004816687936015769
0.00055233788845681
0.0005535830352304373
0.0005531511058938412
0.0005547026037663585
0.0005511026386036248
0.0004811861592346024
0.0004810848441934654
0.0004798994476047423
0.0004816840537704345
0.0005537234141158738
0.0008445316020375154
0.000844678577636524
0.0008435447225750126
0.0008426707120250567
0.000844385093724027
0.0008435600636316974
0.0008426696687779007
0.0008443882384775917
0.0008436670770590383
0.0008426741039106564
0.0008430239796183435
0.0008429195017362288
0.0008445022679891511
0.0008418269095922574
0.0007954589052353803
0.0007933256869048333
0.0007944182913325055
0.0007956006647843844
0.0007933325127575805
0.0007944173779565364
0.000795600779564988
0.000793332708095122
0.0007944175810337187
0.0007956009955212984
0.0007933327657330624
0.0007944176604871434
0.0007956009096178373
0.0007933328996317717
0.0007944177529981826
0.0007956010995513466
0.0007933331417418293
0.0007944181738141652
0.0007955937766830803
0.0007931725470488201
0.0007970992048779818
0.0008444195426485953
0.0008417165801191192
0.0007957362372654086
0.0007953097280482416
0.0007953591204002762
0.0007931759657772704
0.0007967125979225701
0.0008428180399571397
0.0008445019743961002
0.0008418363311290753
0.0007954343236374667
0.0007931695086752404
0.0007968917464891338
0.0008425996795635606
0.0008430231117962061
0.0008429175862387046
0.0008445004242579358
0.0008416322695022867
0.0007954059970301739
0.0007953280654796641
0.0007931730611047787
0.000797003136067842
0.000844044713801422
0.001158757628586533
0.001158811537321994
0.001158340989538471
0.001158001678609914
0.001158713255097521
0.001158348703653101
0.001157999511195071
0.001158713188924404
0.001158384320852795
0.001157998798200561
0.001158137686513209
0.001158088783154011
0.001158752153323844
0.001157732649836373
0.001142080673612557
0.001141283386815644
0.001141694544863794
0.001142128163700334
0.001141290310356417
0.001141692182366646
0.001142129046290084
0.001141289862107716
0.001141692716874186
0.001142128973920878
0.001141290085601063
0.001141692633167736
0.001142128962028301
0.001141289918414889
0.001141692405807866
0.001142128528621267
0.001141288792374383
0.00114169133546638
0.001142121672059741
0.001141224632005989
0.001142593216959499
0.001158724858325496
0.001157676062207
0.001142182946056954
0.001142043735497525
0.001142053079070145
0.001141222426699218
0.001142450618805962
0.001158068067867759
0.001158748174975224
0.001157735361969241
0.001142064715483762
0.001141216688538139
0.001142515355578063
0.001157978138694691
0.001158132656589956
0.001158085851042828
0.00115874532603905
0.001157647865312883
0.001142090937168699
0.001142042567335045
0.001141225874347009
0.001142563798820116
0.001158601786301134
0.001484501593442146
0.00148450593607215
0.001484363292990268
0.001484286623850869
0.001484482920042822
0.001484367361266773
0.001484283303106656
0.001484481493860046
0.001484374358997446
0.001484298320545265
0.001484369061923218
0.001484322358909711
0.001484484088007644
0.001484228649183621
0.001479638476212724
0.001479358482693585
0.001479499439109169
0.001479651306559765
0.001479366699381356
0.0014794949744239
0.001479652699806825
0.001479365534907004
0.001479495840699775
0.001479652258223729
0.001479365897248832
0.001479495510048741
0.001479652217631828
0.001479365437819707
0.001479494955088103
0.001479651232439327
0.001479362931978807
0.001479493378465217
0.001479643129354957
0.001479334968635382
0.001479780920340621
0.001484492353470218
0.001484202073312154
0.001479672934621639
0.001479642252700763
0.001479635412098452
0.001479329735931965
0.00147973550573113
0.001484315756246008
0.001484476642409133
0.001484226981432039
0.001479623428141852
0.001479323826098727
0.001479753986615329
0.001484307776140356
0.001484361187086782
0.001484318421937934
0.001484473929939037
0.001484202478816979
0.001479667556406557
0.001479631975237406
0.001479338924953864
0.001479775515028326
0.001484491920218634
0.001805266347477581
0.001805257970605836
0.001805222869034656
0.001805231085102887
0.001805258553258604
0.001805226142900946
0.00180522687188465
0.001805256727901942
0.001805224137505345
0.001805233057916886
0.001805277291877249
0.001805246192626237
0.001805248341344678
0.001805225580260352
0.001803870372630649
0.00180374292211328
0.001803798981461263
0.001803867103410374
0.001803753034825311
0.001803792112315125
0.001803868121279591
0.001803751252014267
0.001803793165569019
0.001803867356072796
0.0018037516833834
0.001803792607048765
0.001803867247856337
0.001803750976755114
0.00180379178858327
0.001803865875585318
0.00180374724115645
0.0018037908473871
0.001803857126222279
0.001803727622186127
0.001803908766844686
0.001805262474393423
0.001805207144552367
0.001803884194104297
0.001803876291846689
0.001803866743438958
0.001803721143652588
0.001803892680582572
0.001805243258124799
0.001805238844240953
0.001805221861790205
0.001803854038065447
0.001803714515253206
0.001803896176438843
0.001805247966609198
0.001805268921102234
0.001805241673030155
0.001805236391019958
0.001805217612984345
0.00180390920963798
0.001803869782555448
0.001803735249434494
0.001803912319307898
0.001805301823535823
0.002120229744555606
0.002120213971080221
0.002120210643992007
0.002120246319399375
0.002120220557421683
0.002120214212464654
0.002120241493354431
0.002120218600757036
0.00212020795332352
0.002120243248887094
0.002120280131690187
0.002120256810059435
0.002120207757013587
0.00212025186600587
0.002119851783962692
0.002119765610236599
0.002119793156135069
0.002119838308475513
0.002119773999897415
0.002119786871429127
0.002119839914965844
0.002119771695207599
0.002119787962841591
0.002119838867304504
0.002119772130034552
0.002119787205459574
0.002119838666504402
0.002119771225693693
0.002119786176605767
0.002119837035519719
0.002119767343599265
0.002119783427667188
0.00211982685443522
0.002119750060241746
0.002119856335636678
0.00212022063041111
0.002120234991622685
0.002119856279736843
0.002119854096011998
0.002119847018367533
0.002119746092822683
0.002119848946976575
0.002120252743166126
0.002120197368331207
0.002120246860673347
0.002119834224172418
0.002119738494274412
0.002119847050963523
0.002120259992092186
0.002120272696154631
0.002120252858425904
0.002120195369630792
0.002120248235143427
0.002119894010176125
0.00211985228023458
0.002119762013208277
0.002119864458176883
0.002120275247269423
0.002435044851862743
0.002435023539739937
0.00243502638846515
0.002435071338425195
0.002435030496219099
0.002435030470407029
0.002435066148290782
0.002435028449094266
0.002435022366873032
0.002435064596168944
0.002435101220241419
0.002435083655541869
0.002435017526549395
0.002435078017579156
0.002434967912454501
0.00243489402683298
0.002434909577840348
0.002434948606105583
0.002434900542094371
0.002434903218148131
0.002434950089754582
0.0024348977710761
0.002434904200244446
0.002434948803346509
0.002434898139660914
0.00243490326625823
0.002434948487451708
0.002434897073674891
0.002434902059971437
0.002434946669736334
0.002434892972937782
0.002434898456198977
0.002434935882199683
0.002434874725849206
0.002434958841064884
0.002435027859246265
0.002435060932656771
0.002434967347726366
0.002434967086878182
0.002434963152858674
0.002434874054440282
0.002434954036356207
0.002435077536340615
0.002435006386798599
0.002435072065627696
0.00243494957028103
0.002434865322632909
0.002434949660435596
0.002435083326370362
0.002435095380636952
0.002435080318916167
0.002435005122396045
0.002435074523449927
0.002435010333201189
0.002434971122775133
0.002434891533077194
0.002434970056571832
0.002435088997569607
0.002758471124613752
0.002758445700081412
0.002758446482928947
0.002758494491697359
0.002758451582412067
0.002758451004552444
0.002758489156156802
0.002758449457749362
0.002758441988660038
0.002758484231859702
0.002758522667927068
0.002758511033733637
0.002758439247470351
0.002758499660575783
0.002758480811062396
0.002758412365129496
0.002758420290651261
0.002758457587310453
0.002758416765907505
0.002758413631136877
0.002758458614639007
0.002758413567746761
0.002758414370772718
0.002758457082293682
0.002758413790939218
0.002758413269571458
0.002758456628325972
0.002758412584793162
0.002758411907771135
0.002758454680104154
0.002758408328361957
0.002758407765290178
0.002758443802669074
0.002758387899623162
0.002758463701027827
0.002758446749910784
0.002758482235444421
0.002758476043000124
0.002758477450210383
0.002758477397366405
0.002758391503824693
0.002758459865845519
0.002758503167592928
0.002758427509831197
0.002758492864294496
0.002758462159465202
0.00275838136964172
0.002758453730334457
0.002758505969742275
0.002758519121186213
0.002758508562839701
0.002758427232071722
0.002758494892533807
0.002758520835352411
0.002758488042046519
0.002758410328139689
0.002758477612572452
0.002758511182930159
0.003102760010413942
0.003102731587554268
0.003102727646334465
0.003102775932026737
0.003102736024825499
0.00310273230509283
0.003102770576861389
0.003102733603799913
0.003102722708764874
0.003102761992862863
0.003102802439003852
0.003102797580784046
0.003102724880743053
0.003102778867983188
0.003102791455241987
0.003102727906649409
0.003102728931724979
0.003102765172454499
0.003102729709192351
0.003102721815937297
0.003102765513051262
0.003102726111507515
0.003102722188342206
0.003102763721859031
0.00310272607492079
0.003102720902384513
0.003102763100110625
0.003102724737438473
0.003102719397346282
0.00310276105990424
0.003102720418908112
0.003102714851174678
0.003102750473840962
0.003102697322671567
0.003102767700699061
0.00310272888727357
0.003102760864617384
0.003102782283394854
0.003102785712927492
0.003102790310569554
0.003102706216159593
0.00310276451200799
0.003102788150276205
0.003102712718169807
0.003102771311420948
0.003102772915348398
0.003102694474448888
0.003102756689275206
0.003102787052182624
0.003102801777427016
0.003102796267465614
0.003102713653334567
0.003102772494490902
0.003102827179633434
0.00310280342619188
0.003102726299695032
0.00310278446779969
0.003102795424412614
0.003483555044044219
0.003483524583720253
0.00348351478041223
0.003483561506669209
0.003483527090467288
0.003483519193841734
0.003483556200542322
0.003483524269889239
0.003483509264445292
0.003483543713887601
0.003483585444509246
0.0034835884713213
0.003483517668596402
0.003483562086116615
0.003483587820112909
0.003483530533088182
0.003483524442512994
0.003483559156838833
0.00348352927448518
0.003483516800562145
0.003483558562185463
0.003483525237061656
0.003483516650508253
0.003483556466404974
0.003483524850660532
0.00348351516222642
0.003483555632200741
0.003483523377876939
0.003483513517161115
0.003483553524320299
0.003483519095442058
0.00348350861275158
0.003483543577261035
0.003483493258740545
0.003483557613144554
0.00348351695158943
0.00348354353186407
0.003483573690464059
0.003483579511451541
0.003483589591971307
0.00348350848590208
0.003483555494571214
0.00348357763412642
0.00348350518274876
0.003483553757749087
0.00348356984566539
0.003483494824007101
0.003483545905732621
0.003483571605691676
0.003483588193906981
0.003483588678474474
0.003483507724152443
0.003483554106754144
0.003483617559663862
0.00348360486085654
0.003483529758339645
0.003483577782738327
0.003483585398995483
0.003917945582565402
0.003917914435064015
0.003917898174538127
0.003917941460446015
0.003917914146734158
0.00391790175762735
0.003917936164054375
0.003917910740945498
0.003917891697143228
0.00391791973730022
0.003917961172332617
0.003917973241472563
0.003917906966749099
0.003917939729022747
0.003917972245425427
0.003917923454132606
0.003917910144882287
0.003917942236967709
0.003917918708085257
0.003917901878644066
0.003917940434610073
0.003917914152957391
0.003917901013236884
0.003917937968565298
0.003917913306348703
0.003917899288170646
0.003917936862459111
0.003917911680211733
0.00391789749892903
0.003917934699227145
0.003917907542501952
0.003917892260176766
0.003917925712536231
0.003917879116173553
0.00391793595543973
0.003917900455733287
0.003917920218835447
0.003917952540658499
0.003917961136733972
0.003917977463250164
0.00391790169195565
0.003917935738284186
0.003917961237151526
0.00391789435082219
0.003917930645968474
0.003917955319944423
0.003917885863104448
0.003917924240487484
0.00391794953481456
0.003917967758516903
0.003917975395574048
0.003917898876467946
0.003917930501836975
0.003917994310930666
0.003917994582274619
0.003917924014977978
0.003917960441661536
0.003917970482639652
0.004420423125901508
0.004420393206782694
0.0044203703153981
0.004420408069037716
0.004420388763747978
0.004420372314137703
0.0044204026146568
0.004420384498826441
0.004420362315495663
0.004420382674566237
0.004420421382676211
0.004420442990430084
0.004420384208085187
0.004420404377278544
0.004420440028427701
0.0044204020005329
0.004420382239518581
0.004420410260710076
0.004420393665058134
0.004420373273147298
0.004420407011235273
0.004420388513944851
0.004420371477093399
0.00442040407005641
0.004420387066296581
0.004420369460544004
0.004420402614500398
0.004420385250557975
0.004420367513081211
0.004420400390973881
0.00442038135832789
0.004420361946505262
0.004420392652527316
0.004420351012298236
0.004420398471362046
0.004420370644404001
0.004420383530012025
0.004420414465151351
0.004420425805777804
0.004420448786365724
0.004420381542375302
0.004420401452886645
0.004420430279929445
0.004420371821190492
0.004420394572737894
0.004420424602338706
0.004420363439120991
0.004420387949219441
0.004420412668663705
0.00442043200730241
0.004420447537942429
0.004420378636988825
0.004420394619051329
0.004420452734434208
0.004420467630450123
0.004420404438171318
0.004420428389520261
0.004420441861543222
0.004997733721603945
0.004997707493389739
0.004997678844722897
0.004997708963534075
0.004997697453122982
0.004997678327911587
0.004997702980477556
0.00499769197970323
0.004997668560210331
0.004997680630961694
0.004997713447361932
0.004997743766738082
0.004997695597858309
0.004997703875043088
0.004997738713234516
0.004997713246966389
0.004997689174898723
0.004997711644022093
0.004997701763300074
0.004997679552729668
0.004997706793144005
0.00499769595386822
0.004997676610280822
0.004997703261435109
0.004997693761958065
0.00499767423263149
0.004997701367508552
0.004997691702616215
0.004997672103912698
0.004997699058430081
0.004997688124024511
0.004997666245376915
0.004997692720672732
0.004997657111009207
0.004997693913206278
0.004997674522746287
0.004997680700793007
0.004997707759466051
0.004997721436703665
0.004997750582158221
0.004997695241588363
0.004997701643325401
0.004997731161194842
0.004997683952152675
0.004997693498292207
0.00499772519357911
0.004997675201817206
0.004997686150403048
0.00499770829045292
0.004997727737839795
0.00499775094952029
0.00499769316785501
0.004997694027900119
0.004997741863482408
0.004997770730269103
0.004997718197272016
0.00499773028013106
0.004997745931342165
0.005644825098439209
0.005644804961771601
0.005644772827581771
0.00564479383428034
0.005644788452081152
0.005644769016791483
0.005644786805676398
0.005644781459940248
0.005644759556319322
0.005644763469673363
0.005644787904547094
0.005644823894690404
0.005644788695977719
0.005644787307882931
0.005644818124560865
0.005644804933025161
0.005644780116937391
0.005644796026036215
0.005644791545115655
0.005644770065911347
0.005644789628687673
0.005644785013858707
0.005644765926689665
0.005644785407376189
0.005644781987084828
0.005644763095520953
0.005644782985114975
0.005644779606255527
0.005644760761410431
0.005644780541886075
0.005644776305631888
0.005644754702552172
0.005644775552001195
0.005644746572185484
0.00564477236412498
0.005644760631072868
0.005644761274239695
0.005644782890002333
0.005644797626022706
0.005644831175898537
0.005644790454340082
0.005644785560039839
0.005644812951403488
0.005644778558929814
0.0056447769167493
0.005644806454582611
0.00564476947221884
0.005644768972855311
0.00564478602352918
0.005644804400740331
0.005644833542080918
0.005644789805336054
0.005644777544798142
0.005644813300635723
0.005644851999888454
0.005644812885702664
0.005644815555419366
0.005644830935935065
0.006344201045921451
0.006344187745798199
0.006344156113557096
0.006344167716851404
0.006344166051747339
0.006344148302540163
0.006344159123781913
0.006344157438419554
0.006344139119343221
0.006344135891754682
0.006344151719353888
0.006344188132599564
0.006344166581783781
0.00634415864950278
0.00634418398798453
0.006344180362997927
0.006344159056396588
0.006344168235714061
0.00634416739875629
0.006344148582259531
0.006344160605679796
0.006344160203017522
0.006344143366759935
0.00634415566503109
0.006344156458789123
0.00634413991927528
0.006344152644600792
0.006344153706609743
0.006344137338628285
0.006344150010293211
0.006344150584049676
0.006344131183448162
0.006344146079643569
0.006344123596333481
0.006344139418978579
0.006344133610859439
0.0063441298572773
0.006344145946348002
0.006344160044099577
0.006344195050503288
0.006344169630165264
0.006344157324554499
0.006344180851487144
0.006344158781249333
0.006344148705901715
0.006344174148380896
0.006344149708926171
0.006344140379624084
0.006344152316336163
0.006344167762044485
0.006344199466193546
0.006344170596566995
0.006344150105405137
0.006344173794442852
0.006344215916653394
0.006344191295929066
0.006344188098631818
0.006344201546697626
0.007069432313282296
0.007069424548795953
0.007069397610369475
0.007069401058123098
0.007069400897202374
0.007069385790760408
0.007069390706052973
0.007069390737924734
0.007069376745888971
0.007069368279242393
0.007069377154738508
0.007069408598522278
0.007069398842171993
0.007069388635069619
0.007069407638090734
0.007069410913808155
0.007069394775982083
0.0070693987569675
0.007069400004578239
0.007069384678933931
0.007069390521993308
0.007069392508357549
0.007069378611523498
0.007069384908284287
0.007069388081151946
0.0070693745214482
0.007069381292490613
0.007069384920319798
0.007069371672595521
0.007069378388227278
0.007069381930981776
0.007069365445900671
0.007069375156676868
0.007069358443115632
0.00706936628935787
0.007069363914987835
0.007069357827051933
0.00706936874129882
0.007069380793103737
0.007069413904289257
0.007069401871543901
0.007069387355309328
0.007069405878407609
0.007069393794658371
0.007069379577602003
0.007069399494428072
0.007069385289843792
0.007069371172052526
0.007069378423805135
0.007069390047715057
0.007069420095598038
0.007069404386422046
0.00706938194729889
0.007069395758267636
0.00706943412152077
0.007069422882220012
0.007069417651590398
0.007069428603352108
0.007791265999375245
0.007791262481575755
0.007791242520481906
0.007791240191575692
0.007791240152284198
0.007791227859882142
0.007791228355407119
0.007791228771808686
0.007791218629088
0.007791207601895527
0.007791211102146129
0.007791234857206836
0.007791233061822204
0.007791224262238085
0.007791237027851955
0.007791244611962283
0.007791233535933575
0.007791234416890556
0.007791236462101282
0.007791224898234076
0.007791226417435933
0.007791229055024942
0.00779121840006836
0.007791220443820256
0.00779122407857978
0.007791213754337253
0.007791216332342961
0.00779122052019912
0.007791210657673633
0.007791213145898798
0.007791217543798351
0.007791204370918692
0.007791210061439311
0.007791198091540227
0.007791200324727081
0.00779119931015175
0.007791192460864239
0.00779119907402892
0.007791208352537818
0.007791236814413913
0.007791234457131942
0.007791222404699466
0.007791235760957424
0.007791230323191216
0.007791216278067436
0.007791230313119812
0.007791223018279158
0.007791208130085019
0.007791211645940604
0.007791219224785607
0.007791244613146347
0.007791238254302607
0.007791219421830883
0.007791226092299241
0.007791256465240773
0.007791255272662004
0.007791251133083142
0.00779125961830619
0.008483562794484081
0.008483562436840801
0.008483549511603575
0.008483544069515622
0.008483543692200543
0.008483534196187564
0.008483531670001434
0.008483531705156687
0.008483524522349328
0.008483513324017556
0.008483512763656272
0.008483528613702206
0.008483531396541568
0.008483524973510102
0.008483532946086059
0.00848354221443277
0.008483535631202296
0.00848353511442048
0.008483537045545589
0.008483529172807498
0.008483528078162619
0.008483530136498498
0.008483522702708524
0.008483522130841477
0.008483524839538972
0.008483517643576343
0.008483517708546454
0.008483520947458635
0.008483514366394386
0.008483514304650719
0.008483517849340675
0.00848350797576374
0.008483510895060435
0.008483502706500109
0.008483501355671655
0.008483500513990338
0.008483493628854203
0.00848349715142965
0.008483503539836085
0.008483525740861329
0.008483529967023555
0.008483521683560962
0.008483531006400121
0.008483529337730816
0.008483518112559239
0.00848352702718759
0.008483523406852605
0.008483510844387631
0.00848351166038927
0.008483515624693575
0.008483535036192025
0.008483534365971277
0.008483521385952595
0.008483523691609219
0.008483545151475418
0.008483550533606476
0.008483548529752546
0.008483555208978363
0.009126937714150369
0.009126939958002572
0.009126932329415763
0.009126926345341917
0.009126925620530297
0.00912691847447347
0.009126914553381819
0.009126914013670901
0.009126908628771073
0.009126898787150384
0.009126895080674
0.009126904798348628
0.009126909309026468
0.009126904923533402
0.009126909787399416
0.009126918816156442
0.009126915629026127
0.00912691487280327
0.009126916556149139
0.009126911607750204
0.00912690920782692
0.009126910560113279
0.009126905638885527
0.00912690353412262
0.009126905281089285
0.009126900595507671
0.009126899057178464
0.009126901202037928
0.009126897068843957
0.009126895386784968
0.009126897935246611
0.009126890649832823
0.009126891811394151
0.009126886377177519
0.009126882901857512
0.009126881911430631
0.009126875351426393
0.009126876823153152
0.009126880603858111
0.009126896345699629
0.009126904408568226
0.009126899442312821
0.009126906146799221
0.009126906716199389
0.009126898578421425
0.009126903884370511
0.009126902108008232
0.009126892716693376
0.009126891868003275
0.009126893357976132
0.009126906797159932
0.009126909631510284
0.009126901377232993
0.009126901719710468
0.009126915682448774
0.009126924446876029
0.009126924362337965
0.009126930116096187
0.009709600919095503
0.009709604994051378
0.0097096010664915
0.009709596115653909
0.009709595282729166
0.009709590060068551
0.009709585814331224
0.009709584852829852
0.009709580558463883
0.009709572614761538
0.009709567080997556
0.009709572377761402
0.00970957668887109
0.0097095738062748
0.009709576872366956
0.009709584475687597
0.009709583613641689
0.009709583232783713
0.00970958467367415
0.009709581802282506
0.009709579107058096
0.009709579822967556
0.009709576663849877
0.009709573944401246
0.009709574847726566
0.009709571852652678
0.009709569556545228
0.009709570746809608
0.009709568239406625
0.009709565743106271
0.009709567315341016
0.009709561999945401
0.009709562135430201
0.009709558495151555
0.009709554075123122
0.009709552847581184
0.009709546825714531
0.009709546928240232
0.009709548652141449
0.009709558858413608
0.00970956818945237
0.009709565778148768
0.009709570714002967
0.00970957276394748
0.009709567119249462
0.009709570211052652
0.009709569337806723
0.009709562756304822
0.009709561276422094
0.009709561291386698
0.009709569747469437
0.009709574134619056
0.009709569421545784
0.009709569054359711
0.00970957775445015
0.009709587310433757
0.009709588664653115
0.009709594225023264
0.01022617639539572
0.01022618150523238
0.01022617998055311
0.01022617673690891
0.0102261760535211
0.01022617241613661
0.01022616853690485
0.0102261674002568
0.01022616382237951
0.01022615773407063
0.01022615157588456
0.01022615392468043
0.01022615706306402
0.01022615514643237
0.01022615713634417
0.01022616305940981
0.01022616357968864
0.01022616367939555
0.01022616495500682
0.0102261633858996
0.01022616103600808
0.01022616128144434
0.01022615923434068
0.01022615655771753
0.01022615683196984
0.01022615485019054
0.01022615240764694
0.01022615286212866
0.0102261512985948
0.01022614856564658
0.01022614931902029
0.0102261455063202
0.01022614512012899
0.01022614242919066
0.01022613786236144
0.01022613646430824
0.01022613118611704
0.01022613028754614
0.01022613060102825
0.01022613656516319
0.01022614531453549
0.0102261446134287
0.01022614838797081
0.01022615118107675
0.01022614745640337
0.01022614928085577
0.01022614885281521
0.01022614441349482
0.01022614313672939
0.01022614214740015
0.01022614716311621
0.01022615164398706
0.01022614920030601
0.01022614885375319
0.01022615424351024
0.0102261630199126
0.01022616526389205
0.01022617084571056
0.01067568310074808
0.01067568859174436
0.01067568850709493
0.01067568700887886
0.01067568665519207
0.01067568434825409
0.01067568121361913
0.0106756801168225
0.01067567712295013
0.01067567260900811
0.01067566673423698
0.01067566724841498
0.01067566891344434
0.0106756675751901
0.01067566886456125
0.01067567310618892
0.01067567434093752
0.01067567488068778
0.01067567609233743
0.01067567522486524
0.01067567354379653
0.01067567351614393
0.01067567207471
0.01067566984376274
0.01067566974584326
0.01067566826004754
0.0106756660559032
0.01067566603836776
0.01067566490536131
0.01067566230278363
0.01067566243839779
0.01067565955868416
0.01067565895645905
0.01067565684159455
0.0106756525598094
0.01067565110104247
0.01067564647780431
0.01067564512630537
0.01067564438407907
0.01067564758572094
0.0106756545857
0.01067565491736729
0.01067565793161533
0.01067566082517636
0.01067565847545991
0.01067565961511006
0.01067565942493874
0.01067565652315974
0.01067565563955251
0.01067565419644212
0.01067565702619214
0.01067566087852613
0.01067565973548135
0.01067565969428871
0.01067566319926606
0.0106756704974106
0.01067567311668149
0.01067567860870902
0.01105960108787303
0.01105960645695787
0.01105960759955408
0.01105960714315586
0.01105960720780359
0.01105960599180361
0.01105960375798898
0.0110596028462819
0.01105960041372855
0.01105959715445334
0.01105959218515202
0.01105959153047897
0.01105959203296532
0.01105959095623364
0.01105959171798052
0.01105959450899905
0.01105959594882593
0.0110595966980262
0.01105959784214416
0.01105959741301759
0.01105959632692322
0.01105959621864874
0.01105959516281902
0.01105959341748954
0.01105959318690753
0.0110595919993921
0.0110595900905342
0.01105958988404109
0.01105958894551927
0.01105958668657085
0.01105958645833888
0.01105958406151147
0.01105958336036304
0.01105958164019709
0.01105957785778808
0.0110595764245902
0.01105957240576084
0.0110595708238984
0.01105956935938138
0.01105957094708738
0.01105957568174677
0.01105957658589623
0.01105957913283356
0.01105958170444618
0.01105958027161515
0.01105958108015708
0.01105958102527728
0.01105957917662612
0.0110595786487649
0.01105957716388234
0.01105957869645963
0.01105958167285157
0.01105958119615063
0.01105958144566382
0.0110595840226276
0.01105958971478895
0.01105959230368041
0.01105959749169817
0.01138045806196861
0.01138046289755932
0.01138046492159544
0.01138046536029702