/*--------------------------------*- C++ -*----------------------------------*\
| =========                 |                                                 |
| \\      /  F ield         | OpenFOAM: The Open Source CFD Toolbox           |
|  \\    /   O peration     | Version:  v1812                                 |
|   \\  /    A nd           | Web:      www.OpenFOAM.com                      |
|    \\/     M anipulation  |                                                 |
\*---------------------------------------------------------------------------*/
FoamFile
{
    version     2.0;
    format      ascii;
    class       volScalarField;
    location    "10000";
    object      nuTilda_0;
}
// * * * * * * * * * * * * * * * * * * * * * * * * * * * * * * * * * * * * * //

dimensions      [0 2 -1 0 0 0 0];


internalField   nonuniform List<scalar> 
3770
(
0.0004945610732527038
0.0004945388182398152
0.0004946588685420858
0.0004947276161408152
0.0004945482141581951
0.0004946564367580417
0.0004947276299519829
0.0004945483360289208
0.0004946464045763373
0.0004947197094259001
0.0004946752269638045
0.0004946716115076808
0.0004945644590671484
0.0004945530650622345
0.0004997923788707583
0.0004999699549182187
0.0004998558445689105
0.000499784064569882
0.0004999699070599605
0.0004998558823281482
0.0004997840395303531
0.0004999699254282133
0.000499855874844528
0.0004997840511055091
0.0004999699150922139
0.0004998558802857191
0.0004997840517342267
0.0004999699295178071
0.0004998558878574376
0.0004997840251864333
0.0004999662882213553
0.0004998545123943268
0.0004997925802411252
0.0004999420127890713
0.0004999963882788841
0.0004945814423230194
0.0004945568625209924
0.0004997928146925339
0.0004999103300909683
0.00049983235355337
0.0004999429958523601
0.000499995273540349
0.0004946951599892047
0.0004945676175194134
0.0004945535453584085
0.0004998009436369495
0.0004999420095850725
0.0004999931111564279
0.000494721539217052
0.0004946755702960362
0.0004946745713451884
0.0004945655130412492
0.0004945596475855154
0.000499897334459695
0.0004998283445177478
0.000499942997227623
0.0004999953169247698
0.000494577003522351
0.0004799934492004953
0.0004800061991149121
0.0004804187539889312
0.0004810366832786581
0.000479978158292332
0.0004804195418116881
0.000481037093247236
0.0004799805784263988
0.0004804370649247809
0.0004810869595365425
0.0004811563263836408
0.0004810869790489552
0.0004799025452920084
0.0004816145574811292
0.0005524517905010648
0.0005545390977714644
0.0005535155605024654
0.0005523529107214034
0.000554537237459676
0.0005535162579512551
0.000552352591198668
0.0005545375870092945
0.0005535161161678178
0.000552352787526049
0.0005545374882702608
0.0005535162940547666
0.0005523528807795957
0.0005545376963023421
0.0005535164068226833
0.0005523530444726049
0.0005545369316853119
0.0005535162229053894
0.0005523566950283803
0.0005547069288439532
0.0005510614536722364
0.0004799401465238403
0.000481666940975182
0.0005523379148820663
0.0005535837714717869
0.000553152009981427
0.0005546995990835751
0.0005513125930576703
0.0004809293022050687
0.0004799022158744135
0.000481611654434361
0.0005524665465485481
0.0005547016321841481
0.00055120587718126
0.0004810362239600486
0.0004811551789563207
0.0004810870988067452
0.0004798999587793908
0.0004817309127458286
0.0005534654027917676
0.0005531411206319602
0.0005547013114536183
0.0005510980072221209
0.000479919892461205
0.0007936266360860566
0.0007930577978009274
0.0007944353163160191
0.0007956005243043119
0.0007933324641845894
0.0007944170666163172
0.0007956006658644484
0.000793327099214707
0.0007943050233528037
0.0007956369379478602
0.0007953159622021188
0.0007953584175156172
0.0007931760565632028
0.0007967269923359202
0.0008428042229278922
0.0008443852403327683
0.0008435606802647704
0.0008426702335477148
0.0008443851926653879
0.0008435602181879952
0.0008426704703608173
0.0008443851705906613
0.0008435602656639022
0.0008426705369508917
0.0008443852451338302
0.0008435603484937137
0.0008426706812186054
0.0008443852209729392
0.0008435602950758776
0.0008426704830101926
0.000844384438026255
0.0008435594415906757
0.0008426711541741871
0.0008445076625120131
0.0008415487505228441
0.0007933154370899873
0.0007968819139757553
0.0008426008405032362
0.0008430230342917346
0.0008429192017107271
0.0008445012102374812
0.0008418363619896032
0.000795435037899238
0.0007931707189898443
0.0007967137356923366
0.000842816860369291
0.0008445008630663995
0.0008417126467575907
0.0007957369570010089
0.0007953097857775817
0.0007953580098592843
0.0007931706921085484
0.0007970018305943906
0.0008430160957610536
0.0008429652164092859
0.0008445051707376999
0.0008416336370923291
0.0007940212220431492
0.001141405276745161
0.001141202331103038
0.001141696847932867
0.001142128748043666
0.001141288834991722
0.001141691571528875
0.001142127126919347
0.00114128568830319
0.001141650689837592
0.001142142014215685
0.001142051573352306
0.001142051860149979
0.001141224883569171
0.001142457168047085
0.001158067341148936
0.001158709745645473
0.001158351186332477
0.001158000375964886
0.001158714350867317
0.001158348787049392
0.001158001239521228
0.001158713813777493
0.001158349237489554
0.001158001086823082
0.001158714030232299
0.001158349133128523
0.001158001140192248
0.001158713834413628
0.001158348862025152
0.001158000578642483
0.00115871229686407
0.001158347500299797
0.001157996361728169
0.001158754888732415
0.001157617138432313
0.001141279485631423
0.001142507891826515
0.001157978365259173
0.001158130640667858
0.00115808889801177
0.001158748754143211
0.001157735097090635
0.001142066525416109
0.001141219329934853
0.001142450519066031
0.001158065951554756
0.001158745151749238
0.001157678663689679
0.001142181129953032
0.001142044866572335
0.001142049640847043
0.001141216786687236
0.001142552551529987
0.001158144680004574
0.001158108135617596
0.001158755181913556
0.001157654553540145
0.001141537595270277
0.00147940632361549
0.001479330375490138
0.00147949479582527
0.001479652325276065
0.001479363820499381
0.001479494221622944
0.001479649234507147
0.001479361435408657
0.001479478293647786
0.001479658101543884
0.001479653199012895
0.001479634399875129
0.001479334813976808
0.001479739319358298
0.001484323151969976
0.001484477203563815
0.001484371626398346
0.001484284716193254
0.001484485174618654
0.001484367340673636
0.001484286094152611
0.001484483965920703
0.001484368171299837
0.001484285641032306
0.001484484317580988
0.001484367823093174
0.001484285611461994
0.001484483854198747
0.001484367262379404
0.001484284592339457
0.001484481296625922
0.001484365431238841
0.001484277072364379
0.001484484547749509
0.001484194847305274
0.00147935279008607
0.001479745552173807
0.001484304322957036
0.001484353938448172
0.00148432275132782
0.001484478150716973
0.001484226942998776
0.001479625834410148
0.001479327325030452
0.001479734673693146
0.001484312649560808
0.001484472463979481
0.001484208552088272
0.001479669564208171
0.001479645245753122
0.001479630386399379
0.001479324301004107
0.001479767774510739
0.001484385243178721
0.001484327649071611
0.001484488083634848
0.001484208852042427
0.001479473711219289
0.001803762100832102
0.001803730179626234
0.001803789664858379
0.001803867734812744
0.001803749071513457
0.001803791299008368
0.001803863572384819
0.001803746904926928
0.001803781820718759
0.001803867442370488
0.001803888451361038
0.00180386702847061
0.001803728798773696
0.001803895934076761
0.001805254378031307
0.001805252738851539
0.001805231617023536
0.001805228931399397
0.001805261701652398
0.001805226024411068
0.001805230496905071
0.001805259903568309
0.001805227058741536
0.00180522973870567
0.001805260326900573
0.001805226486710349
0.001805229627247628
0.001805259621666368
0.001805225671105797
0.001805228248427463
0.001805256241353429
0.001805223464221433
0.001805219068844847
0.001805246530007415
0.001805215984719694
0.001803740318739071
0.001803886949148566
0.001805252904445113
0.001805264691344475
0.001805246627673618
0.001805240600853149
0.001805222265711407
0.001803856802560286
0.001803718542106702
0.001803891233356678
0.001805239546030705
0.001805233943901768
0.001805215030648708
0.001803877867602184
0.001803879667846478
0.001803861071402508
0.001803715877786928
0.001803904038966823
0.001805308156308949
0.001805251638601959
0.00180525375124283
0.001805226006731908
0.001803818359831835
0.002119781430202855
0.002119757372144326
0.002119782966017386
0.002119839464387803
0.002119769205887296
0.002119785992385156
0.002119834610531972
0.002119767101333319
0.002119777446902794
0.002119835567334936
0.002119865323690215
0.002119845174674861
0.002119753571366794
0.002119852154093558
0.00212026570783925
0.00212021631081408
0.002120219943111764
0.002120243951870117
0.002120224360678644
0.002120214024696516
0.002120245685545784
0.002120222049541627
0.002120215096954308
0.002120244659227923
0.002120222477002732
0.002120214332591341
0.002120244455214432
0.002120221572687869
0.002120213304204894
0.002120242819068716
0.00212021778841301
0.002120210215805766
0.002120232497144225
0.00212020322634746
0.002120248803223445
0.002119764371889298
0.00211983752736039
0.002120265842785411
0.002120268019674459
0.002120258043177318
0.00212019944084276
0.002120247836464426
0.002119837196839217
0.002119742952017997
0.002119846931331095
0.002120248624485924
0.002120191871945545
0.002120242855923857
0.00211984919957157
0.00211985773843697
0.002119840795045116
0.002119740900483756
0.002119853330941442
0.002120314569327593
0.002120264654824895
0.002120215051393425
0.002120259296244959
0.00211983083376506
0.002434912107321047
0.002434887341424055
0.002434898298828485
0.002434949524288704
0.002434895098461187
0.002434902223020958
0.002434944297392883
0.00243489297986529
0.002434893436649708
0.002434942340561774
0.002434976885553492
0.002434960341243885
0.002434881325864217
0.002434957290822898
0.002435091293409274
0.002435028260381329
0.002435036544882551
0.002435069192476797
0.002435034761285794
0.002435030244319339
0.002435070666243357
0.002435031995084161
0.002435031218455396
0.002435069404333064
0.00243503235811686
0.002435030280009272
0.002435069082614522
0.002435031290285409
0.00243502907197099
0.002435067261567167
0.002435027216944366
0.002435025383992756
0.002435056432891381
0.002435009651684999
0.002435076591624363
0.002434890891617891
0.002434940651232983
0.002435089486163752
0.00243509027810954
0.002435085313816528
0.002435009059712595
0.002435073619735158
0.002434952707822909
0.002434870187916951
0.00243495132469645
0.002435073106971196
0.002435000321131985
0.00243506836263699
0.00243495995927294
0.002434971037720125
0.002434956891980427
0.0024348688426148
0.002434955273784605
0.002435136176139704
0.002435094034665551
0.002435026478274511
0.002435088704719418
0.002434955187995217
0.002758432358457171
0.002758405280017651
0.002758407957876114
0.002758457885238737
0.002758410822872214
0.002758412462470642
0.002758452506878767
0.002758408609016454
0.002758403211412869
0.0027584473695562
0.00275848523374985
0.002758473932708815
0.002758398347639065
0.002758463094894736
0.002758517034693393
0.002758451710937678
0.00275845745394519
0.00275849284051051
0.002758456218413665
0.002758450828781575
0.00275849383425569
0.002758452965654481
0.002758451533274789
0.002758492324211268
0.002758453241553055
0.002758450452002257
0.002758491866067398
0.002758452032221152
0.002758449086160475
0.002758489915124436
0.002758447784699467
0.002758444935332085
0.002758479015648511
0.002758427363330111
0.002758498362422435
0.00275840596919227
0.00275844540588231
0.002758511818536193
0.002758513547643563
0.002758513111689205
0.002758431022404665
0.002758495084450953
0.002758465445024945
0.00275838664448564
0.002758456397289913
0.002758498439404389
0.002758420864721143
0.002758488693746757
0.002758468753794558
0.002758481684437442
0.002758471405980532
0.002758386294533943
0.002758458783418621
0.002758557816462043
0.002758524083829116
0.002758449826078631
0.002758512663854224
0.002758470255210447
0.003102748690325229
0.003102719418161736
0.00310271574350287
0.00310276465011379
0.00310272342840989
0.003102720431315305
0.003102759251050699
0.003102720980984417
0.003102710755802554
0.003102750566429929
0.003102790875953688
0.003102786123706002
0.003102712337782728
0.003102767569635394
0.003102801681084818
0.003102738885402491
0.003102739237444154
0.003102774929872165
0.003102740763990054
0.003102732160674812
0.003102775252215362
0.003102737153210941
0.003102732512109025
0.003102773473810724
0.003102737129673996
0.003102731234531449
0.00310277285111252
0.003102735788793273
0.003102729724621367
0.003102770808279399
0.00310273147262001
0.003102725184734539
0.003102760211046663
0.003102708283865074
0.003102777223280685
0.003102716503886546
0.003102749274019515
0.003102792404512146
0.003102795809043375
0.003102800221959717
0.003102717208630057
0.003102774253025842
0.003102776366895044
0.003102700176600996
0.003102760141729691
0.003102783086761101
0.003102705468837478
0.003102766370541211
0.003102775393581095
0.003102790199863698
0.003102784772822471
0.003102701081051757
0.003102761405949155
0.003102837509793704
0.003102813407269174
0.003102737243341724
0.003102794207589809
0.00310278227719037
0.0034835513809804
0.003483520501140868
0.003483510702901284
0.003483557643829805
0.003483522784507205
0.003483515145302717
0.003483552296704334
0.003483519969785943
0.003483505188511608
0.003483539766483375
0.003483581450831321
0.00348358453120013
0.003483513520812833
0.003483558269023863
0.003483590252423534
0.003483533085937521
0.003483526749141915
0.003483561305827332
0.003483531822544166
0.003483519128525063
0.003483560690499001
0.003483527775518061
0.003483518956184791
0.003483558611229289
0.003483527393249783
0.00348351747343749
0.003483557777158757
0.003483525916535873
0.003483515822701356
0.003483555666562418
0.003483521637145812
0.003483510937317495
0.003483545702144991
0.00348349564317588
0.003483559596089744
0.003483513156923155
0.003483539200144349
0.003483576035048151
0.003483581844494015
0.003483591807126689
0.003483510910605003
0.003483557564480543
0.003483573498893676
0.003483500980239812
0.003483550115440523
0.003483572185671646
0.003483497284958499
0.003483547963677712
0.00348356750398531
0.003483584150181496
0.003483584678132494
0.0034835035358252
0.003483550461293486
0.003483619898848131
0.003483607070965784
0.003483532121891295
0.003483579896607839
0.003483580677974463
0.003917943867237231
0.003917912487212205
0.003917896301226652
0.003917939673229714
0.003917912180281445
0.00391789991000666
0.003917934338753915
0.003917908796265635
0.003917889839423649
0.003917917900919197
0.003917959325065506
0.003917971413416343
0.003917905164757582
0.003917938067600352
0.003917972375465108
0.003917923443851412
0.003917910031195361
0.003917942088680208
0.003917918680564408
0.003917901783115946
0.00391794027017317
0.003917914120484882
0.003917900896442607
0.003917937818044686
0.003917913273744245
0.003917899176500897
0.003917936712461198
0.003917911643172426
0.003917897380953074
0.003917934545820938
0.003917907508260714
0.003917892159968977
0.003917925544860489
0.003917878943171389
0.003917935569402066
0.003917898936390091
0.003917918086130991
0.003917952610305572
0.003917961101031727
0.003917977344508736
0.003917901553914131
0.003917935410360205
0.003917959221493845
0.003917892497168808
0.003917929172029241
0.003917955318162384
0.003917885753814336
0.003917923922626349
0.003917947547075208
0.003917965861662163
0.003917973504517718
0.003917897028770826
0.00391792900224951
0.003917994289555367
0.003917994433860795
0.003917923808628634
0.003917960219157766
0.003917968273801393
0.00442042178115779
0.004420391679709127
0.004420368973094403
0.004420406769978164
0.004420387364012904
0.004420370984825716
0.00442040127885325
0.004420383130002987
0.004420360985194681
0.004420381336919512
0.0044204200449366
0.004420441669376138
0.004420383023617195
0.00442040320769613
0.004420439367446385
0.004420401191820799
0.004420381357445945
0.004420409376247503
0.00442039281746785
0.00442037240689163
0.004420406102201136
0.00442038765192129
0.004420370585427442
0.00442040318074413
0.004420386206516218
0.004420368573743509
0.004420401725751675
0.004420384385280289
0.00442036661938606
0.004420399498317702
0.004420380498767245
0.004420361077557993
0.004420391733706125
0.004420349963009032
0.004420397390182049
0.004420369934106503
0.004420381673002238
0.004420413710058053
0.004420425040333907
0.004420447931455253
0.004420380543494375
0.004420400389413503
0.004420428812551194
0.004420370551938557
0.004420393627970512
0.004420423811303863
0.00442036249922092
0.004420386896157159
0.00442041122360193
0.004420430591963546
0.004420446122809611
0.004420377396480254
0.00442039363618217
0.004420451919672873
0.004420466748424787
0.004420403376711621
0.004420427440732361
0.004420440412036678
0.004997732365390265
0.004997705921580486
0.00499767752793354
0.004997707681003544
0.004997696095642956
0.004997677021116723
0.004997701660041431
0.004997690649976411
0.004997667254319482
0.004997679313082919
0.004997712134403777
0.004997742465776409
0.004997694448870865
0.004997702725811724
0.004997737756217519
0.004997712112191164
0.004997687974977613
0.00499771045270678
0.004997700586564156
0.004997678370021423
0.004997705580073133
0.004997694762601273
0.004997675403886078
0.004997702068216274
0.004997692573340352
0.004997673030707752
0.004997700174882852
0.004997690507046704
0.004997670894827755
0.004997697860886868
0.004997686935585922
0.00499766505897633
0.004997691493779367
0.004997655727715654
0.004997692504912167
0.004997673830112808
0.004997678865293352
0.00499770672607738
0.004997720378439892
0.004997749421821564
0.004997693912476551
0.004997700238500755
0.00499772971669538
0.004997682725761498
0.004997692602356958
0.004997724082620941
0.004997673934472186
0.00499768476560367
0.004997706876023356
0.004997726344746421
0.004997749546800209
0.004997691962524023
0.004997693078938538
0.004997740734469317
0.004997769535245428
0.00499771680642205
0.004997729033316461
0.004997744598145706
0.005644823626623215
0.005644803267094147
0.005644771386823442
0.005644792428993437
0.005644786989216696
0.005644767582050115
0.00564478536321708
0.005644780016336936
0.005644758125576377
0.005644762025777533
0.005644786463127638
0.005644822479713465
0.005644787458389552
0.005644786028149725
0.005644816923804143
0.005644803608795938
0.005644778724008349
0.005644794638997839
0.005644790168535646
0.005644768684870355
0.005644788215449292
0.005644783613241554
0.005644764521472778
0.005644784016856069
0.005644780592205105
0.00564476169486516
0.005644781594713553
0.00564477820357713
0.005644759353373886
0.005644779146337282
0.005644774912357739
0.005644753318154043
0.005644774112718055
0.005644744947217621
0.005644770815570908
0.005644759920871587
0.005644759233913521
0.005644781551016369
0.00564479639298208
0.005644829826057594
0.005644788890778833
0.005644783969586019
0.005644811415050805
0.005644777232453642
0.005644775894136899
0.005644805147909325
0.005644767999514643
0.005644767403552605
0.005644784503223033
0.00564480286698685
0.005644832003363704
0.00564478851130709
0.005644776461633758
0.005644811978682911
0.005644850609293226
0.005644811263716132
0.005644814105886894
0.0056448295372757
0.00634419942168701
0.006344185943951987
0.006344154492989741
0.006344166145948442
0.006344164435895575
0.006344146701770551
0.006344157517902994
0.00634415583125976
0.006344137519065662
0.006344134279873933
0.006344150105489338
0.006344186555448942
0.006344165168156368
0.006344157193820608
0.006344182586838763
0.006344178850816624
0.006344157485466432
0.006344166665589577
0.006344165840234702
0.006344147017902041
0.006344159013410925
0.006344158620411508
0.006344141782818755
0.006344154095562532
0.006344154883055795
0.006344138339491177
0.006344151074987842
0.006344152123098259
0.006344135750992529
0.00634414843505582
0.006344149010127257
0.006344129615096906
0.006344144452636222
0.006344121790772481
0.006344137707350356
0.006344132706607657
0.006344127711302053
0.006344144391392074
0.0063441586466091
0.006344193521892065
0.006344167887305981
0.006344155540534711
0.006344179159258425
0.006344157293579125
0.006344147501410683
0.006344172664885432
0.006344148061396604
0.00634413862480518
0.006344150636719005
0.006344166065276368
0.006344197765115548
0.006344169133038715
0.006344148834660251
0.006344172295060295
0.00634421433494762
0.006344189487062854
0.006344186462000509
0.006344199979161292
0.007069430488368541
0.007069422649094131
0.007069395813254067
0.00706939930990465
0.007069399113623301
0.007069384013725051
0.007069388927509867
0.007069388957864702
0.007069374967686429
0.007069366489284814
0.007069375359590299
0.00706940685360407
0.007069397252557478
0.007069387000506766
0.007069406022258685
0.007069409226917328
0.007069393029843588
0.007069397010175781
0.007069398271208592
0.007069382935937518
0.007069388752400891
0.007069390744965268
0.007069376851951347
0.00706938316117483
0.007069386327804154
0.007069372765169466
0.0070693795446081
0.007069383159492322
0.007069369908831871
0.007069376634960396
0.007069380179917743
0.007069363696839671
0.007069373341616571
0.007069356461028759
0.007069364448213693
0.007069362841842083
0.007069355543887082
0.007069366941236912
0.007069379211143807
0.007069412196336415
0.007069399945405262
0.007069385404465179
0.007069404027058924
0.007069392138160934
0.007069378166467861
0.007069397843635768
0.007069383473989364
0.007069369246101441
0.007069376565509374
0.007069388175609785
0.007069418227060602
0.007069402755442872
0.007069380467112465
0.007069394086209256
0.007069432365484429
0.007069420890079144
0.007069415804481363
0.007069426849947459
0.007791264004282314
0.007791260458700708
0.007791240551662291
0.007791238270760519
0.00779123819988504
0.007791225909498618
0.007791226406495391
0.007791226819917494
0.007791216675664358
0.007791205636770587
0.00779120913181705
0.007791232940277941
0.007791231280207188
0.007791222432910741
0.007791235207342764
0.007791242742555081
0.007791231614348765
0.007791232493410682
0.007791234554869773
0.007791222978623351
0.007791224476473051
0.007791227118697328
0.007791216469447908
0.007791218523662643
0.007791222153441949
0.00779121182641456
0.007791214411165194
0.007791218587937724
0.007791208723064743
0.007791211219510812
0.007791215620853123
0.007791202444540843
0.00779120807007646
0.007791195957861812
0.007791198335485809
0.007791197934630093
0.007791190123025486
0.007791197092911802
0.007791206588603421
0.007791234929560273
0.007791232366065696
0.007791220296594069
0.007791233747565159
0.00779122849428103
0.007791214642600177
0.007791228486180497
0.007791221034633776
0.00779120604046446
0.007791209621159665
0.007791217190596268
0.007791242586974071
0.00779123644718592
0.007791217714499565
0.007791224246121656
0.007791254525868341
0.007791253110290323
0.007791249098190596
0.007791257670887116
0.008483560638685142
0.008483560282688271
0.008483547386097809
0.008483541981111835
0.008483541579165666
0.008483532082585194
0.008483529561159593
0.008483529593352484
0.008483522406507344
0.008483511195491997
0.008483510632397887
0.008483526537801069
0.008483529435695645
0.008483522980247644
0.008483530931003493
0.00848354017736213
0.008483533551070314
0.008483533030597299
0.008483534976872488
0.008483527090132635
0.008483525977759062
0.008483528038571955
0.00848352061183557
0.008483520048872758
0.008483522753743875
0.008483515555377068
0.008483515625015895
0.008483518854795405
0.008483512272361934
0.008483512216579716
0.008483515765176159
0.008483505884264577
0.008483508740221917
0.008483500427101658
0.008483499234352076
0.008483498895686692
0.008483491234614067
0.008483494987347942
0.00848350158617649
0.008483523689809397
0.00848352773086542
0.008483519425055885
0.008483528840705959
0.008483527343298949
0.008483516263890982
0.008483525040371691
0.008483521273409178
0.008483508606509736
0.008483509469656852
0.008483513441285504
0.008483532865365689
0.008483532390615835
0.008483519473160856
0.008483521692863873
0.008483543052170641
0.008483548243562851
0.008483546306532426
0.008483553080232553
0.009126935415809417
0.009126937675700888
0.009126930065697212
0.009126924104388904
0.009126923362119501
0.00912691621455961
0.009126912300003211
0.009126911756614441
0.009126906366598929
0.009126896512714014
0.0091268928046451
0.009126902575133402
0.00912690717859432
0.009126902767849025
0.009126907601459325
0.009126916621842866
0.009126913401013327
0.009126912640980426
0.009126914339359492
0.009126909376835296
0.009126906963799246
0.009126908317890528
0.009126903404018387
0.009126901306679674
0.009126903050923013
0.009126898363211981
0.009126896828018148
0.009126898966399177
0.009126894831770505
0.009126893153682963
0.009126895706551515
0.009126888410454113
0.009126889514833664
0.009126883979959829
0.00912688064721192
0.00912688005072362
0.009126872894062055
0.009126874524990223
0.009126878476531309
0.009126894146770943
0.009126902048480203
0.009126897051367116
0.009126903839555913
0.009126904561958232
0.0091268965447693
0.009126901741340119
0.009126899837190028
0.009126890338253958
0.009126889537265318
0.009126891047674413
0.009126904491280848
0.009126907485679169
0.009126899293066103
0.009126899570286432
0.009126913432850194
0.009126922082590519
0.009126922019014548
0.009126927832261482
0.009709598494247218
0.009709602597558443
0.009709598680470785
0.009709593743035322
0.009709592897595157
0.009709587673735143
0.009709583435792105
0.009709582471169348
0.009709578170757198
0.009709570216013607
0.009709564682005714
0.009709570031243519
0.009709574419578362
0.009709571516522587
0.009709574538338483
0.009709582152596249
0.009709581262266429
0.009709580876648794
0.009709582331541473
0.00970957944472735
0.009709576739335068
0.009709577455672502
0.009709574304049907
0.009709571590743055
0.009709572492181406
0.009709569495220963
0.00970956720099202
0.009709568386705321
0.009709565878263077
0.009709563384112484
0.009709564960952979
0.009709559632390952
0.009709559716105454
0.009709556000193542
0.009709551712471582
0.009709550782440127
0.009709544312357939
0.009709544503573156
0.009709546364507401
0.009709556525685838
0.009709565718520916
0.009709563281069367
0.009709568285738199
0.009709570472651745
0.009709564924546702
0.009709567937877268
0.00970956695202563
0.009709560264807092
0.00970955881454558
0.009709558863490482
0.00970956732768825
0.009709571851231042
0.009709567193187513
0.009709566785211178
0.00970957537875353
0.009709584803201565
0.009709586179359424
0.009709591810644859
0.01022617386929038
0.01022617901169157
0.01022617748605699
0.01022617425721917
0.01022617356341908
0.01022616992520577
0.01022616605371418
0.0102261649142881
0.01022616132963606
0.01022615523133732
0.01022614907339803
0.01022615146934589
0.01022615466978487
0.01022615273550544
0.01022615468203716
0.01022616062293393
0.01022616111982176
0.01022616121609817
0.01022616250574187
0.01022616092121071
0.01022615856377015
0.01022615880961544
0.01022615676970228
0.01022615409843913
0.0102261543716495
0.0102261523878622
0.01022614994662637
0.01022615039784138
0.01022614883356996
0.01022614610152385
0.01022614685970856
0.01022614303274497
0.01022614259348933
0.01022613985416453
0.01022613539757285
0.01022613423014317
0.01022612861076913
0.01022612777234156
0.01022612819801944
0.01022613412591032
0.01022614275605116
0.01022614202636047
0.01022614586178451
0.01022614877369026
0.0102261451256333
0.01022614689041037
0.01022614636789157
0.01022614183002473
0.01022614057201426
0.01022613962113238
0.01022614464885401
0.01022614923955927
0.01022614684167049
0.01022614647006349
0.01022615176192461
0.01022616042681712
0.01022616268637094
0.01022616832852886
0.01067568049278622
0.0106756860167675
0.01067568592671849
0.01067568444144444
0.01067568408157536
0.0106756817738721
0.01067567864714643
0.01067567754823122
0.01067567454715574
0.01067567002441558
0.01067566415102005
0.01067566470965674
0.01067566642230553
0.01067566507264049
0.010675666316989
0.01067567058164777
0.01067567179836643
0.01067567233472777
0.01067567356024633
0.01067567267553882
0.01067567098792374
0.01067567095924513
0.01067566952528047
0.01067566729922655
0.01067566720122559
0.0106756657130882
0.01067566350982961
0.01067566348968268
0.01067566235654905
0.01067565975373953
0.01067565989423512
0.01067565699948657
0.01067565634751919
0.01067565420376955
0.01067565002071288
0.0106756487304006
0.01067564386284271
0.01067564252820356
0.01067564187841969
0.01067564506670678
0.01067565194942557
0.01067565225893303
0.01067565532767582
0.01067565832350388
0.0106756560362266
0.01067565713461029
0.01067565686260138
0.01067565387003392
0.01067565298754356
0.01067565158859735
0.01067565443570865
0.01067565838162533
0.01067565727345767
0.01067565722414855
0.01067566063745231
0.01067566783941851
0.01067567045739834
0.01067567601164798
0.0110595984209498
0.01105960381999295
0.01105960496235337
0.01105960451004065
0.01105960457165145
0.01105960335456039
0.01105960112833849
0.01105960021458169
0.01105959777453204
0.01105959450686537
0.01105958953804853
0.01105958892541916
0.01105958946473102
0.01105958837632586
0.01105958909954613
0.01105959191236827
0.01105959333845105
0.01105959408481958
0.01105959524147505
0.01105959479416189
0.0110595937063994
0.01105959359652823
0.01105959254774454
0.01105959080717712
0.01105959057737077
0.01105958938746198
0.0110595874793022
0.01105958727087327
0.0110595863324956
0.01105958407276239
0.01105958385109724
0.0110595814374149
0.01105958069233982
0.01105957895429217
0.01105957525431035
0.01105957395053297
0.01105956975392589
0.01105956817315686
0.01105956678288182
0.01105956836004166
0.01105957299806127
0.01105957387248606
0.01105957647369109
0.01105957913026476
0.01105957774777521
0.01105957851948993
0.01105957839632882
0.01105957647032848
0.01105957593759076
0.01105957449806562
0.01105957604595862
0.01105957910003467
0.01105957864916175
0.01105957889896842
0.01105958139450843
0.01105958700969694
0.01105958960342443
0.0110595948302464
0.01138045535193271
0.01138046021602426
0.01138046224015171