/*--------------------------------*- C++ -*----------------------------------*\
| =========                 |                                                 |
| \\      /  F ield         | OpenFOAM: The Open Source CFD Toolbox           |
|  \\    /   O peration     | Version:  v1812                                 |
|   \\  /    A nd           | Web:      www.OpenFOAM.com                      |
|    \\/     M anipulation  |                                                 |
\*---------------------------------------------------------------------------*/
FoamFile
{
    version     2.0;
    format      ascii;
    class       volScalarField;
    location    "10000";
    object      p;
}
// * * * * * * * * * * * * * * * * * * * * * * * * * * * * * * * * * * * * * //

dimensions      [0 2 -2 0 0 0 0];


internalField   nonuniform List<scalar> 
3770
(
2.416512990003513e-08
2.35149801998679e-08
7.769248482241856e-07
-2.294385537883748e-07
7.080967964032645e-08
8.8900880784225e-07
-3.874312522493819e-07
3.588553167022356e-07
1.100218085979019e-06
-8.981723371759619e-09
-9.181590134747779e-07
-9.212607145459555e-07
8.519467605983578e-07
1.566307081092086e-06
-1.044831675396994e-07
1.573218366316927e-07
4.716903030418117e-07
-4.800965969445606e-07
1.437970064008753e-07
6.348252241692466e-07
-3.904971786896248e-07
1.629613923782552e-07
7.311509539706776e-07
-3.311626257367264e-07
2.794592766203908e-07
7.874907508639137e-07
-2.257029876812756e-07
3.528840426292574e-07
9.089684755780385e-07
-1.077650501376783e-07
5.542304695992643e-07
1.193067972458134e-06
2.080514544525198e-07
9.506500445542037e-07
-1.039497715997597e-06
1.407926348347088e-07
2.001204216512695e-06
3.610680839807206e-07
-5.951878413616228e-07
-6.586403835597801e-07
5.52500554862255e-07
-1.199728403810998e-06
-2.343404674811167e-06
1.440738331257356e-06
1.980602867119857e-06
5.803088827050762e-07
9.601564365664593e-07
-1.042310530957812e-06
-2.201678752449205e-06
-7.085594559256422e-07
-1.017878574880244e-06
1.183551081811843e-06
1.869592073100138e-06
-5.91281328400986e-07
-1.220790833583815e-06
5.75334618853521e-09
-1.700008128139199e-06
-2.042431424921009e-06
-6.105662278590837e-09
1.985557192879245e-08
7.538833006465916e-07
-2.108073319561965e-07
7.587757351039765e-08
8.64496772631833e-07
-3.688590326132575e-07
3.676110594216324e-07
1.074067247624564e-06
-9.797903219982038e-11
-9.034997075133336e-07
-9.169867415813296e-07
7.945423634094125e-07
1.317679862669085e-06
-2.537171518871902e-07
1.791871036619304e-07
4.576686857866012e-07
-4.697567702672327e-07
1.456685798744402e-07
6.222176831804953e-07
-3.795948215683649e-07
1.644804683424559e-07
7.186941655751427e-07
-3.205264482335525e-07
2.811386055321137e-07
7.750906371351702e-07
-2.150486450692248e-07
3.54345729352447e-07
8.962504726590925e-07
-9.753583821795312e-08
5.550311492798596e-07
1.178613710756863e-06
2.169421355511784e-07
9.707430020696024e-07
-7.915769072312878e-07
2.750026540816206e-07
1.729339500622053e-06
2.164492934066789e-07
-5.643359607945352e-07
-6.640423188079787e-07
5.606660483120703e-07
-9.703506006948648e-07
-2.13381914686914e-06
1.368884181529292e-06
1.736082162551591e-06
4.237915389851951e-07
9.97388091226719e-07
-8.199637504393151e-07
-1.993612910266263e-06
-7.169029438376615e-07
-1.011274755171912e-06
1.122256691474762e-06
1.640875460856906e-06
-7.440762314445594e-07
-1.204576609851614e-06
1.518134716672935e-08
-1.448641707062495e-06
-1.847061818146718e-06
-8.211369294445144e-08
3.820377440353586e-08
7.606106919679663e-07
-2.042510540596865e-07
7.276439646919951e-08
8.59322184822931e-07
-3.610595635951805e-07
3.6810415028403e-07
1.069880516847351e-06
1.833247867706664e-08
-8.926249413561653e-07
-9.337130424813066e-07
7.308107239947423e-07
7.83498034359995e-07
-7.206678371823031e-07
2.019988449674678e-07
4.856625628993776e-07
-4.840088407221167e-07
1.291688258272852e-07
6.524196800544324e-07
-3.931394969649762e-07
1.475535023827458e-07
7.49063251414351e-07
-3.34443972750774e-07
2.644484023740452e-07
8.056026287946609e-07
-2.289040644586037e-07
3.373636836296787e-07
9.263096689614209e-07
-1.118705718848651e-07
5.373326007027568e-07
1.207027488988636e-06
2.026137257874984e-07
1.041761424613431e-06
-2.211877052282054e-07
6.36401365988879e-07
1.166712916314618e-06
-2.093057678299309e-07
-5.26929153093149e-07
-7.101133719645958e-07
6.174484879265968e-07
-4.011510133254302e-07
-1.702640428253875e-06
1.27614828459095e-06
1.208861255464899e-06
-5.145597782222497e-08
1.102899990452879e-06
-2.552497171420969e-07
-1.547156181155951e-06
-7.429431202790333e-07
-1.024543394254344e-06
1.059261879108129e-06
1.134473592773859e-06
-1.182581123893563e-06
-1.21635399728109e-06
7.647006010580103e-08
-8.662522476348819e-07
-1.445850704076997e-06
-1.668868170734151e-07
8.060113089003744e-08
7.958776316036688e-07
-2.104587907475096e-07
6.090477847034832e-08
8.745692629926656e-07
-3.65327670449256e-07
3.562265828929863e-07
1.086609654785532e-06
3.653147245206004e-08
-8.925635160488561e-07
-9.56941771049041e-07
6.955062766143437e-07
1.951354636428454e-07
-1.316267445531024e-06
2.06820864383002e-07
5.481862357623411e-07
-5.170967829402527e-07
9.775677729927969e-08
7.159491614372742e-07
-4.250811550467787e-07
1.156964844428085e-07
8.129505874518457e-07
-3.669891621988382e-07
2.328460162584474e-07
8.695757056545252e-07
-2.613919618694298e-07
3.053950914522028e-07
9.897483294113409e-07
-1.449929995227976e-07
5.045183817674436e-07
1.268490586303847e-06
1.680435240329196e-07
1.130846195107755e-06
4.364254245764607e-07
1.074242001601837e-06
5.631151698972819e-07
-7.459595780868809e-07
-5.09081244626131e-07
-7.770793975781251e-07
6.986900956838314e-07
2.740898051645608e-07
-1.225285216658969e-06
1.206773865328379e-06
6.262720725244279e-07
-6.568310013873295e-07
1.222196959396199e-06
4.198434812675589e-07
-1.050566284039005e-06
-7.766228433461946e-07
-1.044956856040143e-06
1.028269995797465e-06
5.676934226795249e-07
-1.728700571768147e-06
-1.259895563868741e-06
1.630538745717043e-07
-1.961233662860365e-07
-1.014565850687844e-06
-2.231918254652469e-07
1.11319668153182e-07
8.161963803677886e-07
-2.110056464536985e-07
5.207157583671527e-08
8.81004571026084e-07
-3.64372410461475e-07
3.480413799135534e-07
1.096792635785771e-06
5.710638885439916e-08
-8.932444629719347e-07
-9.761543699793937e-07
6.754119658676271e-07
-1.682614881656577e-07
-1.694934490427424e-06
2.003112212941145e-07
5.886436289253194e-07
-5.362278010340913e-07
7.553623167028679e-08
7.554061297753302e-07
-4.423814062908944e-07
9.296128957263298e-08
8.530618423755041e-07
-3.851483535354895e-07
2.104611681937389e-07
9.097104590015339e-07
-2.794532809265933e-07
2.824815306440868e-07
1.029170691539371e-06
-1.640813221195619e-07
4.806480756990106e-07
1.305807218042806e-06
1.45676140514354e-07
1.181404779181344e-06
8.550983748167473e-07
1.351094857648403e-06
2.019152428226983e-07
-1.082822641452684e-06
-5.06264559435218e-07
-8.285487468421628e-07
7.405897198026843e-07
7.008791133630659e-07
-9.147892432988631e-07
1.169874263668874e-06
2.679693398981652e-07
-1.048445842400635e-06
1.284133457895673e-06
8.501736773374907e-07
-7.22262085929854e-07
-7.94688830006927e-07
-1.063436366916409e-06
1.01229567283969e-06
2.351363356709413e-07
-2.076249800486705e-06
-1.309014745701704e-06
2.095318870811198e-07
2.285175865533071e-07
-7.471307564120248e-07
-2.612041643289518e-07
1.345636119718025e-07
8.32719698904271e-07
-2.149364670789018e-07
4.061396725157596e-08
8.922406215458238e-07
-3.660055876740281e-07
3.380125583029967e-07
1.113484566909723e-06
8.396483067216489e-08
-8.931208839978705e-07
-1.003122843905262e-06
6.687208858700158e-07
-3.01194355232174e-07
-1.863696116741407e-06
1.854496082592884e-07
6.156601197655041e-07
-5.475359964227884e-07
5.879844543351612e-08
7.803403267751199e-07
-4.51023852163275e-07
7.592836022930058e-08
8.790946402807814e-07
-3.950558310604704e-07
1.938119597808168e-07
9.356618608996864e-07
-2.892590995599932e-07
2.651729331504536e-07
1.054278153967107e-06
-1.752604557945763e-07
4.623946730192996e-07
1.328891603387511e-06
1.301721510477245e-07
1.209740017059341e-06
1.031292820883312e-06
1.448362084893716e-06
9.081216850640599e-08
-1.218610228241293e-06
-5.132498977597244e-07
-8.727420558294586e-07
7.577645371515151e-07
8.882111768611e-07
-7.980670337096505e-07
1.161846044861823e-06
1.389569936922741e-07
-1.231290484770265e-06
1.31056597855807e-06
1.044536351840404e-06
-5.774533989463241e-07
-7.991638481988984e-07
-1.090963585919331e-06
1.011194317913742e-06
1.37565848971718e-07
-2.224004852150809e-06
-1.362686527740799e-06
2.32604749314847e-07
4.060047890932248e-07
-6.678710263087801e-07
-2.892253812927569e-07
1.502359436519474e-07
8.482133972065794e-07
-2.222364694876961e-07
2.661429576061431e-08
9.086815113107328e-07
-3.701388340739726e-07
3.256588360554e-07
1.133695093847164e-06
1.112006937879271e-07
-8.899047161583645e-07
-1.032048517759646e-06
6.695946802008047e-07
-2.923085996959494e-07
-1.900562844891573e-06
1.666994324320707e-07
6.346533498102084e-07
-5.545223868367828e-07
4.474742022169496e-08
7.975669271439003e-07
-4.551812830905557e-07
6.180077912408211e-08
8.97726683666204e-07
-4.006790200567558e-07
1.801150730395886e-07
9.542020615336781e-07
-2.947386566260343e-07
2.507898457949862e-07
1.071938930134446e-06
-1.82138325401113e-07
4.470270615098976e-07
1.344986946676416e-06
1.183039960216859e-07
1.227537097969706e-06
1.057474482116934e-06
1.430085594443032e-06
1.313084448192948e-07
-1.232051496408862e-06
-5.223767741155981e-07
-9.096966944363213e-07
7.62459038650351e-07
9.283590071061881e-07
-8.048974773135118e-07
1.167953438457011e-06
1.521352028073295e-07
-1.282795359962903e-06
1.31930551746634e-06
1.090777192601649e-06
-5.524398857583821e-07
-7.949224771114015e-07
-1.121413175379406e-06
1.017811528488807e-06
1.798016571988945e-07
-2.24428690014566e-06
-1.412818379608949e-06
2.438742094227069e-07
4.296973973904232e-07
-7.073732234377921e-07
-3.12461805703358e-07
1.600392368432128e-07
8.572842753066664e-07
-2.307084808969323e-07
1.254003725014092e-08
9.247138059850875e-07
-3.734044599688303e-07
3.132550623500124e-07
1.151428832792526e-06
1.36303190788614e-07
-8.820926607043919e-07
-1.056712384652653e-06
6.681092132074418e-07
-2.248258253607959e-07
-1.874654135621372e-06
1.466894640744619e-07
6.463076273302057e-07
-5.576685199102286e-07
3.29044292824961e-08
8.084940863683728e-07
-4.555077466996717e-07
5.026138363811905e-08
9.104558614961143e-07
-4.028093775022073e-07
1.689096866424834e-07
9.667905345909844e-07
-2.967704025458286e-07
2.389562422528742e-07
1.08370106347375e-06
-1.853320588106531e-07
4.338899747678707e-07
1.355263852717563e-06
1.097785896478419e-07
1.241873723781007e-06
1.018524683403602e-06
1.34963379547678e-06
2.418569781303992e-07
-1.189879880107508e-06
-5.297727268387672e-07
-9.39518294739683e-07
7.607034440163816e-07
9.026722558677118e-07
-8.603095927837928e-07
1.174979094140888e-06
2.219147074532865e-07
-1.270441127713978e-06
1.319167328710719e-06
1.068512415791886e-06
-5.78372739118455e-07
-7.836217179974651e-07
-1.147599422709345e-06
1.021325377191646e-06
2.724251635168031e-07
-2.203415518022433e-06
-1.454529177966306e-06
2.491639617455356e-07
3.809673937285619e-07
-7.944594324436889e-07
-3.31765036717203e-07
1.625607630367256e-07
8.590770155459464e-07
-2.370731923320108e-07
6.750295748901258e-11
9.364873031107124e-07
-3.735149399076416e-07
3.024273067881111e-07
1.162821676974049e-06
1.579618541182816e-07
-8.692644184168792e-07
-1.074351963605134e-06
6.618766686356784e-07
-1.40942050030078e-07
-1.820655718535363e-06
1.277136636218079e-07
6.506694763858445e-07
-5.567681755953518e-07
2.307940757733688e-08
8.131156655179948e-07
-4.520453767683747e-07
4.104537100015166e-08
9.170735806682849e-07
-4.011611527787861e-07
1.599791407913609e-07
9.732714642331108e-07
-2.950420348752842e-07
2.295403791112618e-07
1.089490231857997e-06
-1.844315569708355e-07
4.23067670761138e-07
1.360050240224729e-06
1.04587489722365e-07
1.252203958588986e-06
9.579922290970552e-07
1.246493109749822e-06
3.713552534457161e-07
-1.127011200726317e-06
-5.32460416087173e-07
-9.617203371996311e-07
7.524354120934606e-07
8.50955869867678e-07
-9.255377172109036e-07
1.177574781078126e-06
3.068127160322089e-07
-1.228559282969317e-06
1.312289749806601e-06
1.017006384104281e-06
-6.198395673069949e-07
-7.679625223336494e-07
-1.167029715887474e-06
1.01825924264804e-06
3.725015031121795e-07
-2.134912721092652e-06
-1.484271884448472e-06
2.481375918173103e-07
3.048470598261445e-07
-8.894630095800795e-07
-3.473054508464072e-07
1.605424403758915e-07
8.511645966813044e-07
-2.409850244433972e-07
-1.040657132470994e-08
9.421812794897239e-07
-3.693454860669998e-07
2.935764840620516e-07
1.16613448384475e-06
1.760022653052313e-07
-8.50655577590125e-07
-1.083502803294218e-06
6.476983080526323e-07
-6.129744657759388e-08
-1.756478001097595e-06
1.094589031133841e-07
6.480890692696694e-07
-5.517838721646718e-07
1.489315557097081e-08
8.116346639651228e-07
-4.444699390251958e-07
3.403857680421714e-08
9.178330867860697e-07
-3.955458225195819e-07
1.530627583308435e-07
9.738682565623102e-07
-2.89444649041133e-07
2.223005638486384e-07
1.089528150913984e-06
-1.793117306452853e-07
4.14223251251864e-07
1.359356323265856e-06
1.027258664906033e-07
1.260752954899812e-06
8.961575114877202e-07
1.131958948404758e-06
5.029907148592616e-07
-1.058812299634428e-06
-5.308261482783889e-07
-9.768481229441622e-07
7.395067592685812e-07
7.935344712698807e-07
-9.818367853535556e-07
1.172884863754909e-06
3.845335685155198e-07
-1.174622095950053e-06
1.300211334463197e-06
9.566233764094468e-07
-6.589847182624492e-07
-7.471912468648109e-07
-1.177676898098805e-06
1.005506100547371e-06
4.57545922584846e-07
-2.056070028798807e-06
-1.502755749940278e-06
2.423000966653091e-07
2.19432432483023e-07
-9.752014752545414e-07
-3.591016914587116e-07
1.52455732443673e-07
8.358738044449756e-07
-2.403667074198387e-07
-1.855212595063942e-08
9.407244178496179e-07
-3.601824709149266e-07
2.867592034897529e-07
1.1598924276185e-06
1.896391618790795e-07
-8.257429826507587e-07
-1.083253840772171e-06
6.260710376554095e-07
4.555023994390032e-09
-1.689953819533253e-06
9.216886598554177e-08
6.384033134643772e-07
-5.423175603544484e-07
8.026499448993854e-09
8.039794666758776e-07
-4.327449188039233e-07
2.87471055205938e-08
9.123787506262925e-07
-3.855138438239335e-07
1.477715158688457e-07
9.683174907405078e-07
-2.79469723237789e-07
2.169266626818747e-07
1.083620718435877e-06
-1.693438668580198e-07
4.071626169652893e-07
1.353477234103671e-06
1.04309380159339e-07
1.2650790360652e-06
8.436083565885095e-07
1.024365258123731e-06
6.172993206906743e-07
-9.944891751447395e-07
-5.227813022044705e-07
-9.836935489091269e-07
7.19811628868813e-07
7.39846043137298e-07
-1.019891074247217e-06
1.15964634115528e-06
4.46823212308057e-07
-1.116406397096869e-06
1.281530861955962e-06
8.964915603607872e-07
-6.877507165429379e-07
-7.22500957016116e-07
-1.179309106874852e-06
9.825911310042625e-07
5.18578308977104e-07
-1.973417279709999e-06
-1.508434528632099e-06
2.292675832732745e-07
1.387637449507598e-07
-1.040436818058077e-06
-3.664867010135235e-07
1.394713581652368e-07
8.108722033940204e-07
-2.350985822682447e-07
-2.425202561154261e-08
9.305619411533367e-07
-3.449303780138328e-07
2.817862988210275e-07
1.142226764040662e-06
1.984615650331829e-07
-7.929917034571836e-07
-1.071793357009682e-06
5.944281430532257e-07
5.439375625596472e-08
-1.619550675142007e-06
7.483354091832351e-08
6.204297212637352e-07
-5.273586945097445e-07
2.399917784553493e-09
7.890347378635309e-07
-4.156890743075285e-07
2.541861441285494e-08
8.995728178338596e-07
-3.699145595745873e-07
1.442223348350575e-07
9.555192515938479e-07
-2.640110648892098e-07
2.135517485269898e-07
1.070617918802634e-06
-1.533654122028913e-07
4.01835030458503e-07
1.341164161614844e-06
1.102465379594412e-07
1.265226987387064e-06
8.008822851988085e-07
9.215579610897949e-07
7.142283764383983e-07
-9.325989710015009e-07
-5.080537539048431e-07
-9.80848247491242e-07
6.928786470145972e-07
6.906794047519899e-07
-1.036755157611394e-06
1.135823631893954e-06
4.915174591042583e-07
-1.053491433864471e-06
1.254580101527846e-06
8.372741106773778e-07
-7.039661596074946e-07
-6.920012087548145e-07
-1.169762777120938e-06
9.464794413560538e-07
5.52232581773265e-07
-1.886608188383002e-06
-1.500741704727561e-06
2.080580093138848e-07
6.202118259898683e-08
-1.083946380202506e-06
-3.694004688176376e-07
1.198777031909163e-07
7.768957887254697e-07
-2.232925588024104e-07
-2.705281968200488e-08
9.101432806637373e-07
-3.224806604792302e-07
2.785316195430998e-07
1.110836567955083e-06
2.011658476175048e-07
-7.514060483069883e-07
-1.047023307503693e-06
5.526017658266938e-07
8.66835375481546e-08
-1.543182334561025e-06
5.748224808189122e-08
5.928316505624684e-07
-5.057337319545857e-07
-1.909022654567349e-09
7.654218350882365e-07
-3.924375318962075e-07
2.402767000390334e-08
8.77776174442408e-07
-3.474784489176406e-07
1.424828022410522e-07
9.339875495394964e-07
-2.417379230488221e-07
2.123639991501617e-07
1.049084518081056e-06
-1.298693866846489e-07
3.984597818670121e-07
1.321337821299257e-06
1.213791842141514e-07
1.257909086920595e-06
7.693471106283919e-07
8.321570358587101e-07
7.843038529233088e-07
-8.740221536734561e-07
-4.845875692832394e-07
-9.653618011516324e-07
6.559332530602304e-07
6.460197568825111e-07
-1.029101973048326e-06
1.099769912325395e-06
5.186715021092774e-07
-9.843868252023835e-07
1.216132477880745e-06
7.783490498357976e-07
-7.064502137910288e-07
-6.55741976347461e-07
-1.147580232574789e-06
8.956265326208785e-07
5.568524317639215e-07
-1.793437665409348e-06
-1.476626322830073e-06
1.760400352041682e-07
-6.700407292625076e-09
-1.101846432660488e-06
-3.668014128899566e-07
9.452088002660714e-08
7.315290128249765e-07
-2.054392245581365e-07
-2.687468808766378e-08
8.781366563978109e-07
-2.922222614026649e-07
2.765085682534368e-07
1.064203635485841e-06
1.970856945929897e-07
-7.003227210874294e-07
-1.007182046772894e-06
4.995070389150859e-07
1.029155220415647e-07
-1.455873163459963e-06
3.977591648627852e-08
5.547713156403232e-07
-4.76633716380172e-07
-4.798438791405059e-09
7.320577797772573e-07
-3.620120345471933e-07
2.494413326031701e-08
8.4586113676374e-07
-3.171966425326527e-07
1.428128207198656e-07
9.026775725095344e-07
-2.116667196733264e-07
2.136615545431706e-07
1.017909667315497e-06
-9.782098404996375e-08
3.971176729661093e-07
1.292611846188554e-06
1.385485232595381e-07
1.241957941329547e-06
7.453900779793175e-07
7.518966784358757e-07
8.295627670153419e-07
-8.141891923031192e-07
-4.520393427034787e-07
-9.351187946026216e-07
6.086807094939241e-07
6.02501307505618e-07
-9.972317890340147e-07
1.050101991751371e-06
5.303487166162501e-07
-9.059035134194007e-07
1.164159284333244e-06
7.163391500563894e-07
-6.964030386778678e-07
-6.125427140684104e-07
-1.110679631187004e-06
8.280446339932851e-07
5.333343276065242e-07
-1.691060356336684e-06
-1.434957444058554e-06
1.326392171879406e-07
-7.148658429568846e-08
-1.09649602841364e-06
-3.588162960374563e-07
6.369731793858776e-08
6.758854259576328e-07
-1.817744526045668e-07
-2.384012115487264e-08
8.347649083276772e-07
-2.547590480198908e-07
2.749430094935236e-07
1.002509907914428e-06
1.858792224511617e-07
-6.408942627348857e-07
-9.522878063161454e-07
4.369791547304949e-07
1.049402973253226e-07
-1.356737506588059e-06
2.214630847601347e-08
5.070934909952261e-07
-4.403139228221384e-07
-6.289008351323115e-09
6.89184886600905e-07
-3.247742511087347e-07
2.798265742832912e-08
8.039488960673181e-07
-2.792429943957773e-07
1.451074188088851e-07
8.618224711959234e-07
-1.739202849109162e-07
2.174348914700963e-07
9.773368559790209e-07
-5.728869381666728e-08
3.977272207446987e-07
1.254971306159413e-06
1.615766098505825e-07
1.215492439910199e-06
7.275736667749897e-07
6.830856296627721e-07
8.482182316924109e-07
-7.525927688419877e-07
-4.105013069254712e-07
-8.889887423962504e-07
5.513346890265298e-07
5.589596626081799e-07
-9.423286550964958e-07
9.872807864993145e-07
5.287566527339649e-07
-8.178099887935315e-07
1.097668465501976e-06
6.501870002637932e-07
-6.754079060096011e-07
-5.635250988527852e-07
-1.0592924088995e-06
7.447014411523404e-07
4.845621502447386e-07
-1.578683883454833e-06
-1.375491440478352e-06
7.875703488690876e-08
-1.308359096290881e-07
-1.068919192276154e-06
-3.456847231159331e-07
2.963121369032831e-08
6.111048812226096e-07
-1.54759843171301e-07
-1.871777583762243e-08
7.816214517479889e-07
-2.121130029229141e-07
2.727186232545803e-07
9.281876718982744e-07
1.687043228623924e-07
-5.755819855587474e-07
-8.848056692521797e-07
3.677558584135239e-07
9.614865346060281e-08
-1.246784492099027e-06
4.925954549581716e-09
4.523586960094286e-07
-3.982453566874863e-07
-6.592288507938252e-09
6.386122877197875e-07
-2.820164410148106e-07
3.291686115387802e-08
7.53890016303104e-07
-2.349730758605535e-07
1.490980033597178e-07
8.13248600459827e-07
-1.298559863096153e-07
2.233884652734089e-07
9.290952915257051e-07
-9.791181354223768e-09
3.998038663520609e-07
1.209398714654317e-06
1.894403081261468e-07
1.17887313493536e-06
7.12799073537072e-07
6.227604784213455e-07
8.443862185758436e-07
-6.873440561286951e-07
-3.61853602280161e-07
-8.284799425719761e-07
4.868391751702583e-07
5.146292038925656e-07
-8.688758248935186e-07
9.133316158639853e-07
5.16845207804852e-07
-7.2221716720254e-07
1.018153047429147e-06
5.802376089706896e-07
-6.457675734984199e-07
-5.104344204810931e-07
-9.955278814818104e-07
6.485001581250336e-07
4.164088715855856e-07
-1.458531405803566e-06
-1.301658529229007e-06
1.733433106271312e-08
-1.85813924404761e-07
-1.024403839868208e-06
-3.29131956230198e-07
-5.553249107311193e-09
5.411426134549093e-07
-1.265986886559412e-07
-1.245991477651688e-08
7.217667803973073e-07
-1.671888710279686e-07
2.687674201709225e-07
8.454378012458001e-07
1.476483952541462e-07
-5.080409576500162e-07
-8.092846390276873e-07
2.963006124343878e-07
8.039288352074e-08
-1.130485930225207e-06
-1.132028735279271e-08
3.942568843995878e-07
-3.527432257425663e-07
-6.006052726495035e-09
5.8328414701268e-07
-2.360444305634635e-07
3.912183680044556e-08
6.986314469246461e-07
-1.867659918101994e-07
1.542337751623196e-07
7.598654112758217e-07
-8.18168099888266e-08
2.309330013778479e-07
8.760250464670468e-07
4.210774124149625e-08
4.027006996450329e-07
1.157985899651922e-06
2.203356201258599e-07
1.133374824687593e-06
6.995381587263669e-07
5.709167901280837e-07
8.223507060222514e-07
-6.19548787518384e-07
-3.091014581512848e-07
-7.571906384265292e-07
4.190573597523186e-07
4.705574406729201e-07
-7.828541949662355e-07
8.320782285579976e-07
4.975258629982211e-07
-6.235337968546839e-07
9.28881875239901e-07
5.090278793545517e-07
-6.100566421564234e-07
-4.56675079786589e-07
-9.239496958407518e-07
5.450395534081244e-07
3.367030336694023e-07
-1.334857772367461e-06
-1.218364465846174e-06
-4.730302521490391e-08
-2.342507542740332e-07
-9.677807147121527e-07
-3.109406650480463e-07
-3.954494071102861e-08
4.696943813108407e-07
-1.000069828176937e-07
-6.113704545280274e-09
6.585319322738431e-07
-1.231628523853301e-07
2.623895892399423e-07
7.592559455057179e-07
1.252459856226808e-07
-4.418961497965489e-07
-7.309123528390143e-07
2.268858166360853e-07
6.117822254210646e-08
-1.013042588197385e-06
-2.614327463104876e-08
3.363999643579612e-07
-3.063745207508167e-07
-4.741884607362308e-09
5.265550177234048e-07
-1.893883761328708e-07
4.614467716925479e-08
6.416098528677125e-07
-1.373622064564604e-07
1.600675021061245e-07
7.050024129229618e-07
-3.257456774115896e-08
2.394707680056646e-07
8.213226520545631e-07
9.527661818053703e-08
4.057817660561453e-07
1.103165748761975e-06
2.522434461344736e-07
1.081612311190585e-06
6.861331205892611e-07
5.262356473359518e-07
7.880154200039513e-07
-5.501906761258656e-07
-2.555313066133319e-07
-6.800048626278024e-07
3.525646400597018e-07
4.279399810386638e-07
-6.911335489370859e-07
7.481035573558179e-07
4.734719202213961e-07
-5.269759222422356e-07
8.346212374965045e-07
4.396934903955741e-07
-5.706983793170299e-07
-4.053618341576179e-07
-8.496811868690825e-07
4.404178401256919e-07
2.533566663095438e-07
-1.213230092213246e-06
-1.131698726657942e-06
-1.11016344838782e-07
-2.754963687044088e-07
-9.053234404951959e-07
-2.929908010705973e-07
-7.076383214482945e-08
4.004047954459428e-07
-7.654621114556338e-08
-3.144276367024142e-10
5.951341411964918e-07
-8.264229792993029e-08
2.534738101354322e-07
6.743239664111694e-07
1.035153347318356e-07
-3.801454569094958e-07
-6.540193285857932e-07
1.63079032402443e-07
4.123664520188186e-08
-8.995915773092136e-07
-3.90808121193552e-08
2.817333556763449e-07
-2.615015223735471e-07
-2.877391005759383e-09
4.713907816899178e-07
-1.444781411323637e-07
5.358486887879642e-08
5.858737970447817e-07
-8.939831001196692e-08
1.662412779430945e-07
6.516150284305574e-07
1.521868880646141e-08
2.484987839788227e-07
7.678679299469215e-07
1.46729177015445e-07
4.086441625301042e-07
1.047376090524287e-06
2.833066892519871e-07
1.026447597075663e-06
6.720572006594784e-07
4.883809560692328e-07
7.467562591886815e-07
-4.813364528473019e-07
-2.041049091801642e-07
-6.015621892424764e-07
2.909678080628582e-07
3.878827628222651e-07
-5.997103988928357e-07
6.657756365211375e-07
4.46746050819893e-07
-4.368872555031792e-07
7.402179580700159e-07
3.74965592689779e-07
-5.301478854149232e-07
-3.590833250930313e-07
-7.772311988152401e-07
3.401806336546966e-07
1.727129156516152e-07
-1.09811766314888e-06
-1.046287674580809e-06
-1.701894439831423e-07
-3.085750357206722e-07
-8.417345032844719e-07
-2.765101591193492e-07
-9.831681481288498e-08
3.354171183323427e-07
-5.736212978724508e-08
4.443866956456024e-09
5.33935652384642e-07
-4.73677900538174e-08
2.423265931395799e-07
5.941234506007945e-07
8.373320332401171e-08
-3.245973325718336e-07
-5.814863209304221e-07
1.069210624682888e-07
2.21583024809166e-08
-7.937706438415765e-07
-4.986694878642197e-08
2.321610285525416e-07
-2.198640989053766e-07
-4.389967972301167e-10
4.19931658185753e-07
-1.030043059048048e-07
6.127390430630111e-08
5.336561079057655e-07
-4.475853063094509e-08
1.726121093516564e-07
6.018091282169837e-07
5.961702611641814e-08
2.576769049302966e-07
7.176723957453629e-07
1.942218369233212e-07
4.111104239878652e-07
9.925234790438714e-07
3.121368077624428e-07
9.705209610766781e-07
6.569758603451912e-07
4.565623641392478e-07
7.028513155422859e-07
-4.144765260486847e-07
-1.566740459676533e-07
-5.253339245593953e-07
2.366643649186852e-07
3.50882039022585e-07
-5.128525985149729e-07
5.883216022637597e-07
4.187770407485236e-07
-3.560786402450473e-07
6.496449206262051e-07
3.165274709958707e-07
-4.901072084135335e-07
-3.190419247378988e-07
-7.094584018015907e-07
2.480040564340755e-07
9.857978612497821e-08
-9.928288421782202e-07
-9.65517298637842e-07
-2.228156504288957e-07
-3.340307798516515e-07
-7.810180011548812e-07
-2.623117791912926e-07
-1.219629856525382e-07
2.760797851814338e-07
-4.252783522988352e-08
7.973462718369676e-09
4.76531397073689e-07
-1.798655509454105e-08
2.295117403352649e-07
5.207007976453213e-07
6.646941605813043e-08
-2.759912191976947e-07
-5.148680751860912e-07
5.928789410436415e-08
4.916844829504428e-09
-6.97706652399368e-07
-5.839674938986868e-08
1.886130438901054e-07
-1.824224147046173e-07
2.513971186318389e-09
3.733415796655924e-07
-6.590782307859426e-08
6.902238791718944e-08
4.861644679001752e-07
-4.524290112034166e-09
1.790512462274934e-07
5.567053408294486e-07
9.951118970609464e-08
2.667523262560351e-07
6.718319005758509e-07
2.364840746257809e-07
4.131732784729081e-07
9.399263649369907e-07
3.378682615592593e-07
9.158374307818601e-07
6.411657380784823e-07
4.301860126952337e-07
6.593774295215584e-07
-3.510398344312925e-07
-1.142329062089824e-07
-4.53579707220443e-07
1.905891382107116e-07
3.17192366464351e-07
-4.331025506280602e-07
5.176337935827369e-07
3.904716315492639e-07
-2.856011796419812e-07
5.655028210734832e-07
2.649326942071516e-07
-4.519374079459966e-07
-2.855689391281122e-07
-6.478160635868345e-07
1.659252597997351e-07
3.282762793092112e-08
-8.986912743028949e-07
-8.909405500601347e-07
-2.677408247339908e-07
-3.52395422329157e-07
-7.250358189584984e-07
-2.507280199197809e-07
-1.418918865032645e-07
2.226906281865918e-07
-3.196439814439628e-08
1.009411802384078e-08
4.236060785327819e-07
5.474506696437648e-09
2.155984654297596e-07
4.54875095689625e-07
5.18533576372301e-08
-2.342420919672077e-07
-4.548071007178859e-07
2.005121188048463e-08
-1.012637203578965e-08
-6.120682499869544e-07
-6.474494415298949e-08
1.512395958663166e-07
-1.495063110243349e-07
5.886026697260686e-09
3.320859581882948e-07
-3.343564603474522e-08
7.672389966670459e-08
4.439278399983691e-07
3.096328870274528e-08
1.85451645317349e-07
5.167400025950656e-07
1.34531286083571e-07
2.755234712998086e-07
6.307744163027035e-07
2.730352801218616e-07
4.148394831626353e-07
8.903529099895036e-07
3.601099888035665e-07
8.636893976797986e-07
6.247949290001402e-07
4.084720964298323e-07
6.180551107146604e-07
-2.917259796881977e-07
-7.683554430040426e-08
-3.87413478744749e-07
1.52794475440312e-07
2.868232122423054e-07
-3.615730965833919e-07
4.544939773047835e-07
3.624882582784337e-07
-2.254576580162603e-07
4.890927113586517e-07
2.200658065593898e-07
-4.162354214368102e-07
-2.581623711048762e-07
-5.927141994161991e-07
9.444430767735595e-08
-2.411571508779147e-08
-8.161092423882809e-07
-8.233792795412888e-07
-3.050302019263339e-07
-3.648951156425803e-07
-6.749099346267294e-07
-2.417301139427669e-07
-1.584403544825012e-07
1.75201426342266e-07
-2.505928459019572e-08
1.089003108272873e-08
3.754000532002368e-07
2.352916350311782e-08
2.01114739076729e-07
3.966556523407007e-07
3.973421383376461e-08
-1.988259124708083e-07
-4.012644478210184e-07
-1.139132313033815e-08
-2.282730202922331e-08
-5.366351336957066e-07
-6.905547574195794e-08
1.19748317158268e-07
-1.210002373583002e-07
9.565488465771781e-09
2.960939510197686e-07
-5.465080261914608e-09
8.422489917645499e-08
4.069053370379223e-07
6.177397451569309e-08
1.91676789278822e-07
4.818369701444715e-07
1.647548442591766e-07
2.838212420117848e-07
5.944698447369426e-07
3.039525740888127e-07