/*--------------------------------*- C++ -*----------------------------------*\
| =========                 |                                                 |
| \\      /  F ield         | OpenFOAM: The Open Source CFD Toolbox           |
|  \\    /   O peration     | Version:  v1812                                 |
|   \\  /    A nd           | Web:      www.OpenFOAM.com                      |
|    \\/     M anipulation  |                                                 |
\*---------------------------------------------------------------------------*/
FoamFile
{
    version     2.0;
    format      ascii;
    class       surfaceScalarField;
    location    "10000";
    object      phi;
}
// * * * * * * * * * * * * * * * * * * * * * * * * * * * * * * * * * * * * * //

dimensions      [0 3 -1 0 0 0 0];
oriented        oriented;


internalField   nonuniform List<scalar> 
7417
(
-0.0008386841889595402
6.837750806972548e-09
-0.0008386823092902634
-1.656163621914499e-09
-0.0008386847593566448
1.785340969521579e-09
-0.0008386843620601814
-2.493562524686714e-10
-0.0008386823961109108
-1.897448977843415e-09
-0.000838684583523478
1.72531440812697e-09
-0.0008386837528094178
-6.38134596355656e-10
-0.0008386806349243276
-2.953439179519168e-09
-0.0008386820998347261
1.06310498490469e-09
-0.0008386825472282609
1.86717582272875e-10
-0.000838682279024376
1.122989109767188e-11
-0.0008386824744710566
5.82596279135351e-10
-0.0008386940436426144
9.513603290016594e-09
-0.0008387843139727385
8.028723934029443e-08
-0.0008388567904381696
6.197282910307775e-08
-0.0008388507565066005
-6.237777496870853e-09
-0.000838849918292697
-4.76698084283885e-10
-0.0008388519558509445
1.844501171920183e-09
-0.0008388515989758981
-4.476390695450063e-10
-0.0008388496194130243
-1.443491428046399e-09
-0.0008388519573618445
1.942782154546634e-09
-0.0008388515389512298
-4.975259160113451e-10
-0.0008388496823410193
-1.419030236556252e-09
-0.0008388519127528902
2.042563013527957e-09
-0.0008388514624221697
-5.977576118517182e-10
-0.0008388496110317957
-1.535845898755215e-09
-0.0008388518273921262
1.950921576872168e-09
-0.0008388513770138299
-5.612508402161565e-10
-0.0008388494594308181
-1.487114571163575e-09
-0.0008388515899769309
1.930003290686375e-09
-0.0008388510046587839
-7.143880528692166e-10
-0.0008388490893845661
-1.556892974540242e-09
-0.0008388503844999077
8.44254442887976e-10
-0.0008388362773029815
-1.21534854424513e-08
-0.0008387486189757692
-7.841473009274119e-08
-0.000838687176606627
-4.969165139780002e-08
-0.000838782436986087
7.995002453014435e-08
-0.0008388516939863768
6.221198847786707e-08
-0.0008388472264234775
-4.467138301469054e-09
-0.0008388509362797816
3.330384352623989e-09
-0.000838837771032769
-1.140667170254213e-08
-0.0008387501938962922
-7.64564084368933e-08
-0.0008386791758354916
-6.36624456451222e-08
-0.0008386934980845619
1.254978797171297e-08
-0.0008387837310072342
7.764772064872977e-08
-0.0008388550624839098
6.331223717178028e-08
-0.0008388358307534772
-1.75247392614096e-08
-0.0008387495260767186
-7.554080012187067e-08
-0.0008386789105586007
-6.351198365485447e-08
-0.0008386820882262439
3.530863438807747e-09
-0.0008386816847783796
1.28269462350859e-11
-0.0008386920379048331
8.427220290181061e-09
-0.000838780749739941
7.581858913566457e-08
-0.0008388533356626766
6.450854163896194e-08
-0.0008388508387975226
-2.662159924856672e-09
-0.0008388382356036332
-1.088790751824548e-08
-0.0008387506306084638
-7.82641969749672e-08
-5.79397784378998e-08
-0.0006265740941349173
5.201575746645996e-09
-0.000626568202438704
-7.08820433429077e-09
-0.000626568676809708
6.043317911855682e-10
-0.0006265716093658701
3.154845662496476e-09
-0.0006265679829086376
-5.173259027065813e-09
-0.0006265686183447634
1.257468198796923e-09
-0.0006265704479480011
1.777090566109824e-09
-0.0006265659319867717
-7.01288447813202e-09
-0.0006265648159345684
-1.182748447409464e-09
-0.0006265681000264019
2.999955948579984e-09
-0.0006265699292237225
2.290986321981591e-09
-0.0006265683724309453
4.895175387889356e-11
-0.0006265721417652169
9.554414182065907e-09
-0.0006266998112146889
1.809269456177449e-07
-0.0006268227669437976
1.603237915942131e-07
-0.0006268183682476239
-1.048894843411847e-08
-0.0006268105137874706
-7.393625320484378e-09
-0.0006268178875438258
8.621076507610837e-09
-0.0006268190685768567
3.515755229445153e-10
-0.0006268100369089982
-9.29211741451799e-09
-0.0006268179045313923
9.075439645857328e-09
-0.000626818867743108
1.169716738709754e-10
-0.0006268100541611421
-9.147037215447574e-09
-0.0006268177515970777
9.154741372253409e-09
-0.0006268187405355825
-1.923459081233657e-11
-0.0006268098769938493
-9.404200999148531e-09
-0.0006268175420320762
8.970400351584534e-09
-0.0006268184518611587
-3.823881876580329e-11
-0.0006268094567104548
-9.405902391882255e-09
-0.0006268168966028892
8.767737312018466e-09
-0.0006268174141840844
-6.151367378141744e-10
-0.0006268079388315441
-1.007580496271785e-08
-0.0006268142526267828
6.329359157390413e-09
-0.0006267974341752612
-2.507056551956039e-08
-0.0006266693341272195
-1.796348537041612e-07
-0.0006265658778511719
-1.306205340389843e-07
-0.0006266937946866996
1.768733917262835e-07
-0.0006268094844680975
1.567900640147188e-07
-0.0006268081091653321
-5.526055420202173e-09
-0.0006268166275467858
1.072481576567483e-08
-0.0006267996022472926
-2.489747020427699e-08
-0.0006266724441011553
-1.753324555584803e-07
-0.0006265657875645073
-1.480433783810768e-07
-0.0006265703109433624
1.306009926663521e-08
-0.0006266975966054579
1.760848006066617e-07
-0.000626818339803757
1.611216174531314e-07
-0.0006267963809204879
-3.542548054775509e-08
-0.0006266696369769771
-1.7452511351154e-07
-0.0006265664949637134
-1.452786488334424e-07
-0.0006265686948698334
5.766780068718109e-09
-0.0006265667619176302
-7.707048317755635e-10
-0.0006265686585341761
6.572909929314657e-09
-0.0006266969522814479
1.746449388901616e-07
-0.0006268156977975753
1.607393787624436e-07
-0.0006268183866887944
3.88205449442616e-11
-0.0006268013023942919
-2.444924009841173e-08
-0.0006266764154950387
-1.768983179239248e-07
-1.343505120328546e-07
-0.0004268597650004958
-1.366547044748578e-09
-0.0004268549866790092
-1.171743536731871e-08
-0.000426853984337514
-4.365438797407001e-10
-0.0004268572120817603
6.225358386491923e-09
-0.0004268545438996137
-7.940339736347541e-09
-0.0004268539935995012
8.100066991217203e-10
-0.0004268562859798333
4.002777666316879e-09
-0.000426853818835374
-9.566468732356715e-09
-0.0004268523527186443
-2.573437117988556e-09
-0.0004268567753942223
7.339040092263121e-09
-0.0004268591552474896
4.783017356003723e-09
-0.0004268557982766159
-3.294439892269308e-09
-0.0004268484945137771
2.148984136704616e-09
-0.0004268531936869323
1.878301170851402e-07
-0.0004268663403202602
1.760861538661316e-07
-0.0004268674299379445
-9.82941853253652e-09
-0.00042686448333535
-1.047269125426547e-08
-0.0004268682751768262
1.247754372976328e-08
-0.0004268675410645981
-2.989629680913289e-10
-0.000426863998317705
-1.279502047580889e-08
-0.0004268682513939551
1.322660758829147e-08
-0.0004268672606329863
-7.924723979504282e-10
-0.0004268639646707701
-1.256981395207157e-08
-0.0004268680329962001
1.329239236652169e-08
-0.000426867100656152
-8.786467159459534e-10
-0.0004268637332855058
-1.288345173231234e-08
-0.0004268677576485514
1.306988414329024e-08
-0.0004268667134291454
-1.026876243103133e-09
-0.000426863204810038
-1.304719266367483e-08
-0.0004268670061019046
1.262763961545503e-08
-0.0004268655332784006
-2.040802556826496e-09
-0.0004268615941603853
-1.409990038831255e-08
-0.0004268649640199229
9.537976382597696e-09
-0.0004268624520671175
-2.733813257444033e-08
-0.0004268611379771044
-1.8402948210793e-07
-0.0004268484525569454
-1.407903480283215e-07
-0.0004268490016530856
1.755685594311339e-07
-0.0004268618655174658
1.722671078703138e-07
-0.0004268661781881835
-1.526239413827866e-09
-0.0004268674711472511
1.207203337457276e-08
-0.0004268633792942989
-2.879767411908533e-08
-0.0004268619648369356
-1.788907981496172e-07
-0.0004268576724073715
-1.557551286337232e-07
-0.00042684650133735
2.065472896612211e-09
-0.0004268506925839859
1.833079915940855e-07
-0.000426862300319494
1.749180479210088e-07
-0.0004268617827484851
-3.617692898353261e-08
-0.0004268604486244103
-1.781787090562748e-07
-0.0004268608230162488
-1.481652194181454e-07
-0.0004268579661575771
3.467475536606787e-09
-0.0004268547138322334
-4.202607995600486e-09
-0.0004268465770035501
-1.821084942643797e-09
-0.0004268535223250098
1.845957320323087e-07
-0.0004268663015167908
1.754089309165177e-07
-0.0004268696954898214
3.016037497067854e-09
-0.0004268663508037345
-2.768763826923719e-08
-0.0004268671328197757
-1.787694429989833e-07
-1.370017198984615e-07
-0.0002626604603196549
-7.698884417563317e-09
-0.0002626599612979656
-1.174310368508822e-08
-0.0002626596468103394
-1.236702867743124e-09
-0.0002626613177463209
7.808142019370497e-09
-0.0002626597261011059
-9.526415321143551e-09
-0.0002626595635454439
5.015035477574686e-10
-0.0002626606370193958
5.14889895726089e-09
-0.0002626594887992076
-1.069615800562412e-08
-0.0002626591303681192
-3.119199892713031e-09
-0.0002626619185997932
1.000090880079611e-08
-0.0002626630131632533
6.057310089916495e-09
-0.000262660840955703
-5.197968218895549e-09
-0.0002626528950087664
-6.762930978859606e-09
-0.0002625517457157277
8.299054023953306e-08
-0.0002624534188081324
7.497439669360722e-08
-0.0002624536620804968
-1.004169355340599e-08
-0.0002624613099455519
-2.740897818259539e-09
-0.0002624581288321753
9.199305069620445e-09
-0.0002624535283571099
-4.93590000997843e-09
-0.0002624608645285067
-5.229137566238467e-09
-0.0002624580568696655
1.026708191646912e-08
-0.0002624532251485325
-5.62732713286501e-09
-0.0002624607864764805
-4.879724428787427e-09
-0.0002624578060378109
1.023359972146508e-08
-0.0002624530452968197
-5.663369377578455e-09
-0.0002624605319446205
-5.262926293553936e-09
-0.0002624575171324157
9.974449143610103e-09
-0.0002624526487747318
-5.93143107961875e-09
-0.0002624600131024204
-5.562093457060127e-09
-0.0002624568206326441
9.3416445676988e-09
-0.0002624515721219307
-7.350336486985729e-09
-0.0002624586727016225
-6.920667110075479e-09
-0.0002624552493896045
5.85888813281056e-09
-0.0002624648079881775
-1.660506417279545e-08
-0.0002625771750574071
-6.864142391316307e-08
-0.0002626547705995626
-5.900916540384174e-08
-0.0002625511065873745
6.677374454999476e-08
-0.0002624611922877928
8.013527455261987e-08
-0.0002624644925396791
1.311623059861421e-09
-0.0002624562203623819
3.495329948375489e-09
-0.0002624641493000533
-1.991320030036615e-08
-0.0002625762084656333
-6.263285903704845e-08
-0.000262664523038083
-6.482663304535691e-08
-0.0002626511682133782
-1.18204069586987e-08
-0.0002625494589290945
7.823057631720024e-08
-0.0002624502300076352
7.261395286253781e-08
-0.0002624643477591022
-2.150886034771062e-08
-0.0002625765565395012
-6.193014369650473e-08
-0.0002626671446349853
-5.508441965160014e-08
-0.0002626624998052043
-5.06823221504321e-10
-0.0002626604436447494
-6.006662320246095e-09
-0.0002626524477441708
-1.082844695407994e-08
-0.0002625520590623416
8.076042542648257e-08
-0.0002624607077280207
8.087387968651443e-08
-0.0002624576879599905
-6.383637478049296e-10
-0.0002624677224765307
-1.678528073513397e-08
-0.0002625797712892998
-6.367187076993275e-08
-4.68813637564562e-08
-0.0001446476652571068
-1.186240946377514e-08
-0.0001446484626212452
-1.097417226370619e-08
-0.0001446499153987553
5.342865779073347e-10
-0.0001446501663809785
7.844551697529297e-09
-0.0001446484783485404
-1.135794182492268e-08
-0.0001446497289631845
2.061063920345893e-09
-0.0001446495761530392
4.826727456586517e-09
-0.0001446483955744377
-1.203733389135372e-08
-0.0001446502450903085
-9.846819445287499e-10
-0.0001446533800911921
1.316639131261185e-08
-0.0001446535190792091
6.178624909859276e-09
-0.0001446503257829147
-8.586862183593192e-09
-0.0001446476765775132
-8.552000033100846e-09
-0.0001445846047945086
2.711474568831066e-08
-0.0001445158077566868
1.348842372410513e-08
-0.00014451349096761
-1.262305506108987e-08
-0.0001445206260749053
4.094147228277086e-09
-0.0001445173258296501
6.07031081638131e-09
-0.0001445133164589365
-8.804262613432554e-09
-0.000144520162404181
1.419231228650924e-09
-0.0001445171987159504
7.369051715758457e-09
-0.0001445129957002565
-9.704241580007276e-09
-0.0001445200510412278
1.849220328325283e-09
-0.0001445169349462596
7.289750303815026e-09
-0.0001445128070471904
-9.65038414945478e-09
-0.0001445197843761757
1.432786380608192e-09
-0.0001445166453396044
7.032472548962001e-09
-0.0001445124125456452
-1.004982770603095e-08
-0.0001445192820204444
9.782689008097902e-10
-0.0001445159813070414
6.207574874509798e-09
-0.0001445114298594462
-1.178363383732873e-08
-0.0001445181729497473
-4.201259904235376e-10
-0.0001445144791343241
2.197713634163604e-09
-0.0001445210375570068
-1.083846467700374e-08
-0.000144594146992911
-3.368364933075551e-09
-0.0001446469585316874
-8.525856241519004e-09
-0.000144584861885072
9.161255062077473e-09
-0.0001445241041735478
2.565387690961064e-08
-0.0001445241979659798
1.202511616840179e-09
-0.000144515803325791
-4.62227152755858e-09
-0.000144520675275858
-1.576994519836897e-08
-0.0001445943491570754
3.888292515415222e-09
-0.0001446507161672021
-1.520191849037621e-08
-0.0001446461876997404
-1.533677366872268e-08
-0.0001445825375118148
2.32049821682711e-08
-0.0001445130028201608
9.390846104413902e-09
-0.0001445211592698461
-1.4403857792326e-08
-0.0001445958125138488
5.544821773991046e-09
-0.0001446553792963631
-1.978593135563878e-09
-0.0001446534785339143
-2.103092562773915e-09
-0.0001446501977605596
-9.691289187446196e-09
-0.0001446481519436718
-1.214932558378161e-08
-0.0001445873167734494
2.863919321881228e-08
-0.0001445250220941309
2.459427329028663e-08
-0.0001445176788225994
-8.230132231763182e-09
-0.0001445241556929167
-1.11041862911194e-08
-0.0001445972507629523
2.070448814770457e-09
8.851920240315483e-10
-6.316391760975454e-05
-1.56100761152895e-08
-6.316454639373804e-05
-1.008241898553097e-08
-6.316765984367432e-05
3.645366063113828e-09
-6.316700568528944e-05
6.981314236756483e-09
-6.316471368550544e-05
-1.374930934576472e-08
-6.316744016487413e-05
4.954311787347028e-09
-6.316643158924519e-05
3.722110925608599e-09
-6.31646597084318e-05
-1.392371392877391e-08
-6.316830303377515e-05
2.799103974254547e-09
-6.317223485778236e-05
1.712449202023362e-08
-6.317214798513226e-05
6.132789917531098e-09
-6.316737394560373e-05
-1.341564383557664e-08
-6.316735166146851e-05
-8.511915678319002e-09
-6.314668607547664e-05
1.030515199762111e-08
-6.311664457661217e-05
-1.245411887245877e-08
-6.311371587973961e-05
-1.591170273896716e-08
-6.311878530704245e-05
8.970111379756031e-09
-6.31164776142904e-05
3.835154991470192e-09
-6.311342117864447e-05
-1.178807404802834e-08
-6.311824814707288e-05
6.121207518700821e-09
-6.311628333197288e-05
5.478262456336968e-09
-6.311308045364375e-05
-1.28063404117574e-08
-6.311810726693671e-05
6.696064345506751e-09
-6.311600757592869e-05
5.278743614774524e-09
-6.311288250094427e-05
-1.268080750389609e-08
-6.311782893463595e-05
6.225708214254323e-09
-6.311571632826697e-05
5.020745720970682e-09
-6.311248902114126e-05
-1.319952676933879e-08
-6.311733735900111e-05
5.641077905993514e-09
-6.311505896205613e-05
4.00691009188569e-09
-6.311157770598563e-05
-1.520322170420173e-08
-6.311642346881417e-05
4.224510955539099e-09
-6.311361879329695e-05
-5.907598796920806e-10
-6.311761279439689e-05
-6.77721812482213e-09
-6.314615574892155e-05
2.070305450519134e-08
-6.316565054285694e-05
8.316375535381301e-09
-6.314707212110057e-05
-5.636179592337476e-09
-6.312345039033676e-05
5.810625969335792e-09
-6.312253820815823e-05
-1.329760613553444e-10
-6.311553159147817e-05
-1.160410639178191e-08
-6.311771574284273e-05
-1.362333433803534e-08
-6.31482713223034e-05
3.074083197196561e-08
-6.316604133754558e-05
-9.532189721478591e-10
-6.316588190289427e-05
-1.501527199247094e-08
-6.314475289887321e-05
6.639904544146773e-09
-6.31140727640513e-05
-1.786037822296885e-08
-6.311815144232052e-05
-1.078934503605901e-08
-6.315015878326837e-05
3.385952140629864e-08
-6.317292738573813e-05
1.742666416581035e-08
-6.317232342031443e-05
-2.187305741402782e-09
-6.3167310439518e-05
-1.478337875876275e-08
-6.316821580379473e-05
-1.120128790866344e-08
-6.315089316540434e-05
1.596686302933794e-08
-6.312599575369576e-05
2.905525905643699e-09
-6.311796100189546e-05
-1.674835172541249e-08
-6.312118134946692e-05
-8.011673603608375e-09
-6.315072115118536e-05
2.739987629352359e-08
1.39438815519102e-08
-3.907814335635083e-06
-1.918934389081643e-08
-3.907762588135733e-06
-1.023065859634615e-08
-3.911154361986068e-06
7.289742276531443e-09
-3.910311802321351e-06
6.019958652130019e-09
-3.907817449991605e-06
-1.633328256871026e-08
-3.910946063680546e-06
8.292727508896395e-09
-3.909748668357876e-06
2.41255339127106e-09
-3.907789718780885e-06
-1.598480990137345e-08
-3.911779072567385e-06
6.982009336149659e-09
-3.915830481200821e-06
2.120429438985486e-08
-3.915988558777944e-06
6.247421992837508e-09
-3.910908959756021e-06
-1.864063540181868e-08
-3.911488441819411e-06
-7.152626326336398e-09
-3.908253805314698e-06
1.190725264472928e-08
-3.895301462152346e-06
-2.037454359946326e-08
-3.892436421444027e-06
-1.883327253651218e-08
-3.89623087603984e-06
1.256484498042952e-08
-3.894550747744769e-06
2.271535864748412e-09
-3.891986567003134e-06
-1.425765256412685e-08
-3.895636713105919e-06
9.632567035150777e-09
-3.894292157013172e-06
4.182079015000397e-09
-3.891621113228377e-06
-1.540264762087756e-08
-3.895466263139585e-06
1.031918425154128e-08
-3.894002996475323e-06
3.93080188605606e-09
-3.891411591751641e-06
-1.518125116982634e-08
-3.895176904855606e-06
9.80608331450487e-09
-3.893707650225826e-06
3.689338106990408e-09
-3.891017997120144e-06
-1.581806471808603e-08
-3.894693731763629e-06
9.093570808941553e-09
-3.893064341965672e-06
2.48980441958476e-09
-3.890155944147124e-06
-1.803240258827322e-08
-3.89392843120813e-06
7.850942638799071e-09
-3.891650123378957e-06
-2.831099501654386e-09
-3.89462477518309e-06
-4.525106058596101e-09
-3.904504241806259e-06
2.540477747834453e-08
-3.909631259621796e-06
1.19200010656697e-08
-3.908522278192717e-06
-3.798046845348801e-09
-3.900920812471192e-06
2.32456310960083e-09
-3.900098570372328e-06
-9.265415704870755e-10
-3.894066795586184e-06
-1.742452398860192e-08
-3.89504937730132e-06
-1.327874987372147e-08
-3.907443385008507e-06
3.826838394163709e-08
-3.909068129623689e-06
-3.669930896808762e-09
-3.910019664272034e-06
-1.33579601201146e-08
-3.906442098084777e-06
9.089015180955531e-09
-3.89288391331485e-06
-2.720221179021617e-08
-3.895421273784631e-06
-8.971179182149522e-09
-3.909246564282737e-06
4.28231921211709e-08
-3.916397359055881e-06
2.042257736377557e-08
-3.916356520240832e-06
-2.180754708353179e-09
-3.910931406123614e-06
-2.053335204217738e-08
-3.912466658130979e-06
-9.027200620098269e-09
-3.912696290535964e-06
2.22670377122191e-08
-3.904212551137297e-06
-1.523805786418631e-09
-3.896799429755066e-06
-2.417772006856417e-08
-3.898526517734434e-06
-6.964565115079322e-09
-3.909595552507262e-06
3.361681094266987e-08
1.09139304002523e-08
4.424080341318688e-05
-2.232767099518286e-08
4.4241495969567e-05
-1.080481301480838e-08
4.423840996639862e-05
1.04110463295986e-08
4.423914799921651e-05
5.128269919708622e-09
4.424159951766534e-05
-1.886686232031886e-08
4.423860340696442e-05
1.143232118192313e-08
4.423969825747081e-05
1.233487997012283e-09
4.424159462376499e-05
-1.797800241820522e-08
4.423787772166621e-05
1.082663671667388e-08
4.423401036824928e-05
2.511228942472845e-08
4.423347249659273e-05
6.794252787058671e-09
4.423823754709671e-05
-2.348763918036274e-08
4.423778285608176e-05
-6.527356582923158e-09
4.423567581014971e-05
1.738976003082535e-08
4.424251849424993e-05
-2.36128088661429e-08
4.424522308021284e-05
-2.17186418262819e-08
4.424221703562436e-05
1.540165153905746e-08
4.424352970248031e-05
1.023053094180207e-09
4.424584023613607e-05
-1.65089063367247e-08
4.424285325784205e-05
1.249166462202943e-08
4.42438506310059e-05
3.265736287336176e-09
4.424623729939317e-05
-1.77069114041789e-08
4.424305685404146e-05
1.334371922634767e-08
4.424415835196928e-05
2.906980121588145e-09
4.424646318503827e-05
-1.740697409110729e-08
4.424336004986796e-05
1.277677680426799e-08
4.42444623704829e-05
2.675991399808195e-09
4.424686034999782e-05
-1.81519150075365e-08
4.424383973144888e-05
1.195367773040746e-08
4.424508596551806e-05
1.312346741576256e-09
4.424769497067493e-05
-2.058752467817743e-08
4.424449170471724e-05
1.088273727263044e-08
4.424648450677373e-05
-4.769435654650845e-09
4.424392771479313e-05
-2.068631608425991e-09
4.424010277881907e-05
2.538646793773511e-08
4.423963912388897e-05
9.675405213744154e-09
4.423557162541974e-05
3.854802015953601e-09
4.42377852835435e-05
3.377676414829888e-09
4.423820939645768e-05
-1.570175921961918e-09
4.424356572750189e-05
-2.273228252686478e-08
4.424322111727195e-05
-1.308620712323859e-08
4.42369249546409e-05
4.113901042464749e-08
4.424019447853286e-05
-9.951488236201918e-09
4.423924018270057e-05
-1.199729872219763e-08
4.423737421547725e-05
1.495321605166433e-08
4.424480416422537e-05
-3.162770027826507e-08
4.424290470139469e-05
-7.459402318895022e-09
4.423534638590864e-05
4.699887530346573e-08
4.423320876761775e-05
1.970451290436004e-08
4.42328743786203e-05
-1.56653323727007e-09
4.423806921187819e-05
-2.582510567638772e-08
4.423675055387122e-05
-7.553098698729323e-09
4.423147797114622e-05
3.159699044385467e-08
4.423413153456875e-05
-1.335572381637789e-09
4.424066086748695e-05
-3.095931550079589e-08
4.423971901048067e-05
-6.246519725917644e-09
4.423493092636929e-05
3.482259564602787e-08
4.687917380843027e-09
9.025389944865146e-05
-2.524846033837137e-08
9.025509967824353e-05
-1.211726298938001e-08
9.025246061637522e-05
1.32135947346045e-08
9.025301287237389e-05
4.51938304894111e-09
9.025534336757355e-05
-2.124536689554762e-08
9.025265329240881e-05
1.423270442535744e-08
9.025355469398868e-05
2.71122790396695e-10
9.025529772438102e-05
-1.977506013597036e-08
9.025202717906786e-05
1.42006173915422e-08
9.024843143492198e-05
2.871829992795049e-08
9.024747526420527e-05
7.711844317924886e-09
9.025171926151999e-05
-2.781094973715304e-08
9.025159327291943e-05
-5.854555606785779e-09
9.024822669899856e-05
2.338916475860504e-08
9.025280741926723e-05
-2.53808291003342e-08
9.025538479417879e-05
-2.424877447006491e-08
9.025297725922923e-05
1.770148349558389e-08
9.025403144084679e-05
3.50958757377888e-11
9.025618676908851e-05
-1.86061424196704e-08
9.025367344337776e-05
1.493661606180654e-08
9.025442665391122e-05
2.53001572813201e-09
9.025662879240107e-05
-1.98761892646713e-08
9.025391851479027e-05
1.593286733644184e-08
9.025476314906513e-05
2.126970873689825e-09
9.025687963214814e-05
-1.947469924868705e-08
9.025424331984625e-05
1.531553820329309e-08
9.02550847257951e-05
1.913416338648648e-09
9.025728889489473e-05
-2.03224903658671e-08
9.02547303603184e-05
1.438985039017355e-08
9.025569504187418e-05
4.099271402809246e-10
9.025811464853223e-05
-2.296310590639465e-08
9.025528223856372e-05
1.364785570554407e-08
9.025709100659188e-05
-6.567788619728011e-09
9.025475723241027e-05
-2.980913496727356e-10
9.02526714492336e-05
2.46567786137825e-08
9.025352930976313e-05
8.356237752845092e-09
9.024827442725466e-05
1.033872576713846e-08
9.024881362101235e-05
5.029219349958407e-09
9.024880419121276e-05
-1.428640161121332e-09
9.025361429179315e-05
-2.739847341014566e-08
9.02537368691505e-05
-1.368642317233829e-08
9.024944608687661e-05
4.275087194527389e-08
9.025373125152024e-05
-1.652552868495891e-08
9.025304980095556e-05
-1.089793931015223e-08
9.024983725581457e-05
2.161083842594356e-08
9.025498803266117e-05
-3.44901162159121e-08
9.025347344128981e-05
-6.362253992842298e-09
9.024810249947166e-05
4.969866086504243e-08
9.024730846196477e-05
1.83110124132126e-08
9.024660602974686e-05
-9.43186832320098e-10
9.025135791061233e-05
-3.080155845320089e-08
9.025047717007751e-05
-6.20421243935222e-09
9.024434706610841e-05
4.117111344843627e-08
9.024485568570843e-05
3.722331514785662e-10
9.025053668698462e-05
-3.657401668825466e-08
9.025014826542852e-05
-6.36071286865902e-09
9.024746590892413e-05
3.490007259323952e-08
-1.580790321575842e-09
0.0001431424564019335
-2.785676045871583e-08
0.0001431440969901143
-1.371835546033448e-08
0.0001431419409620678
1.537874524288338e-08
0.0001431422945115443
4.069048957566534e-09
0.0001431444874409652
-2.349440307605949e-08
0.0001431421565312293
1.664790809525578e-08
0.0001431428395539799
-4.676908503676117e-10
0.0001431443930748789
-2.13944858846494e-08
0.0001431416026777146
1.70682673810197e-08
0.0001431383042287988
3.20439798742158e-08
0.000143136895390428
9.119731115272256e-09
0.0001431405307029702
-3.150779327001738e-08
0.0001431407994645953
-5.960837475764353e-09
0.0001431373740112343
2.895149553898599e-08
0.0001431408507554177
-2.647147636429083e-08
0.0001431433374128716
-2.679907064972041e-08
0.0001431414870552724
1.943742270343346e-08
0.0001431423263306312
-7.668711398869495e-10
0.0001431443654538636
-2.060833546152923e-08
0.0001431422785320354
1.694287384427455e-08
0.0001431428205276894
2.040523987987119e-09
0.0001431448745602787
-2.187548023689007e-08
0.0001431425808653591
1.812848124068473e-08
0.0001431432024352106
1.55614399252703e-09
0.0001431451648448651
-2.138535585892901e-08
0.0001431429408901894
1.745838197887582e-08
0.000143143555542565
1.357475410283521e-09
0.0001431455998089856
-2.232817638358753e-08
0.0001431434515391163
1.643531528637574e-08
0.0001431441643874352
-2.608121384626087e-10
0.0001431464388272289
-2.52047890041964e-08
0.0001431439074255208
1.606988254079549e-08
0.0001431455721599793
-8.192626178081137e-09
0.0001431433866181182
1.743049205986177e-09
0.0001431417313017229
2.378952543252923e-08
0.0001431429574616301
5.43533533476811e-09
0.0001431375805425009
1.79040109421661e-08
0.0001431375587698948
7.23033026158136e-09
0.0001431371059483914
-1.026258590885902e-09
0.0001431414027030403
-3.16617479317634e-08
0.0001431419581343557
-1.439940989616068e-08
0.000143138483600011
4.394383829365718e-08
0.0001431426274383643
-2.256683864565181e-08
0.0001431422837334394
-1.029445128103938e-08
0.0001431389276718481
2.761433341810442e-08
0.0001431429490081554
-3.660616158482854e-08
0.0001431417489003929
-5.40516369414962e-09
0.0001431373556113687
5.185900579557679e-08
0.0001431368101322407
1.708138154643746e-08
0.0001431356907534194
2.918879465457472e-10
0.0001431399137907147
-3.510779634455966e-08
0.0001431395261287901
-5.67155002038415e-09
0.0001431337629371504
4.959478692638031e-08
0.0001431332112709868
2.723190908345091e-09
0.0001431380767803679
-4.154599390751303e-08
0.0001431381787719485
-6.682937108147748e-09
0.0001431363748696453
3.442662707682023e-08
-7.385988539368346e-09
0.0002131207953943702
-3.030041376080648e-08
0.000213122864017417
-1.588582566952225e-08
0.0002131212826380593
1.705986859278263e-08
0.0002131214367679915
3.887260271078164e-09
0.0002131234587130259
-2.55462885767408e-08
0.0002131215599875592
1.860191227019168e-08
0.0002131220004034026
-9.43405485081201e-10
0.0002131233072033129
-2.272978660388641e-08
0.0002131210472599819
1.938156234030611e-08
0.0002131181167383877
3.497095084458584e-08
0.0002131162075450313
1.09913535030877e-08
0.0002131190878545159
-3.442710749518889e-08
0.0002131198031175401
-6.250314468176931e-09
0.0002131167247430211
3.350828719230208e-08
0.0002131193548753456
-2.748612145302098e-08
0.0002131217431314431
-2.910070401847742e-08
0.0002131205179966782
2.060587368027154e-08
0.0002131211496876667
-1.361124649430775e-09
0.0002131230617163893
-2.247998807078112e-08
0.0002131214539956787
1.852117479906933e-08
0.0002131217806356785
1.71265186539752e-09
0.0002131236678880747
-2.374967149825538e-08
0.0002131218380409521
1.989197031986598e-08
0.0002131222317445352
1.200653972700389e-09
0.0002131240190009338
-2.314600961969189e-08
0.0002131222518725124
1.917436256165786e-08
0.000213122634819879
1.021858417896914e-09
0.0002131244958079303
-2.417416960656078e-08
0.0002131228047192636
1.805848091781848e-08
0.0002131232518746369
-6.732456410110941e-10
0.0002131253687490368
-2.72962781087494e-08
0.0002131231553918227
1.82568767450176e-08
0.0002131246635076872
-9.716735298822734e-09
0.0002131226078693386
3.339433686011779e-09
0.0002131210101121043
2.377844263905185e-08
0.0002131223720705169
4.243573577100578e-09
0.000213117097864873
2.347262384653805e-08
0.0002131168462785819
8.695245955924953e-09
0.0002131159232444552
8.622560024061832e-11
0.0002131196107120794
-3.524669975271695e-08
0.0002131206125676801
-1.57802988616143e-08
0.0002131177168159873
4.529502766257692e-08
0.0002131213054751881
-2.739295762093204e-08
0.0002131213398489372
-1.006162885934355e-08
0.0002131182441975018
3.278500199429016e-08
0.0002131213600665988
-3.844156190243031e-08
0.0002131204687367944
-4.769563385138094e-09
0.0002131167948157006
5.399623834030725e-08
0.0002131161869834411
1.65023639494367e-08
0.0002131145652057809
1.794498277320456e-09
0.0002131181147251061
-3.883286365975469e-08
0.0002131182638449984
-5.463739373608271e-09
0.0002131133399951486
5.656566533076477e-08
0.0002131119910262764
5.324901662166615e-09
0.0002131159359170588
-4.539737098110092e-08
0.0002131165193917626
-7.668111126195962e-09
0.0002131153298815293
3.415996144238049e-08
-1.205615392515398e-08
0.0003112852853427452
-3.234442819999978e-08
0.0003112877650025103
-1.837744854968492e-08
0.0003112869710062389
1.785073682092061e-08
0.0003112869335262854
3.866538088821543e-09
0.0003112886793592867
-2.733072837028908e-08
0.0003112873713267521
1.994918341826738e-08
0.0003112875294426322
-1.138006103497798e-09
0.0003112884651968421
-2.370773728527149e-08
0.0003112868639140177
2.102231140320778e-08
0.0003112844947951674
3.734917915368512e-08
0.0003112820680098034
1.340439026381434e-08
0.0003112838878533899
-3.628653225740187e-08
0.0003112850833891929
-7.252735665045528e-09
0.0003112826708704762
3.719477654659022e-08
0.0003112843575527336
-2.767748141147838e-08
0.0003112865327565319