/*--------------------------------*- C++ -*----------------------------------*\
| =========                 |                                                 |
| \\      /  F ield         | OpenFOAM: The Open Source CFD Toolbox           |
|  \\    /   O peration     | Version:  v1812                                 |
|   \\  /    A nd           | Web:      www.OpenFOAM.com                      |
|    \\/     M anipulation  |                                                 |
\*---------------------------------------------------------------------------*/
FoamFile
{
    version     2.0;
    format      ascii;
    class       volVectorField;
    location    "10000";
    object      U;
}
// * * * * * * * * * * * * * * * * * * * * * * * * * * * * * * * * * * * * * //

dimensions      [0 1 -1 0 0 0 0];


internalField   nonuniform List<vector> 
3770
(
(-0.8851683097810494 -1.951943010184374e-07 -4.481295011785181e-06)
(-0.8851609267747121 -3.053794687548901e-09 -4.481388748072677e-06)
(-0.8851627283888569 -2.530884408898577e-08 -4.481329296182757e-06)
(-0.8851679970019901 2.147832065842321e-08 -4.481159027708434e-06)
(-0.8851608788597655 -1.077267472120763e-08 -4.48142173914048e-06)
(-0.8851632924958686 -1.064102305093327e-08 -4.481277938101518e-06)
(-0.8851670650231439 1.177746521246131e-08 -4.481174706011298e-06)
(-0.8851602626267403 -2.732565892178884e-08 -4.481422696433928e-06)
(-0.8851603096546405 -2.352471551666529e-08 -4.481349856316087e-06)
(-0.8851643757267624 -2.310093475873125e-08 -4.481223865206502e-06)
(-0.8851609445180822 2.046345007146152e-08 -4.481405724484954e-06)
(-0.885163830608111 1.036183932190986e-07 -4.481300199268001e-06)
(-0.8851597901026834 -1.812412774723949e-07 -4.481358613357132e-06)
(-0.8851855775785982 -1.054618479806649e-06 -4.480237323346349e-06)
(-0.8853560047786295 -5.626019182638484e-07 -4.47364452760481e-06)
(-0.8853404895316292 2.431688921593547e-07 -4.474341529439778e-06)
(-0.8853394856897618 7.001896671305486e-09 -4.474334058353545e-06)
(-0.8853391867988366 -3.400914688555452e-08 -4.474392933081582e-06)
(-0.8853433527717162 -1.018034116310747e-08 -4.474214378976571e-06)
(-0.8853386553986738 5.021400680025043e-08 -4.47436746376565e-06)
(-0.8853395013002527 -3.919710912012885e-08 -4.47436214707679e-06)
(-0.8853430236641981 -9.025498459112666e-09 -4.474225181670439e-06)
(-0.8853388058809067 4.901806404543543e-08 -4.474350722533622e-06)
(-0.8853393699077698 -3.862572723423807e-08 -4.474365574687772e-06)
(-0.8853430665307013 -1.001922832774384e-08 -4.474215950787334e-06)
(-0.8853386491629324 4.965511581708197e-08 -4.474350609922171e-06)
(-0.8853393519445781 -3.967694783045216e-08 -4.474361932266818e-06)
(-0.8853429434692976 -1.000767039117428e-08 -4.474217489710648e-06)
(-0.8853385734502668 4.869938939722371e-08 -4.474352418390873e-06)
(-0.8853391378945448 -3.986174293530416e-08 -4.47436646668241e-06)
(-0.8853426278583476 -1.326260304916914e-08 -4.474223659229075e-06)
(-0.88533806462883 2.7404797024414e-08 -4.474355815334372e-06)
(-0.8853390177633013 -8.101653958585579e-08 -4.474351313741366e-06)
(-0.8853405930687512 2.393474807982102e-07 -4.474292748069064e-06)
(-0.8853136718203281 1.154210305100374e-06 -4.47544335365483e-06)
(-0.8851470330647929 2.808204156550516e-07 -4.481978020335994e-06)
(-0.8851832778828015 -1.320763440669721e-06 -4.480163155514031e-06)
(-0.8853531935331632 -5.278368036095538e-07 -4.473703347264939e-06)
(-0.8853323900110336 2.060598559329695e-07 -4.474620037010345e-06)
(-0.885340090112789 -5.67013821531241e-08 -4.474309691240163e-06)
(-0.8853408536124395 2.551608026968488e-07 -4.474281703778038e-06)
(-0.8853163127031415 1.117821938470812e-06 -4.475338371377826e-06)
(-0.8851517682141914 5.453056846161528e-07 -4.481804171125013e-06)
(-0.8851599793448942 -4.677767195184538e-07 -4.481269777881184e-06)
(-0.8851846109697363 -1.021478968320709e-06 -4.480169766677707e-06)
(-0.8853556458986064 -6.168803702741996e-07 -4.473602846417076e-06)
(-0.8853377030419768 4.757612613856496e-07 -4.474352262560757e-06)
(-0.8853149853765078 1.049277768852976e-06 -4.475336197635348e-06)
(-0.8851512750651161 4.508163929098166e-07 -4.481768777572924e-06)
(-0.8851617051427628 -2.510506924942748e-07 -4.481263418726813e-06)
(-0.8851634640821968 1.531396613200647e-07 -4.481212511132957e-06)
(-0.8851580541047511 -2.105981597477047e-07 -4.481298898108735e-06)
(-0.8851827337202393 -1.134297644148656e-06 -4.480185331870304e-06)
(-0.8853515776230758 -5.459044027173784e-07 -4.473745058191842e-06)
(-0.8853378647635218 2.428106496608588e-07 -4.47441444981938e-06)
(-0.885342470459145 1.677577475644741e-07 -4.474184407310198e-06)
(-0.8853156809203704 1.021598255982373e-06 -4.475433114915016e-06)
(-0.8851526014604157 5.878844251165683e-07 -4.481845600266707e-06)
(-0.6612212241584077 -6.055793160914255e-07 -1.326010708970549e-05)
(-0.66121463182931 -2.912812400829805e-07 -1.326016575789363e-05)
(-0.6612073048288115 -4.908165429185032e-07 -1.326041353455431e-05)
(-0.6612174620368738 3.671664404320239e-07 -1.326011984196757e-05)
(-0.6612125399469336 4.447651001815733e-09 -1.32602764246996e-05)
(-0.6612092699381515 -3.768341303595229e-07 -1.326027581193743e-05)
(-0.6612153808492206 3.143136729046608e-07 -1.326014101969018e-05)
(-0.6612119007812475 -3.090604383869108e-08 -1.326023718692216e-05)
(-0.6612057048709156 -4.91304671430234e-07 -1.326029620545314e-05)
(-0.6612105027903642 -6.343875131688957e-09 -1.326018249255227e-05)
(-0.6612123489279358 2.200917125142029e-07 -1.326022455812403e-05)
(-0.6612143829489506 3.007950861121752e-07 -1.326017627988034e-05)
(-0.6612075852900352 -1.326835739530701e-06 -1.326023225936489e-05)
(-0.6612202077929905 -7.287426862839851e-06 -1.325950559997884e-05)
(-0.6614818949425703 -5.031679240673713e-06 -1.324944433356314e-05)
(-0.6614812510904042 6.626279618616145e-07 -1.324958382460673e-05)
(-0.6614695013700754 -4.789822991892885e-08 -1.32499259361961e-05)
(-0.6614650574824307 7.176115415365787e-08 -1.325022111551159e-05)
(-0.6614846171030025 -8.618565216946348e-08 -1.324941540414109e-05)
(-0.6614677606156735 1.234145138216147e-08 -1.324998956164962e-05)
(-0.661465920727672 7.886209386579367e-08 -1.325014195710913e-05)
(-0.6614837714436557 -9.122289853409082e-08 -1.324943947590635e-05)
(-0.6614681295528072 1.389073805024121e-08 -1.324994445926907e-05)
(-0.6614654734568747 7.724597241235271e-08 -1.325014704569153e-05)
(-0.6614839007026165 -9.227171773298801e-08 -1.324941391595258e-05)
(-0.6614677801200242 1.269603485892173e-08 -1.324994136675279e-05)
(-0.6614654247080772 7.36041088104491e-08 -1.325013548526923e-05)
(-0.6614835473460895 -9.542408117307368e-08 -1.324941507072078e-05)
(-0.6614675056369403 6.816513721373963e-09 -1.324994404192324e-05)
(-0.6614648425379623 6.578201580890798e-08 -1.325014539781753e-05)
(-0.661482738354738 -1.154445876965522e-07 -1.32494309607366e-05)
(-0.6614660878389967 -3.593789955032149e-08 -1.324995874402923e-05)
(-0.6614632093680313 5.072338279634961e-08 -1.325015447543151e-05)
(-0.6614791131623541 8.316331706420786e-07 -1.324949947980602e-05)
(-0.6614315817499968 7.553002853844809e-06 -1.325154662274022e-05)
(-0.6612011213549251 4.028997364082411e-06 -1.326060420027644e-05)
(-0.6612135002634766 -8.257126933826737e-06 -1.325945015957941e-05)
(-0.661474638930088 -4.942082290874921e-06 -1.324948112663828e-05)
(-0.6614603348236702 7.771712389940931e-07 -1.325028086970151e-05)
(-0.6614687441156748 4.633951854808217e-08 -1.324992918664455e-05)
(-0.6614787427921555 7.990351406725409e-07 -1.324950132097518e-05)
(-0.6614362996215798 7.375904452208128e-06 -1.325132491118478e-05)
(-0.6612069177211312 5.658905918780372e-06 -1.326048282658295e-05)
(-0.6612052895335638 -2.223697104480395e-06 -1.326009007390214e-05)
(-0.6612188964382734 -7.223444046869307e-06 -1.325930405731942e-05)
(-0.6614784712717039 -5.109437431356492e-06 -1.324934657420029e-05)
(-0.6614757538597423 1.511173519842619e-06 -1.324948263841919e-05)
(-0.6614322211402952 7.17461769741295e-06 -1.325134607818178e-05)
(-0.6612046565947706 5.43720088897141e-06 -1.3260412750877e-05)
(-0.6612107501837895 -7.171068597367992e-07 -1.325996160817344e-05)
(-0.6612140639724458 3.857429399520254e-07 -1.325988942799857e-05)
(-0.6612040856552308 -1.496412365309399e-06 -1.326000960079114e-05)
(-0.6612159875980287 -7.50196445161544e-06 -1.325926485922063e-05)
(-0.6614803497778168 -4.921702234790602e-06 -1.324920072374694e-05)
(-0.6614681266372224 9.831427055106007e-07 -1.324997596186361e-05)
(-0.6614827939753846 7.009530268032731e-07 -1.324921124239853e-05)
(-0.6614358191675201 7.339024712464272e-06 -1.325150741124075e-05)
(-0.6612150813041522 5.925273596591417e-06 -1.326018659703652e-05)
(-0.4502775812517644 -4.733546484326947e-07 -2.15579286335161e-05)
(-0.4502751048152312 -5.055672831226583e-07 -2.15578308213526e-05)
(-0.4502662581202613 -9.466534197479759e-07 -2.155805566709724e-05)
(-0.4502746365380159 6.9341081495514e-07 -2.155783205111234e-05)
(-0.4502722329527497 -1.727468853230392e-08 -2.15579362588726e-05)
(-0.4502685269033482 -6.881176313296511e-07 -2.155788242957452e-05)
(-0.4502724075414673 5.945385249115861e-07 -2.155783561717974e-05)
(-0.4502722362826801 -7.352912083052078e-08 -2.155784944543474e-05)
(-0.4502671288889265 -9.102546386259167e-07 -2.155777607476419e-05)
(-0.4502699639366479 3.455248445753418e-09 -2.155769273258609e-05)
(-0.4502761972643068 3.599162855128657e-07 -2.155760582806821e-05)
(-0.4502750075405673 5.43540379961221e-07 -2.155775160125131e-05)
(-0.4502678163735741 -1.976333980964873e-06 -2.155782231533991e-05)
(-0.4502589003025799 -1.368296707875278e-05 -2.155804481228899e-05)
(-0.4502806721933428 -1.088468238301933e-05 -2.155745434315307e-05)
(-0.450286947471608 6.03209139445585e-07 -2.155712695377743e-05)
(-0.4502815307758316 3.337146586127058e-07 -2.155712570071877e-05)
(-0.4502810793765607 -1.199256936325817e-08 -2.155731592872856e-05)
(-0.4502889868203248 -3.622523369471422e-07 -2.155700013354485e-05)
(-0.4502796563789402 3.520887836726054e-07 -2.155719102833446e-05)
(-0.4502820775227959 1.828362685756755e-08 -2.155720871622784e-05)
(-0.4502879202091933 -3.77888837080656e-07 -2.155702149196292e-05)
(-0.4502800781717473 3.597083858930728e-07 -2.155712742656467e-05)
(-0.4502814706872842 1.1902752646615e-08 -2.155720669057814e-05)
(-0.4502880695848566 -3.778338876791412e-07 -2.155698317307427e-05)
(-0.4502796395165941 3.555807530946741e-07 -2.155711593230737e-05)
(-0.4502813973017968 6.089050775443594e-09 -2.155718600592324e-05)
(-0.4502876031592155 -3.86141679487759e-07 -2.155697728388298e-05)
(-0.450279270777755 3.425567371605808e-07 -2.155711380630123e-05)
(-0.4502806810677329 -1.319546592669706e-08 -2.155719290611842e-05)
(-0.4502867047635405 -4.27361822009678e-07 -2.155699472208046e-05)
(-0.450277645001069 2.744705529404866e-07 -2.155712854727108e-05)
(-0.4502790672972767 -8.68391735830728e-08 -2.155719328614165e-05)
(-0.4502841745985671 1.237527284980708e-06 -2.155690585523047e-05)
(-0.4502761603489135 1.465867876068738e-05 -2.155715400292173e-05)
(-0.4502760022169702 8.891207602360699e-06 -2.155734734505195e-05)
(-0.4502521280372684 -1.497950981351256e-05 -2.155790031678056e-05)
(-0.4502771218529769 -1.041577714519087e-05 -2.155711960083278e-05)
(-0.4502809606317408 9.468739873391052e-07 -2.155708563369342e-05)
(-0.4502849919658412 -2.576070290313449e-07 -2.155695981613078e-05)
(-0.4502836644276377 1.125755356067061e-06 -2.155690524534025e-05)
(-0.4502784418055356 1.432432001932376e-05 -2.155696167888187e-05)
(-0.4502791646461244 1.152906092385589e-05 -2.15572852495795e-05)
(-0.4502648403809922 -3.242746909955426e-06 -2.155760923959004e-05)
(-0.4502577089757522 -1.364034255606118e-05 -2.155772618603851e-05)
(-0.4502765893540456 -1.107377970117135e-05 -2.155723976069609e-05)
(-0.4502827600144743 2.062550200487912e-06 -2.155674548284332e-05)
(-0.4502759377134587 1.405096338392138e-05 -2.155685773083165e-05)
(-0.4502780670816885 1.109883371286544e-05 -2.155706589493612e-05)
(-0.4502741135345492 -9.40836773696316e-07 -2.155721727213555e-05)
(-0.4502750646134406 6.12292926570631e-07 -2.155727431835151e-05)
(-0.4502650821689859 -2.273507615518298e-06 -2.155738101149783e-05)
(-0.4502572106626191 -1.414950866784888e-05 -2.155751866709485e-05)
(-0.4502832909957782 -1.045505416240882e-05 -2.155674795045191e-05)
(-0.4502845521838779 1.116533011507704e-06 -2.155696722536242e-05)
(-0.4502887519282602 1.208500272398957e-06 -2.155643062078618e-05)
(-0.4502795894675133 1.423104237800241e-05 -2.155712183692162e-05)
(-0.45028827295922 1.183807103301597e-05 -2.155675647753004e-05)
(-0.2767230031897171 -1.041753916020579e-07 -2.840469848183857e-05)
(-0.2767260977358198 -6.053695011941557e-07 -2.840438933843253e-05)
(-0.2767210837445524 -9.401732414775311e-07 -2.840438551064605e-05)
(-0.2767266541342557 7.250376803935602e-07 -2.840424432713344e-05)
(-0.2767240058954358 -1.27475352575745e-07 -2.840443746641256e-05)
(-0.2767229519227012 -6.340811026737576e-07 -2.840422184188526e-05)
(-0.2767246469034524 6.120432568591725e-07 -2.840422528144263e-05)
(-0.2767243456847808 -1.700145392076416e-07 -2.840433302983223e-05)
(-0.276722238354582 -8.622942182539424e-07 -2.840408603014649e-05)
(-0.2767241652838405 1.728637950341418e-07 -2.840393961517837e-05)
(-0.2767279005302511 4.030300507449535e-07 -2.840395348418606e-05)
(-0.2767264876618827 4.196205409579413e-07 -2.840420096802825e-05)
(-0.2767223709108836 -1.449653799298571e-06 -2.840417140931009e-05)
(-0.2767105995023674 -9.039861331563979e-06 -2.840437493370619e-05)
(-0.2765099462859176 -7.282205616041801e-06 -2.841261688954945e-05)
(-0.2765023574045714 9.045743812748274e-09 -2.84129407418319e-05)
(-0.2765108486387076 2.329162377079796e-07 -2.841229566346787e-05)
(-0.2765188338011187 1.680968328242946e-07 -2.841212803932928e-05)
(-0.2765035447990324 -3.804444250008873e-07 -2.841280821861411e-05)
(-0.276509134032978 1.668153689705163e-07 -2.841235208077754e-05)
(-0.276519746816739 2.213163043070991e-07 -2.841201103174015e-05)
(-0.2765024654761034 -4.066635035755099e-07 -2.84128169430951e-05)
(-0.2765095283430513 1.817795675720682e-07 -2.841227914433108e-05)
(-0.2765190917455018 2.094735318303245e-07 -2.841199627269177e-05)
(-0.2765025930825693 -4.04922639961329e-07 -2.841276909848466e-05)
(-0.2765090629984437 1.743942641405964e-07 -2.841225644092387e-05)
(-0.2765190006080037 2.021615454137389e-07 -2.841196610792792e-05)
(-0.2765021114650303 -4.186985686807034e-07 -2.841275267620862e-05)
(-0.2765086938349638 1.543662340904421e-07 -2.841224630856928e-05)
(-0.2765183018264101 1.723642457541578e-07 -2.841196453163217e-05)
(-0.2765013175755137 -4.79416586567229e-07 -2.841276754492951e-05)
(-0.2765071916986082 7.345176446628757e-08 -2.841225552738223e-05)
(-0.2765171277319513 1.37070184280685e-08 -2.841197082542512e-05)
(-0.2764991700091673 3.572973806358117e-07 -2.84126255932209e-05)
(-0.276537832165506 1.005501187399457e-05 -2.841095922696937e-05)
(-0.2767334759988291 6.308083339871289e-06 -2.840344369350011e-05)
(-0.2767061529028661 -9.943966255275088e-06 -2.840412663763081e-05)
(-0.2765115965705296 -6.86071626198534e-06 -2.841192804410022e-05)
(-0.2765170498239687 5.05699454830464e-07 -2.841188389139919e-05)
(-0.2765192575481105 -2.256035667250534e-07 -2.84118853956856e-05)
(-0.276499174397512 1.592833095653437e-07 -2.841260507509883e-05)
(-0.2765363220162582 9.73812318594108e-06 -2.841085395030175e-05)
(-0.2767358917055725 8.345932773049356e-06 -2.840338605641194e-05)
(-0.276719853881599 -2.240467614526521e-06 -2.840385623828895e-05)
(-0.2767093279617894 -9.061581314965196e-06 -2.840395697477462e-05)
(-0.2765064612780682 -7.585291706813099e-06 -2.841230681041458e-05)
(-0.2764991838084469 6.38765514927607e-07 -2.841241012864975e-05)
(-0.2765368922187552 9.560038512821602e-06 -2.841059826701798e-05)
(-0.2767357369864736 8.0825174186405e-06 -2.840304181659859e-05)
(-0.2767266951119586 -4.424828058438322e-07 -2.840341996968958e-05)
(-0.2767268604945898 4.288486593983862e-07 -2.840358476092855e-05)
(-0.2767208491320821 -1.742460751296542e-06 -2.84035488211967e-05)
(-0.2767108593564486 -9.318849439159085e-06 -2.840362512566135e-05)
(-0.2765104858966829 -6.927827964098835e-06 -2.84117259209522e-05)
(-0.2765175122292432 4.911897620704688e-07 -2.841194119023767e-05)
(-0.2765041669687621 3.480245701663387e-07 -2.841197939010445e-05)
(-0.2765388345133206 9.676491986725297e-06 -2.841096753729336e-05)
(-0.2767403821209822 8.678897304847701e-06 -2.840279231068633e-05)
(-0.1518693535271759 -2.393467386134746e-07 -3.334119970614437e-05)
(-0.1518718773978945 -4.337961710795205e-07 -3.334095180992527e-05)
(-0.1518704680327608 -3.956824272751917e-07 -3.334075118687255e-05)
(-0.1518757355381962 4.910626602065375e-07 -3.334055431859098e-05)
(-0.1518706067187675 -3.699502180199588e-07 -3.334091649557652e-05)
(-0.1518719627056655 -1.916425428697678e-07 -3.334059537134371e-05)
(-0.151873888719818 3.792895794822812e-07 -3.334052294125413e-05)
(-0.1518710394131885 -4.07886103353014e-07 -3.334080928359803e-05)
(-0.1518714565690611 -3.677641814060985e-07 -3.334046957739994e-05)
(-0.1518752873847195 4.533979977706063e-07 -3.334014876240668e-05)
(-0.1518778896254071 3.364867847635256e-07 -3.334016437451976e-05)
(-0.1518755836856597 -5.913353715347673e-08 -3.334051191075614e-05)
(-0.1518705400534067 -7.871258927873329e-07 -3.33406028366701e-05)
(-0.1518713724200531 -3.039209115140274e-06 -3.334025957200383e-05)
(-0.1517377721374003 -2.798787430809622e-06 -3.334585038490128e-05)
(-0.1517254671066257 -4.726191677964468e-07 -3.334641911144116e-05)
(-0.1517339524014298 2.589919914453584e-07 -3.334572501030471e-05)
(-0.1517407768652661 2.139273397236597e-07 -3.334554449466269e-05)
(-0.1517264997997395 -4.251917328543426e-07 -3.334625959248817e-05)
(-0.1517322930065978 1.448008246794878e-07 -3.334577308217912e-05)
(-0.151741567799232 2.839690347897695e-07 -3.33454260231321e-05)
(-0.1517254325407233 -4.601212602980666e-07 -3.334625598125561e-05)
(-0.1517326511846886 1.671863013065346e-07 -3.334569503456206e-05)
(-0.151740904765355 2.671648653518992e-07 -3.334540035666615e-05)
(-0.1517255407623632 -4.563039721223062e-07 -3.334620121974698e-05)
(-0.1517321778259651 1.563450816476735e-07 -3.33456631351171e-05)
(-0.1517408031594407 2.589034684384174e-07 -3.334536235877093e-05)
(-0.1517250621279275 -4.750698609545513e-07 -3.334617531522443e-05)
(-0.1517318168591184 1.305161853599642e-07 -3.334564534667598e-05)
(-0.1517401280832138 2.204189986672032e-07 -3.334535216289422e-05)
(-0.151724323589923 -5.518420045059602e-07 -3.33461892247744e-05)
(-0.1517304724969584 4.75604344132597e-08 -3.33456488944e-05)
(-0.1517392629255039 3.021297037612905e-08 -3.334537596175579e-05)
(-0.1517219588707168 -1.609961325896314e-07 -3.334603632467984e-05)
(-0.1517527338628641 4.159958795879383e-06 -3.3344564467895e-05)
(-0.1518746596449981 2.380231738834085e-06 -3.33399789398929e-05)
(-0.1518684436461796 -3.574755003706031e-06 -3.333994536017802e-05)
(-0.1517400879235357 -2.327013047769728e-06 -3.334505233916918e-05)
(-0.1517405608254914 1.104663498379389e-07 -3.334517210002653e-05)
(-0.1517416509357335 -2.976255834897311e-07 -3.334526457432301e-05)
(-0.1517224080196304 -4.050961472200181e-07 -3.334600621869228e-05)
(-0.1517514610671176 4.198066897643739e-06 -3.334440409290323e-05)
(-0.1518784478403175 3.2968094997116e-06 -3.333977920052756e-05)
(-0.151868565112693 -1.190915667595524e-06 -3.334019885875373e-05)
(-0.1518700238200399 -3.096308168234883e-06 -3.333977726962584e-05)
(-0.1517348703059613 -3.145127511813413e-06 -3.334547312420281e-05)
(-0.1517224484120436 -2.664525223594443e-07 -3.334582800641274e-05)
(-0.1517526407490056 4.174201202106706e-06 -3.334412385384935e-05)
(-0.1518801195412403 3.53361183120344e-06 -3.333932614080861e-05)
(-0.151877496731242 -1.212749092930248e-07 -3.333951982297471e-05)
(-0.1518760142602255 -8.442394384461776e-08 -3.333980928613094e-05)
(-0.1518696152884125 -9.978535051390074e-07 -3.333987215747856e-05)
(-0.151873046428343 -3.024739355464876e-06 -3.333938851174347e-05)
(-0.1517418819288758 -2.411790249265869e-06 -3.334461372891227e-05)
(-0.1517409941158949 -2.196383522643509e-07 -3.334526868786831e-05)
(-0.1517271959998364 -1.825462858376529e-07 -3.334526146718188e-05)
(-0.151753970422532 4.065241020067331e-06 -3.33445194167922e-05)
(-0.1518816925563671 3.62452402423093e-06 -3.333898598875307e-05)
(-0.06575175398565709 -5.207002375027865e-07 -3.67501654483765e-05)
(-0.06575193952908505 -3.552204685066885e-07 -3.675003504985221e-05)
(-0.06575269445108685 -4.439137608035717e-09 -3.674972605017125e-05)
(-0.06575896949552676 3.445005045976662e-07 -3.674942774865696e-05)
(-0.06575106571516154 -5.574582095365623e-07 -3.674994202951758e-05)
(-0.0657540379685236 1.190796883964267e-07 -3.674956929764059e-05)
(-0.06575720353793406 2.256136244147199e-07 -3.67493883045665e-05)
(-0.06575151021701557 -5.803195811487082e-07 -3.674983522180261e-05)
(-0.06575355748702764 -1.148582733606357e-08 -3.67494626640215e-05)
(-0.06575934300949395 6.8548895838593e-07 -3.674899693460376e-05)
(-0.06576163865793065 2.973288766771438e-07 -3.674896980077791e-05)
(-0.06575916283287923 -4.329627088597788e-07 -3.674935436504794e-05)
(-0.06575124613615636 -4.929281595203499e-07 -3.674963307054501e-05)
(-0.06576032377466896 -2.093920669568041e-07 -3.674888754925963e-05)
(-0.06570772957887426 -8.729873527405986e-07 -3.67512302419082e-05)
(-0.06569652600808046 -7.16301392073389e-07 -3.67518651869557e-05)
(-0.06570261169603361 3.578961867759201e-07 -3.675126287567511e-05)
(-0.06570735311411555 1.911767580066612e-07 -3.675109762578774e-05)
(-0.06569739727349096 -5.03150435733632e-07 -3.675169068887927e-05)
(-0.06570091917455391 2.234533844564932e-07 -3.675130456165106e-05)
(-0.06570800267924008 2.7602477371852e-07 -3.675098306976224e-05)
(-0.06569633820066535 -5.446617177559824e-07 -3.675167812435843e-05)
(-0.06570124187787231 2.533463978351959e-07 -3.675122435869274e-05)
(-0.06570733650576117 2.546059681964141e-07 -3.675094918321379e-05)
(-0.06569642779626768 -5.384032684780306e-07 -3.675161842912426e-05)
(-0.06570076290761027 2.388484023134549e-07 -3.67511856044122e-05)
(-0.06570722507955772 2.456668052238542e-07 -3.675090531473098e-05)
(-0.06569595397381321 -5.619200742753792e-07 -3.675158542205202e-05)
(-0.06570040955000782 2.080993147163578e-07 -3.675116202288445e-05)
(-0.06570656875133728 1.991334700025861e-07 -3.675088778671007e-05)
(-0.06569522728012599 -6.515261217922276e-07 -3.675159876924378e-05)
(-0.06569922571437682 1.271570442446162e-07 -3.675115685878197e-05)
(-0.06570594173851127 -9.562015985476067e-09 -3.675092610699895e-05)
(-0.06569277200518044 -2.639670431148198e-07 -3.675146614094134e-05)
(-0.06571382443554824 1.538941509326426e-06 -3.675035483747006e-05)
(-0.06575193076015588 4.621652060105342e-07 -3.674905905636812e-05)
(-0.06575823232488838 -5.792439560473651e-07 -3.674855188750859e-05)
(-0.06570979237942606 -2.409180919102108e-07 -3.67504223471179e-05)
(-0.06570862304263157 -6.152926235340783e-08 -3.675061390956381e-05)
(-0.06570914868685183 -4.688525962143653e-07 -3.675075165884966e-05)
(-0.06569358590896868 -5.685008613222243e-07 -3.675142404955072e-05)
(-0.06571318606205462 1.844182610359111e-06 -3.675014876081786e-05)
(-0.06575844138474143 7.516771742003048e-07 -3.674869469891432e-05)
(-0.06574946781731061 -7.559676980469334e-07 -3.674917016565141e-05)
(-0.06575887239002431 -2.835555734924958e-07 -3.674835307265945e-05)
(-0.06570525152409309 -1.241789056350395e-06 -3.675081018523016e-05)
(-0.06569359148160857 -5.130413644965379e-07 -3.675126459256143e-05)
(-0.06571425799934982 1.923087670464486e-06 -3.674988401894875e-05)
(-0.06576114037060343 1.380713546990669e-06 -3.674819659714084e-05)
(-0.06576168000193142 -2.463036529107907e-08 -3.674824789187146e-05)
(-0.06575956542031569 -4.76935851358267e-07 -3.674859913814751e-05)
(-0.06575054883800731 -6.370187736356138e-07 -3.674883717192143e-05)
(-0.06576262562187038 5.705484877404751e-08 -3.67479566649883e-05)
(-0.06571426113890214 -3.623043941315768e-07 -3.674977099101127e-05)
(-0.06570968665189672 -7.040791115606432e-07 -3.6750701702652e-05)
(-0.06569826059677923 -3.26521390145636e-07 -3.675059083719891e-05)
(-0.06571572580338837 1.674730395447527e-06 -3.675027098571514e-05)
(-0.06576078091648385 1.107980149608626e-06 -3.674774704408547e-05)
(-0.003990670337809673 -7.644790815374092e-07 -3.919407613346394e-05)
(-0.003989476003664772 -3.616753765201591e-07 -3.919402305265107e-05)
(-0.003990300775367149 2.403432866371113e-07 -3.919370498023528e-05)
(-0.00399681121497614 2.670604441339822e-07 -3.919334344001484e-05)
(-0.003988374264762388 -7.023702402222271e-07 -3.919389995586352e-05)
(-0.003991590803703531 3.264008313214041e-07 -3.919354202466813e-05)
(-0.003995125690157099 1.334111471796566e-07 -3.919329739193201e-05)
(-0.003988814841042953 -7.029808744296149e-07 -3.919379309536976e-05)
(-0.003991154328105627 2.410559332046677e-07 -3.919344997932659e-05)
(-0.003997153295679603 8.955984419118722e-07 -3.919293472691139e-05)
(-0.00399934882166879 2.861474056029121e-07 -3.919285807446563e-05)
(-0.003997477560249452 -7.297907167354152e-07 -3.91932234807722e-05)
(-0.003988626324227169 -3.768171390687778e-07 -3.919360912796737e-05)
(-0.003999606201858509 8.401821863437747e-07 -3.919275075481819e-05)
(-0.003981624807237502 -4.087824341840368e-07 -3.919366176319492e-05)
(-0.003972179481472271 -8.650189239928864e-07 -3.91942986720762e-05)
(-0.003976531128458466 4.918203739285553e-07 -3.919378356691379e-05)
(-0.003980155801753905 1.38716596183304e-07 -3.919360573968666e-05)
(-0.003972777127298854 -6.005892332175698e-07 -3.919412283113496e-05)
(-0.003974857779289862 3.495501715190477e-07 -3.919381694795305e-05)
(-0.003980671295828807 2.374708120799468e-07 -3.919349585748292e-05)
(-0.003971731374968066 -6.474132875792667e-07 -3.919410318920021e-05)
(-0.003975135528737404 3.870828069389283e-07 -3.919373593550494e-05)
(-0.003980008882935046 2.118763912504009e-07 -3.919345630296734e-05)
(-0.003971799715495519 -6.383239167746446e-07 -3.919404022870404e-05)
(-0.003974656826477181 3.687945149084635e-07 -3.919369206396708e-05)
(-0.003979888342518968 2.024644033143138e-07 -3.919340810794978e-05)
(-0.00397133390532224 -6.664770883802197e-07 -3.919400160467359e-05)
(-0.003974312972360641 3.336838173875627e-07 -3.919366371328885e-05)
(-0.003979256020654671 1.48288117316124e-07 -3.919338399581179e-05)
(-0.00397064123165128 -7.673487801825724e-07 -3.919401279344953e-05)
(-0.003973235769544725 2.571697905253534e-07 -3.919365145988304e-05)
(-0.003978843514411763 -8.360600643398835e-08 -3.919342949782773e-05)
(-0.003968087245208572 -2.099389151254744e-07 -3.919390325831697e-05)
(-0.003984578979811948 7.446982775249089e-07 -3.919296228217927e-05)
(-0.003988118737377263 -2.005615574476316e-07 -3.919302744891746e-05)
(-0.003997919884967963 5.472041400794415e-07 -3.919239029150691e-05)
(-0.003983257735466007 4.444091597728341e-07 -3.919287139172995e-05)
(-0.00398200657369466 -1.261562541733962e-07 -3.919305852535168e-05)
(-0.003982570043007221 -7.022141561468484e-07 -3.919320056609937e-05)
(-0.003969325653176412 -5.963363367344731e-07 -3.919384259747508e-05)
(-0.003984178145385995 1.235891217365695e-06 -3.919273859752915e-05)
(-0.003995607492561412 -2.732589429877903e-07 -3.91925596612477e-05)
(-0.003986971409709699 -5.950671138227969e-07 -3.919309872648038e-05)
(-0.003998125946165452 7.545178104675746e-07 -3.919217839231289e-05)
(-0.003979500597133525 -7.993874641637888e-07 -3.919320434418249e-05)
(-0.003969301772816325 -5.052991456201223e-07 -3.919369903844119e-05)
(-0.003985093351151318 1.394933019410625e-06 -3.919249308838481e-05)
(-0.003998250128856185 6.7372037623392e-07 -3.919207803192009e-05)
(-0.00399973234462965 -1.092156902501619e-08 -3.9192071218023e-05)
(-0.003997911860969472 -7.905210957622097e-07 -3.91924279847012e-05)
(-0.003988113337012479 -4.705588931055534e-07 -3.91927645615583e-05)
(-0.004001954977885885 1.307774825752116e-06 -3.919180708034052e-05)
(-0.003988422880469382 2.73813840411021e-07 -3.91921097635378e-05)
(-0.003983753353721274 -1.070625748624141e-06 -3.919311782125585e-05)
(-0.003973834233453447 -3.2827442628152e-07 -3.919294795220133e-05)
(-0.003986774693671276 1.027791597036957e-06 -3.919286732702658e-05)
(-0.003997256671902908 1.387581012988476e-07 -3.919148907627916e-05)
(0.04344154092304556 -9.518775412502323e-07 -4.106675812393818e-05)
(0.04344333930892499 -4.057892387652773e-07 -4.106674843103352e-05)
(0.04344310623915163 4.130081608070518e-07 -4.106646113825911e-05)
(0.04343694441252684 2.202038862712032e-07 -4.106607023899865e-05)
(0.04344473094810851 -8.279892832772215e-07 -4.106660680713038e-05)
(0.0434418702784034 4.8724423879727e-07 -4.106629119942089e-05)
(0.04343853326051959 6.914454763783724e-08 -4.106601668844995e-05)
(0.04344429923057688 -8.030286683093281e-07 -4.106649925303449e-05)
(0.0434422406054092 4.403176274185967e-07 -4.106620846693228e-05)
(0.04343683427228538 1.087122557647345e-06 -4.106569470190346e-05)
(0.0434347103457867 2.990009844454086e-07 -4.106557417278636e-05)
(0.04343577477030153 -9.802468087106383e-07 -4.106589689133694e-05)
(0.04344436036120564 -3.221253002929726e-07 -4.10663264257696e-05)
(0.04343414597970881 1.27773060557551e-06 -4.106548250021281e-05)
(0.04344049948366678 -4.317470719229774e-07 -4.106587053549398e-05)
(0.04344835127221827 -9.857332064419122e-07 -4.106649448910762e-05)
(0.04344523944304027 6.263133866195102e-07 -4.106605912070842e-05)
(0.04344224914960836 8.191008495217117e-08 -4.106586058930798e-05)
(0.04344808541196479 -7.032672676321235e-07 -4.106632751366483e-05)
(0.04344683949781476 4.822427682564922e-07 -4.10660827482171e-05)
(0.04344185541884791 1.945532553474977e-07 -4.106575586943475e-05)
(0.04344910965497311 -7.538227364783489e-07 -4.106630223024157e-05)
(0.04344661401273413 5.276142485723025e-07 -4.10660020724786e-05)
(0.04344250856811833 1.651240564065793e-07 -4.106571169445057e-05)
(0.0434490655696145 -7.4161926071506e-07 -4.106623699212168e-05)