/*--------------------------------*- C++ -*----------------------------------*\
| =========                 |                                                 |
| \\      /  F ield         | OpenFOAM: The Open Source CFD Toolbox           |
|  \\    /   O peration     | Version:  v1812                                 |
|   \\  /    A nd           | Web:      www.OpenFOAM.com                      |
|    \\/     M anipulation  |                                                 |
\*---------------------------------------------------------------------------*/
FoamFile
{
    version     2.0;
    format      ascii;
    class       volVectorField;
    location    "10000";
    object      wallShearStress;
}
// * * * * * * * * * * * * * * * * * * * * * * * * * * * * * * * * * * * * * //

dimensions      [0 2 -2 0 0 0 0];


internalField   uniform (0 0 0);

boundaryField
{
    inlet
    {
        type            cyclic;
    }
    outlet
    {
        type            cyclic;
    }
    bottomWall
    {
        type            calculated;
        value           nonuniform List<vector> 
58
(
(-0.007460740308314843 1.296690242810317e-08 2.91154646815435e-07)
(-0.0074612207669191 2.907587262266671e-09 2.911607461807105e-07)
(-0.007461103553193788 -1.155615930155075e-09 2.911568812772657e-07)
(-0.007460761069996852 -9.847906902821979e-10 2.911458121713867e-07)
(-0.007461223738050876 3.161014020783996e-09 2.911628897064139e-07)
(-0.007461066883090115 -2.007617415164629e-09 2.91153543782232e-07)
(-0.007460821629316967 4.145208627110586e-10 2.911468319711907e-07)
(-0.007461263792838633 5.566144605942974e-09 2.91162952672066e-07)
(-0.007461260763956709 9.016242218182853e-11 2.911582201109385e-07)
(-0.007460996484969111 1.700554082057392e-09 2.91150029254805e-07)
(-0.007461219582883732 -1.514571974891042e-09 2.911618491347074e-07)
(-0.007461031744842372 -8.429599430071137e-09 2.911549894429404e-07)
(-0.007461293710720047 5.402414637654431e-09 2.911587897140581e-07)
(-0.007459617997248901 -1.556934910481293e-09 2.910859060907537e-07)
(-0.007448540909445922 -2.462067380057014e-08 2.906573527017336e-07)
(-0.007449548929056779 -1.324271731701359e-08 2.907026569570977e-07)
(-0.007449613580263168 1.034192913036266e-11 2.907021728027874e-07)
(-0.007449633193737109 1.114908987223448e-09 2.907059983277562e-07)
(-0.007449362465212095 1.133545150256166e-09 2.906943922930937e-07)
(-0.007449667727913483 -2.526096906984387e-09 2.907043442213155e-07)
(-0.007449612720340708 1.326999104854816e-09 2.907039977371367e-07)
(-0.007449383861009008 1.11117383885112e-09 2.906950945652137e-07)
(-0.007449657945708694 -2.516121678657721e-09 2.907032563385393e-07)
(-0.007449621261384395 1.328462296710966e-09 2.907042205962263e-07)
(-0.007449381074606263 1.209251493276959e-09 2.906944947716983e-07)
(-0.007449668132799851 -2.542502640392668e-09 2.907032492172032e-07)
(-0.007449622428600693 1.403589598912281e-09 2.907039839666876e-07)
(-0.007449389074029034 1.235597230161468e-09 2.906945949103875e-07)
(-0.007449673054207646 -2.416622694942377e-09 2.907033668095891e-07)
(-0.0074496363408529 1.533200690730318e-09 2.907042788389599e-07)
(-0.007449409574678968 1.657153283356879e-09 2.906949961434445e-07)
(-0.00744970610218563 -6.644818289076273e-10 2.907035881461644e-07)
(-0.00744964434429841 5.820975745231882e-09 2.907032944860874e-07)
(-0.007449542671641363 -8.731762683681333e-09 2.906994874514087e-07)
(-0.007451291784717688 -8.327620863605057e-09 2.907742770347633e-07)
(-0.007462122022319518 3.74205072520859e-08 2.911990491927886e-07)
(-0.007459767181017737 1.678891915457701e-08 2.910810901953556e-07)
(-0.007448723811374763 -2.48858302598559e-08 2.906611777762501e-07)
(-0.007450075351928094 -1.164550671436281e-08 2.907207619721431e-07)
(-0.007449574522740334 9.040342999828895e-10 2.907005888932673e-07)
(-0.007449525692412375 -1.084441133478754e-08 2.906987695678245e-07)
(-0.007451120296112633 -7.294294355858423e-09 2.907674529358579e-07)
(-0.007461814854695395 2.679213575293912e-08 2.911877481063061e-07)
(-0.007461281119193336 2.497008606055688e-08 2.911530177394208e-07)
(-0.007459680994767581 -4.168187793460913e-09 2.910815180664339e-07)
(-0.007448564379379637 -1.905684144699176e-08 2.906546450782464e-07)
(-0.007449730838029352 -2.195968767061104e-08 2.907033577689942e-07)
(-0.007451206352478955 -2.614853972916839e-09 2.907673133588827e-07)
(-0.007461847113543188 3.353177361918244e-08 2.91185449163962e-07)
(-0.007461169838476132 1.597599876485765e-08 2.91152602423941e-07)
(-0.007461055742165924 -1.153727005709943e-08 2.911492927061294e-07)
(-0.007461406464172299 9.118675991232941e-09 2.911549121158127e-07)
(-0.007459802889484714 6.619906713935059e-09 2.91082531696441e-07)
(-0.007448828743950143 -2.617089673916707e-08 2.906638897904702e-07)
(-0.007449719649075722 -1.672156409483378e-08 2.907073979390083e-07)
(-0.007449420311498309 -4.027479441296737e-09 2.906924461011593e-07)
(-0.007451161456200573 1.412447974264178e-09 2.907736093103563e-07)
(-0.007461760953083757 1.885960092436492e-08 2.91190438762939e-07)
)
;
    }
    topWall
    {
        type            calculated;
        value           nonuniform List<vector> 
58
(
(-0.0001166024415776467 9.697404790790351e-12 1.345405235558224e-07)
(-0.0001166010218730731 7.112330999161199e-11 1.345395761904245e-07)
(-0.0001166003879087604 7.290950359979071e-11 1.345406670543737e-07)
(-0.000116599544215664 5.245039080358325e-11 1.345400078154294e-07)
(-0.0001166006346527964 4.340337755661589e-11 1.345409971440541e-07)
(-0.0001165989871398395 4.912401272226337e-11 1.345401793837642e-07)
(-0.0001166006462634151 3.328960275766709e-11 1.345411524893964e-07)
(-0.0001165999149023051 4.758957483391807e-11 1.345402503088224e-07)
(-0.0001166008981252611 1.859143018089386e-11 1.345412370415398e-07)
(-0.000116600848988069 9.864508079114349e-12 1.345402834525717e-07)
(-0.0001166018617636745 2.256517209855158e-11 1.345413014793992e-07)
(-0.0001166015346236571 1.109377684570834e-11 1.345402944750259e-07)
(-0.0001166021849883307 4.155256752829571e-11 1.345413454076487e-07)
(-0.0001166014752356176 1.597059966754396e-11 1.345402841553947e-07)
(-0.0001166018061721758 4.079099524072398e-11 1.345413761935332e-07)
(-0.0001166009537497372 2.626320751147546e-11 1.345402667988569e-07)
(-0.0001166007704645238 4.3776955886631e-11 1.345413927877712e-07)
(-0.000116599831242082 7.55613425995573e-12 1.345402390819886e-07)
(-0.0001166002115563465 2.108781748335029e-11 1.34541413748279e-07)
(-0.0001165990544297158 2.498115327196848e-11 1.345402053877604e-07)
(-0.0001165990522101815 2.38965759899991e-11 1.345414206573385e-07)
(-0.0001165984946777327 1.233134625800256e-11 1.345401745406469e-07)
(-0.0001165983184345632 9.567402260526559e-12 1.345414335495463e-07)
(-0.0001165978899205417 1.033104846907982e-12 1.345401405608782e-07)
(-0.0001165977888502084 1.086473992616556e-11 1.345414448707684e-07)
(-0.0001165973500341858 9.527905773220012e-14 1.34540106008516e-07)
(-0.0001165972598567048 3.740616844666463e-12 1.345414596612363e-07)
(-0.0001165970915594488 -3.130667902608329e-12 1.345400714283888e-07)
(-0.0001165968137911747 3.427494963696737e-13 1.345414787496099e-07)
(-0.0001165971013248005 -7.979197822768636e-12 1.345400407285438e-07)
(-0.0001165970046121262 -1.12584069063085e-11 1.345414991667697e-07)
(-0.0001165975100278483 -1.642598237798562e-11 1.345400087642125e-07)
(-0.0001165975116927101 -4.781671463959438e-11 1.345415317610129e-07)
(-0.0001165991449589577 4.045478940166866e-12 1.345399838019516e-07)
(-0.0001165985824816012 -5.799775973078416e-11 1.345415586394246e-07)
(-0.000116600885748453 -1.564550524638408e-11 1.345399647627574e-07)
(-0.0001166002279642279 -5.173696009030915e-11 1.345416018864545e-07)
(-0.0001166022305168102 -1.838793654495243e-11 1.345399398269506e-07)
(-0.0001166013781610976 -1.184647530353023e-11 1.345416471900538e-07)
(-0.0001166026437900226 -9.094036178053581e-12 1.345399157545991e-07)
(-0.0001166018446881554 -2.123383019335347e-12 1.345416963493867e-07)
(-0.0001166021298826545 -2.450510526235019e-11 1.345398803308627e-07)
(-0.0001166023008593296 -2.984562902175278e-12 1.345417603298492e-07)
(-0.000116602254358251 -8.888948029152903e-12 1.345398446966352e-07)
(-0.0001166028864440765 9.479310848572157e-13 1.345418191009119e-07)
(-0.0001166026594715145 -2.499967109358419e-11 1.345398058252251e-07)
(-0.0001166043353980398 5.600322472425465e-12 1.345418912678181e-07)
(-0.0001166035844657953 -1.461063915254942e-11 1.345397692116141e-07)
(-0.0001166054829825655 2.363593498213027e-11 1.345419538316374e-07)
(-0.0001166049891274568 8.526823073852989e-12 1.345397497129605e-07)
(-0.0001166058366475466 4.115183552255338e-12 1.345420034059608e-07)
(-0.0001166061331418384 3.184698496086848e-11 1.345397411616357e-07)
(-0.0001166052638692843 9.083164680848191e-13 1.345420347929818e-07)
(-0.0001166065403403569 2.809108887376948e-11 1.345397524417447e-07)
(-0.0001166042941617269 1.320398209027515e-11 1.345420225974637e-07)
(-0.0001166057427053627 1.937742250531164e-11 1.345396804012812e-07)
(-0.0001166022409775805 4.673741418111473e-11 1.345418945117216e-07)
(-0.0001166036073594372 1.575958606073064e-11 1.345410213886603e-07)
)
;
    }
    left
    {
        type            cyclic;
    }
    right
    {
        type            cyclic;
    }
}


// ************************************************************************* //
