/*--------------------------------*- C++ -*----------------------------------*\
| =========                 |                                                 |
| \\      /  F ield         | OpenFOAM: The Open Source CFD Toolbox           |
|  \\    /   O peration     | Version:  v1812                                 |
|   \\  /    A nd           | Web:      www.OpenFOAM.com                      |
|    \\/     M anipulation  |                                                 |
\*---------------------------------------------------------------------------*/
FoamFile
{
    version     2.0;
    format      ascii;
    class       volScalarField;
    location    "20000";
    object      nut;
}
// * * * * * * * * * * * * * * * * * * * * * * * * * * * * * * * * * * * * * //

dimensions      [0 2 -1 0 0 0 0];


internalField   nonuniform List<scalar> 
3770
(
0.0001436065149659748
0.0001436065149641467
0.000143606514963778
0.0001436065149638145
0.0001436065149634109
0.0001436065149635911
0.000143606514963213
0.000143606514963351
0.0001436065149633256
0.0001436065149632539
0.0001436065149631379
0.0001436065149631949
0.0001436065149631752
0.0001436065149631006
0.0001436065149631011
0.0001436065149631542
0.0001436065149630625
0.0001436065149630802
0.0001436065149631357
0.0001436065149630466
0.0001436065149630546
0.0001436065149631065
0.0001436065149630712
0.0001436065149630765
0.0001436065149631097
0.0001436065149630682
0.0001436065149630708
0.0001436065149631102
0.0001436065149630722
0.0001436065149630915
0.0001436065149631237
0.000143606514963069
0.0001436065149630642
0.0001436065149631219
0.000143606514963048
0.000143606514963143
0.0001436065149631458
0.0001436065149631078
0.0001436065149631268
0.0001436065149632187
0.0001436065149630945
0.0001436065149632032
0.0001436065149630661
0.0001436065149631921
0.000143606514963098
0.0001436065149631723
0.0001436065149630391
0.0001436065149633426
0.000143606514962959
0.0001436065149633539
0.0001436065149630143
0.000143606514963448
0.0001436065149629098
0.0001436065149637782
0.0001436065149629238
0.0001436065149640663
0.0001436065149634874
0.0001436065149648796
0.0001572047805593865
0.0001572047809239712
0.0001572047807601492
0.0001572047807819165
0.0001572047807020383
0.0001572047807355647
0.0001572047807168717
0.0001572047806657108
0.0001572047806772449
0.0001572047806825341
0.0001572047806667937
0.0001572047806343728
0.000157204780652096
0.0001572047806536101
0.0001572047806133021
0.0001572047806392457
0.0001572047806435013
0.0001572047806062911
0.0001572047806344753
0.0001572047806397005
0.0001572047806026106
0.0001572047806312392
0.0001572047806367402
0.0001572047806018987
0.000157204780630918
0.0001572047806370704
0.0001572047806013114
0.0001572047806316301
0.0001572047806376515
0.0001572047806032627
0.0001572047806331891
0.0001572047806392173
0.0001572047806025855
0.0001572047806326446
0.0001572047806379526
0.0001572047806073753
0.000157204780634171
0.000157204780641763
0.0001572047806042999
0.0001572047806461699
0.0001572047806549752
0.0001572047806678347
0.000157204780658491
0.0001572047806403578
0.0001572047806489149
0.0001572047806672496
0.0001572047805989877
0.0001572047806627205
0.000157204780632627
0.0001572047806413393
0.0001572047806139037
0.0001572047806918033
0.0001572047805756806
0.0001572047806950671
0.0001572047806130218
0.0001572047806767751
0.0001572047805896304
0.0001572047806104734
0.0006911657267634422
0.0006911657279991446
0.000691165727927213
0.0006911657279606835
0.0006911657278615975
0.0006911657279524486
0.0006911657279564605
0.0006911657278092958
0.000691165727889974
0.0006911657279048059
0.0006911657278777833
0.0006911657277974227
0.000691165727871765
0.0006911657278865706
0.0006911657277537957
0.000691165727848483
0.0006911657278729329
0.0006911657277426492
0.0006911657278427914
0.0006911657278691827
0.0006911657277395476
0.000691165727838453
0.0006911657278664673
0.000691165727739689
0.0006911657278413046
0.0006911657278680935
0.0006911657277412033
0.000691165727843137
0.0006911657278719609
0.00069116572774529
0.0006911657278493189
0.0006911657278749117
0.0006911657277456705
0.0006911657278467919
0.0006911657278737914
0.0006911657277504965
0.0006911657278515196
0.0006911657278730235
0.000691165727744725
0.000691165727847583
0.0006911657279070188
0.0006911657279181669
0.0006911657279061597
0.0006911657278083173
0.0006911657278861828
0.0006911657279158515
0.0006911657277576492
0.0006911657278901635
0.0006911657278892811
0.0006911657277891688
0.0006911657278512142
0.0006911657279189295
0.0006911657277401605
0.0006911657278861796
0.0006911657278747303
0.0006911657277892147
0.0006911657277235106
0.0006911657276792326
0.001110951342805534
0.001110951344460577
0.001110951344516874
0.001110951344549476
0.001110951344440335
0.001110951344598821
0.001110951344616402
0.001110951344392859
0.001110951344540266
0.001110951344555462
0.001110951344521045
0.001110951344405229
0.001110951344530524
0.001110951344555233
0.001110951344344184
0.001110951344503364
0.001110951344542013
0.001110951344332992
0.001110951344498617
0.001110951344539345
0.001110951344331141
0.00111095134449479
0.001110951344538477
0.001110951344333864
0.001110951344501682
0.001110951344541846
0.001110951344337109
0.001110951344504424
0.001110951344548552
0.001110951344344174
0.00111095134451488
0.00111095134455261
0.001110951344344767
0.0011109513445109
0.001110951344552922
0.001110951344352445
0.001110951344521657
0.001110951344549281
0.001110951344339678
0.001110951344501941
0.001110951344604738
0.001110951344606982
0.001110951344591696
0.001110951344427521
0.001110951344569153
0.001110951344602279
0.001110951344373256
0.001110951344556905
0.00111095134457767
0.001110951344385251
0.001110951344530469
0.001110951344590411
0.001110951344362995
0.001110951344532526
0.001110951344561568
0.001110951344377925
0.001110951344321872
0.001110951344318141
0.001496358509073013
0.001496358510916399
0.001496358511181975
0.001496358511198426
0.001496358511089824
0.00149635851134489
0.001496358511374704
0.00149635851106514
0.00149635851130576
0.001496358511323822
0.001496358511278713
0.001496358511121467
0.001496358511313984
0.001496358511345539
0.001496358511041248
0.001496358511287459
0.001496358511336664
0.001496358511033549
0.001496358511286056
0.001496358511336753
0.001496358511034626
0.001496358511284744
0.001496358511339999
0.001496358511041882
0.001496358511297587
0.00149635851134665
0.001496358511048207
0.001496358511302375
0.001496358511357229
0.001496358511059281
0.001496358511317845
0.001496358511362827
0.001496358511060351
0.00149635851131293
0.001496358511366237
0.001496358511071884
0.001496358511332021
0.00149635851136068
0.001496358511054427
0.001496358511297658
0.00149635851144614
0.001496358511445856
0.001496358511422782
0.001496358511169647
0.001496358511394935
0.001496358511423298
0.001496358511107603
0.001496358511365533
0.001496358511405696
0.001496358511100993
0.001496358511353582
0.001496358511396864
0.001496358511105496
0.001496358511325777
0.001496358511393915
0.001496358511113738
0.001496358511052578
0.001496358511146309
0.001859860613726059
0.0018598606156084
0.001859860616077692
0.001859860616081156
0.001859860615975615
0.00185986061634888
0.001859860616391493
0.001859860615984597
0.001859860616336879
0.001859860616361398
0.001859860616303408
0.001859860616098734
0.001859860616371182
0.00185986061641201
0.001859860615999021
0.001859860616348355
0.00185986061641068
0.001859860615997813
0.001859860616352541
0.00185986061641508
0.001859860616003266
0.001859860616355348
0.001859860616424103
0.001859860616016727
0.001859860616375944
0.001859860616435614
0.001859860616027334
0.001859860616383801
0.00185986061645111
0.001859860616043738
0.001859860616405332
0.00185986061645924
0.001859860616045989
0.001859860616400234
0.001859860616467125
0.001859860616062711
0.001859860616429812
0.001859860616460158
0.001859860616040623
0.00185986061637901
0.001859860616580269
0.001859860616578007
0.00185986061654712
0.001859860616188089
0.001859860616510969
0.001859860616533997
0.001859860616115552
0.00185986061646281
0.001859860616523411
0.001859860616089948
0.00185986061646523
0.001859860616493344
0.001859860616120983
0.001859860616412179
0.001859860616516643
0.001859860616133347
0.001859860616062717
0.001859860616291409
0.002211856925817478
0.002211856927613982
0.002211856928245715
0.002211856928242859
0.002211856928144823
0.002211856928653381
0.002211856928710302
0.002211856928194834
0.002211856928674423
0.002211856928710152
0.002211856928637472
0.002211856928379417
0.002211856928742679
0.00221185692879752
0.002211856928260992
0.002211856928726778
0.002211856928806946
0.002211856928269324
0.002211856928739035
0.002211856928817471
0.002211856928280854
0.002211856928747728
0.002211856928833604
0.002211856928301936
0.002211856928777729
0.002211856928851771
0.002211856928318177
0.002211856928789794
0.002211856928873294
0.002211856928341228
0.002211856928818384
0.002211856928885524
0.002211856928346075
0.002211856928814481
0.002211856928899184
0.002211856928369293
0.002211856928856534
0.002211856928891028
0.002211856928342267
0.002211856928787222
0.002211856929058236
0.002211856929049174
0.002211856929007527
0.002211856928527997
0.002211856928959056
0.002211856928978556
0.00221185692844161
0.002211856928890526
0.002211856928973955
0.002211856928396632
0.002211856928906595
0.002211856928923576
0.002211856928453129
0.002211856928833128
0.002211856928972445
0.002211856928472513
0.002211856928394621
0.002211856928785296
0.0025612694854164
0.002561269487016733
0.002561269487785308
0.002561269487777262
0.002561269487659363
0.002561269488317852
0.002561269488391469
0.002561269487755887
0.002561269488376754
0.002561269488429473
0.002561269488340445
0.002561269488023003
0.002561269488486505
0.002561269488562317
0.002561269487887585
0.002561269488481282
0.002561269488585824
0.002561269487908486
0.002561269488504229
0.002561269488604546
0.002561269487928085
0.002561269488520821
0.002561269488628819
0.00256126948795793
0.002561269488561722
0.002561269488655831
0.002561269487981531
0.002561269488579397
0.002561269488684607
0.002561269488012573
0.002561269488615904
0.002561269488703018
0.002561269488022203
0.002561269488615498
0.002561269488723864
0.002561269488053193
0.002561269488671782
0.002561269488714323
0.002561269488020645
0.002561269488581794
0.002561269488944855
0.002561269488914026
0.002561269488858764
0.002561269488251156
0.002561269488799152
0.002561269488819038
0.002561269488147539
0.002561269488708763
0.002561269488818498
0.00256126948808282
0.00256126948873727
0.002561269488749011
0.002561269488162697
0.002561269488648166
0.002561269488822651
0.002561269488184673
0.002561269488108703
0.002561269488682722
0.00291854446643413
0.002918544467731589
0.002918544468598266
0.002918544468581843
0.002918544468417383
0.002918544469241475
0.002918544469335439
0.002918544468566178
0.002918544469342365
0.002918544469419338
0.002918544469312169
0.0029185444689285
0.002918544469501273
0.002918544469607972
0.002918544468778429
0.002918544469511221
0.002918544469649081
0.002918544468815109
0.00291854446954788
0.002918544469678638
0.002918544468845232
0.002918544469574732
0.00291854446971175
0.002918544468884717
0.002918544469627982
0.002918544469750526
0.002918544468918077
0.00291854446965314
0.002918544469788101
0.00291854446895866
0.002918544469698402
0.002918544469815277
0.002918544468976142
0.002918544469704982
0.002918544469844995
0.002918544469016225
0.00291854446977715
0.002918544469833394
0.002918544468977116
0.002918544469663831
0.002918544470151087
0.002918544470089521
0.002918544470009746
0.002918544469260011
0.002918544469933418
0.002918544469960344
0.00291854446913587
0.002918544469819805
0.00291854446996072
0.002918544469050589
0.002918544469859034
0.002918544469873563
0.002918544469150974
0.002918544469758839
0.002918544469971632
0.002918544469161914
0.002918544469103861
0.002918544469884522
0.003297474235506514
0.003297474236389735
0.003297474237298777
0.003297474237273171
0.003297474237028599
0.003297474238037764
0.003297474238157471
0.003297474237236656
0.003297474238184146
0.003297474238295294
0.003297474238167617
0.003297474237709115
0.003297474238401006
0.003297474238553096
0.003297474237547472
0.003297474238432061
0.003297474238615885
0.003297474237603528
0.003297474238486066
0.003297474238659902
0.003297474237647442
0.003297474238526065
0.003297474238702334
0.003297474237697316
0.003297474238593395
0.003297474238757253
0.003297474237744207
0.003297474238628825
0.003297474238805785
0.003297474237796402
0.003297474238683913
0.00329747423884456
0.003297474237825625
0.003297474238702478
0.003297474238885735
0.003297474237876517
0.003297474238792205
0.003297474238870618
0.003297474237829168
0.003297474238652419
0.00329747423931948
0.003297474239221383
0.003297474239087217
0.003297474238174135
0.003297474238982608
0.003297474239027372
0.003297474238026163
0.003297474238844506
0.003297474239023651
0.003297474237918371
0.003297474238891976
0.003297474238920795
0.003297474238035837
0.003297474238785014
0.003297474239043607
0.00329747423800609
0.00329747423799085
0.003297474239015325
0.003715343842941992
0.003715343843300908
0.003715343844163983
0.003715343844137505
0.003715343843756739
0.003715343844974689
0.00371534384512732
0.003715343844030799
0.003715343845167753
0.003715343845327607
0.00371534384517595
0.003715343844631219
0.003715343845453459
0.003715343845672898
0.003715343844462757
0.003715343845514035
0.003715343845762363
0.003715343844542536
0.003715343845590047
0.003715343845826415
0.003715343844605024
0.003715343845646816
0.00371534384587839
0.003715343844666013
0.003715343845730763
0.003715343845956503
0.00371534384473255
0.003715343845780659
0.003715343846018995
0.003715343844799341
0.003715343845847445
0.003715343846072094
0.003715343844844907
0.003715343845884888
0.003715343846129282
0.003715343844909335
0.003715343845993993
0.003715343846107808
0.003715343844851021
0.003715343845824574
0.003715343846667279
0.003715343846536288
0.003715343846373731
0.003715343845270911
0.003715343846225596
0.003715343846305929
0.003715343845096049
0.003715343846062093
0.003715343846290064
0.003715343844961832
0.003715343846113796
0.003715343846174875
0.003715343845092599
0.003715343846004864
0.003715343846323459
0.003715343845069532
0.003715343845127328
0.00371534384636739
0.004190848057670915
0.004190848057427364
0.004190848058107829
0.00419084805810555
0.004190848057485735
0.004190848058922945
0.004190848059115098
0.004190848057812733
0.004190848059155543
0.004190848059385104
0.00419084805920468
0.004190848058558925
0.004190848059522933
0.004190848059843076
0.00419084805839282
0.004190848059625667
0.004190848059965786
0.004190848058501522
0.0041908480597292
0.004190848060058337
0.004190848058589814
0.00419084805980726
0.004190848060119429
0.004190848058662607
0.004190848059911849
0.004190848060232564
0.00419084805875891
0.004190848059982643
0.004190848060312651
0.004190848058844348
0.004190848060064526
0.0041908480603819
0.004190848058911071
0.004190848060129712
0.004190848060463672
0.004190848058994077
0.004190848060260448
0.004190848060430178
0.004190848058920315
0.004190848060059181
0.004190848061041214
0.004190848060884926
0.004190848060754905
0.004190848059430878
0.004190848060542476
0.004190848060687299
0.004190848059227942
0.004190848060353658
0.004190848060646463
0.004190848059060477
0.004190848060402753
0.004190848060525387
0.004190848059200715
0.004190848060298231
0.00419084806070096
0.004190848059219716
0.004190848059405092
0.004190848060835905
0.004739687605212871
0.004739687604580788
0.004739687604860863
0.004739687604775568
0.004739687603983683
0.004739687605600913
0.004739687605831123
0.004739687604292608
0.004739687605844986
0.004739687606171402
0.004739687605957138
0.004739687605192134
0.004739687606305015
0.004739687606774501
0.004739687605046844
0.004739687606468641
0.004739687606939429
0.004739687605190393
0.00473968760660544
0.004739687607072733
0.00473968760531508
0.00473968760671013
0.004739687607140199
0.004739687605399834
0.004739687606841408
0.004739687607308373
0.004739687605542117
0.004739687606942725
0.004739687607408728
0.004739687605650777
0.004739687607045182
0.004739687607494198
0.004739687605742868
0.00473968760714877
0.004739687607616493
0.004739687605853979
0.004739687607304401
0.004739687607559449
0.004739687605757028
0.004739687607071442
0.004739687608287631
0.004739687608111124
0.004739687607972093
0.004739687606376497
0.004739687607647188
0.004739687607901821
0.004739687606147976
0.004739687607435339
0.004739687607815938
0.004739687605936366
0.004739687607470575
0.004739687607701119
0.004739687606083126
0.004739687607379775
0.004739687607904663
0.004739687606173744
0.004739687606568535
0.004739687608158983
0.005368983560464069
0.005368983559925587
0.005368983559893459
0.005368983559505226
0.005368983558335014
0.005368983560000657
0.005368983560245577
0.005368983558455266
0.00536898356018882
0.005368983560639905
0.005368983560390691
0.005368983559486048
0.005368983560741667
0.005368983561424297
0.005368983559392965
0.005368983560990187
0.005368983561644027
0.005368983559577718
0.005368983561165157
0.005368983561833744
0.005368983559752797
0.005368983561303195
0.005368983561897922
0.005368983559847348
0.005368983561468521
0.005368983562154366
0.005368983560060829
0.005368983561615109
0.005368983562272927
0.005368983560195556
0.005368983561743914
0.005368983562372959
0.005368983560315935
0.005368983561898612
0.00536898356256324
0.005368983560472353
0.005368983562085603
0.005368983562459958
0.005368983560338539
0.005368983561827154
0.005368983563347202
0.00536898356316969
0.005368983562997524
0.005368983561080815
0.005368983562495083
0.005368983562925527
0.005368983560840501
0.005368983562267091
0.005368983562763099
0.005368983560568024
0.005368983562272235
0.005368983562675979
0.00536898356072165
0.005368983562207767
0.005368983562908215
0.005368983560906141
0.005368983561599244
0.005368983563306513
0.006072943966967004
0.00607294396675328
0.006072943966558114
0.006072943965989173
0.006072943964354184
0.006072943965851222
0.006072943966091772
0.006072943964082145
0.006072943965878624
0.006072943966492595
0.006072943966206753
0.006072943965142874
0.006072943966501974
0.00607294396748311
0.006072943965152223
0.006072943966858217
0.006072943967772326
0.006072943965384088
0.006072943967075267
0.006072943968035615
0.006072943965625245
0.006072943967255952
0.00607294396807596
0.006072943965723436
0.006072943967462079
0.00607294396847059
0.006072943966043763
0.006072943967676026
0.006072943968596122
0.006072943966202286
0.006072943967831382
0.006072943968704835
0.006072943966352039
0.006072943968054665
0.006072943969009935
0.00607294396658245
0.00607294396828553
0.006072943968817625
0.006072943966388356
0.006072943968016671
0.006072943969883567
0.006072943969865672
0.00607294396964005
0.006072943967241777
0.006072943968756675
0.006072943969459969
0.006072943967036028
0.00607294396852867
0.006072943969174413
0.006072943966678526
0.006072943968479586
0.006072943969148201
0.006072943966845764
0.006072943968457502
0.006072943969409929
0.006072943967133526
0.006072943968126989
0.006072943969891861
0.006832298019325366
0.0068322980194229
0.006832298019177303
0.006832298018562934
0.006832298016766165
0.006832298017968759
0.006832298018215681
0.006832298016143021
0.006832298017716803
0.006832298018531599
0.006832298018239654
0.006832298016992
0.006832298018348136
0.00683229801976568
0.006832298017190034
0.006832298018824903
0.006832298020129067
0.006832298017471988
0.006832298019094352
0.006832298020482051
0.006832298017792407
0.00683229801932891
0.006832298020470782
0.006832298017886223
0.006832298019575849
0.006832298021064104
0.006832298018355078
0.006832298019892477
0.006832298021176617
0.006832298018528153
0.006832298020061751
0.006832298021281811
0.006832298018707888
0.006832298020377688
0.006832298021777078
0.006832298019054732
0.006832298020671083
0.006832298021422227
0.006832298018763814
0.006832298020421927
0.006832298022681196
0.00683229802257649
0.006832298022362568
0.00683229801965767
0.006832298021192266
0.00683229802231677
0.006832298019599389
0.006832298020993867
0.006832298021839581
0.006832298019123131
0.006832298020844735
0.006832298021922529
0.006832298019319912
0.00683229802089056
0.006832298022210114
0.006832298019700184
0.006832298020823499
0.006832298022592635
0.007618235347964574
0.007618235348120388
0.007618235347944656
0.007618235347593556
0.007618235346214271
0.007618235346994694
0.00761823534725126
0.00761823534558692
0.007618235346356764
0.007618235347373452
0.007618235347239741
0.007618235345737781
0.007618235346819876
0.007618235348969492
0.007618235346265149
0.00761823534743487
0.007618235349358534
0.007618235346591746
0.007618235347794367
0.007618235349823705
0.007618235346998587
0.007618235348083755
0.007618235349753875
0.007618235347088785
0.007618235348360586
0.007618235350582212
0.007618235347734943
0.0076182353488349
0.00761823535067314
0.007618235347914364
0.007618235348986539
0.007618235350733971
0.007618235348124934
0.007618235349415703
0.007618235351550116
0.007618235348642081
0.007618235349769096
0.007618235350924192
0.007618235348216931
0.007618235349600891
0.007618235352517748
0.007618235351772624
0.007618235351846079
0.007618235349106208
0.007618235350398307
0.007618235352171537
0.007618235349271057
0.00761823535025679
0.007618235351406355
0.007618235348643802
0.007618235349894567
0.007618235351661151
0.007618235348890909
0.007618235350078938
0.007618235351957381
0.007618235349329623
0.007618235350292748
0.007618235352061106
0.008399077211099778
0.008399077210962553
0.00839907721109826
0.008399077210879121
0.008399077210409413
0.008399077211469876
0.008399077210692689
0.00839907721075068
0.00839907721035927
0.008399077210540108
0.008399077211348136
0.008399077209286418
0.008399077210187443
0.008399077212968882
0.008399077210292566
0.008399077211113347
0.00839907721311943
0.00839907721063443
0.008399077211639577
0.008399077213755822
0.008399077211129013
0.008399077211889478
0.008399077213798628
0.008399077211250508
0.008399077212193301
0.008399077214759177
0.008399077212048571
0.008399077212899567
0.008399077214908412
0.00839907721226211
0.008399077213064385
0.008399077214733893
0.008399077212493097
0.008399077213492569
0.008399077216168033
0.008399077213229132
0.008399077213809676
0.008399077215093774
0.008399077212661187
0.008399077213890094
0.008399077217274495
0.008399077215737507
0.008399077216356004
0.008399077213708353
0.008399077214933496
0.008399077216827798
0.008399077213909052
0.008399077214809888
0.008399077215714965
0.008399077213159868
0.008399077213929639
0.008399077216185293
0.008399077213456639
0.008399077214488501
0.008399077216429606
0.00839907721389661
0.008399077214396346
0.008399077216041825
0.009146667894390304
0.009146667894419876
0.009146667895315735
0.009146667894104217
0.009146667894079962
0.009146667895151511
0.009146667893880652
0.009146667894732768
0.009146667893555662
0.009146667893612095
0.009146667894633703
0.009146667892989064
0.009146667893453749
0.009146667896613326
0.009146667894164224
0.009146667894409934
0.009146667896426831
0.009146667894522446
0.009146667895238615
0.009146667897460678
0.009146667895100331
0.009146667896132237
0.009146667897620057
0.009146667895332344
0.009146667896080107
0.009146667898265732
0.009146667896155565
0.009146667897152358
0.009146667898856063
0.009146667896489104
0.009146667897048188
0.009146667898607821
0.009146667896755698
0.009146667897824439
0.009146667900516495
0.009146667897679057
0.009146667897697178
0.009146667898652617
0.009146667897050469
0.009146667898591594
0.009146667901800916
0.009146667899737912
0.009146667901018229
0.009146667898286458
0.009146667899120933
0.009146667901233255
0.009146667898335419
0.009146667898572059
0.009146667900162674
0.009146667897638129
0.009146667898119043
0.009146667900432453
0.009146667897900924
0.009146667898997251
0.009146667900576546
0.009146667898299777
0.009146667898554752
0.009146667899898601
0.009840242033000412
0.009840242032851323
0.009840242035078741
0.009840242032539137
0.009840242033217312
0.009840242034622535
0.009840242032422326
0.009840242033922572
0.009840242032104872
0.009840242032559756
0.009840242034313138
0.009840242032034225
0.009840242032311083
0.009840242034764867
0.009840242033018394
0.009840242033301123
0.009840242035028183
0.009840242033541599
0.009840242034104102
0.009840242036650996
0.009840242034137072
0.00984024203500661
0.009840242036793746
0.009840242034603595
0.009840242034841736
0.009840242036842478
0.009840242035306633
0.00984024203623759
0.009840242038251455
0.009840242035771758
0.009840242035851557
0.009840242037565271
0.009840242036141936
0.009840242036855261
0.00984024203991068
0.009840242037173539
0.009840242037028353
0.009840242036271851
0.009840242036912531
0.009840242037860544
0.009840242041608434
0.009840242039008585
0.009840242040899396
0.009840242037888788
0.00984024203784337
0.009840242041079384
0.009840242037768438
0.009840242037618012
0.009840242039972301
0.009840242037209158
0.009840242037853351
0.009840242039557898
0.009840242037344122
0.009840242038379786
0.009840242039847609
0.009840242037708415
0.009840242038064807
0.009840242039301315
0.01046726887495109
0.01046726887448929
0.0104672688778042
0.01046726887446025
0.01046726887427845
0.01046726887745742
0.01046726887495968
0.01046726887512637
0.01046726887361582
0.01046726887412066
0.0104672688763294
0.01046726887413731
0.01046726887425799
0.01046726887668257
0.01046726887462437
0.01046726887614249
0.01046726887727082
0.01046726887567822
0.01046726887621256
0.01046726887821944
0.01046726887614396
0.01046726887641505
0.01046726887888489
0.010467268876913
0.0104672688771793
0.01046726887916346
0.0104672688775098
0.01046726887775544
0.01046726888040164
0.01046726887766184
0.01046726887883366
0.01046726888044631
0.01046726887862695
0.01046726887901466
0.01046726888173311
0.01046726887970443
0.01046726887985193
0.01046726887821765
0.01046726887839541
0.01046726888107746
0.01046726888409964
0.01046726888151613
0.01046726888378272
0.0104672688802736
0.01046726887996336
0.01046726888374562
0.01046726888020736
0.01046726887989866
0.01046726888299449
0.010467268879465
0.01046726888072125
0.01046726888234853
0.0104672688795178
0.01046726888100757
0.0104672688824673
0.01046726887979905
0.0104672688811344
0.01046726888209795
0.01102213392014151
0.01102213391931733
0.01102213392358789
0.01102213391973053
0.01102213391907048
0.01102213392333642
0.01102213392071446
0.01102213392063591
0.01102213391816893
0.01102213392002485
0.01102213392182881
0.01102213391881289
0.01102213392024029
0.01102213392248421
0.01102213391964026
0.01102213392144828
0.01102213392320355
0.01102213392039164
0.01102213392192506
0.01102213392380592
0.01102213392088298
0.01102213392240742
0.01102213392458333
0.01102213392168167
0.01102213392310961
0.01102213392503292
0.01102213392225638
0.0110221339237931
0.01102213392604167
0.01102213392280559
0.0110221339243692
0.01102213392636428
0.01102213392393129
0.0110221339236277
0.01102213392816318
0.01102213392553761
0.01102213392586182
0.01102213392303259
0.01102213392463705
0.0110221339251012
0.01102213393055072
0.01102213392725871
0.01102213392980856
0.01102213392580084
0.01102213392520282
0.01102213392964145
0.01102213392532886
0.01102213392642735
0.01102213392839565
0.01102213392539267
0.01102213392512509
0.01102213392917945
0.01102213392553636
0.01102213392532441
0.01102213392925553
0.01102213392527037
0.01102213392687999
0.01102213392810282
0.01150393871152732
0.01150393871033856
0.01150393871546306
0.01150393871123229
0.01150393871017572
0.01150393871533057
0.01150393871270551
0.01150393871259773
0.01150393870942022
0.01150393871164235
0.01150393871373934
0.01150393871008609
0.01150393871184243
0.01150393871440408
0.01150393871093622
0.0115039387128365
0.01150393871516188
0.01150393871163552
0.01150393871339393
0.01150393871572757
0.01150393871217869
0.01150393871400623
0.01150393871647567
0.01150393871293268
0.01150393871465312
0.0115039387170089
0.01150393871350947
0.01150393871534012
0.01150393871782244
0.0115039387141315
0.01150393871585503
0.01150393871829092
0.01150393871541784
0.01150393871475503
0.01150393872026003
0.01150393871753474
0.01150393871790121
0.01150393871435895
0.01150393871598608
0.01150393871661738
0.01150393872276065
0.01150393871904789
0.0115039387219677
0.01150393871748681
0.01150393871655633
0.01150393872167284
0.01150393871679804
0.01150393871819289
0.01150393872039105
0.01150393871720786
0.0115039387163927
0.01150393872151808
0.01150393871740678
0.0115039387165662
0.01150393872159824
0.01150393871696471
0.01150393871838538
0.01150393872024213
0.01191440785750793
0.01191440785595007
0.01191440786182029
0.01191440785729036
0.01191440785588306
0.01191440786181352
0.01191440785926948
0.01191440785915062
0.01191440785542569
0.01191440785779589
0.0119144078601835
0.01191440785603232
0.01191440785786432
0.01191440786080371
0.01191440785684154
0.01191440785876494
0.01191440786157098
0.01191440785754035
0.01191440785934745
0.01191440786213683
0.01191440785810663
0.01191440785999935
0.01191440786285513
0.01191440785882058
0.01191440786060421
0.01191440786341051
0.01191440785939587
0.01191440786126404
0.01191440786410556
0.01191440786000574
0.01191440786180908
0.01191440786465931
0.01191440786146719
0.01191440786049202
0.01191440786673802
0.0119144078640998
0.01191440786430646
0.01191440786091918
0.01191440786024534
0.01191440786473485
0.01191440786873584
0.01191440786513151
0.01191440786841635
0.01191440786360553
0.01191440786239376
0.0119144078681581
0.01191440786279071
0.01191440786425655
0.01191440786687172
0.01191440786344233
0.01191440786225965
0.01191440786815683
0.0119144078636923
0.01191440786242836
0.01191440786824975
0.01191440786381151
0.01191440786287882
0.01191440786753252
0.01225636611902067
0.01225636611724272
0.01225636612367951
0.01225636611890569
0.01225636611720629
0.01225636612379849