/*--------------------------------*- C++ -*----------------------------------*\
| =========                 |                                                 |
| \\      /  F ield         | OpenFOAM: The Open Source CFD Toolbox           |
|  \\    /   O peration     | Version:  v1812                                 |
|   \\  /    A nd           | Web:      www.OpenFOAM.com                      |
|    \\/     M anipulation  |                                                 |
\*---------------------------------------------------------------------------*/
FoamFile
{
    version     2.0;
    format      ascii;
    class       volScalarField;
    location    "20000";
    object      nuTilda;
}
// * * * * * * * * * * * * * * * * * * * * * * * * * * * * * * * * * * * * * //

dimensions      [0 2 -1 0 0 0 0];


internalField   nonuniform List<scalar> 
3770
(
0.0004787831286098944
0.0004787831286079346
0.0004787831286075428
0.0004787831286075785
0.0004787831286071447
0.0004787831286073381
0.0004787831286069337
0.0004787831286072106
0.0004787831286071629
0.0004787831286069745
0.0004787831286068275
0.0004787831286069495
0.0004787831286069126
0.0004787831286068527
0.0004787831286068254
0.000478783128606848
0.0004787831286068164
0.0004787831286068112
0.0004787831286068151
0.0004787831286067931
0.0004787831286067837
0.0004787831286068133
0.0004787831286067764
0.0004787831286067856
0.0004787831286068636
0.000478783128606738
0.0004787831286067522
0.0004787831286068177
0.0004787831286067777
0.000478783128606801
0.0004787831286068683
0.0004787831286067457
0.0004787831286067513
0.0004787831286068324
0.0004787831286067403
0.000478783128606846
0.0004787831286068613
0.0004787831286068717
0.000478783128606862
0.0004787831286069372
0.0004787831286068201
0.0004787831286069166
0.0004787831286067557
0.0004787831286069052
0.0004787831286068056
0.0004787831286068868
0.0004787831286067432
0.0004787831286070688
0.0004787831286066571
0.0004787831286070806
0.000478783128606716
0.0004787831286071828
0.0004787831286066041
0.000478783128607537
0.0004787831286066197
0.0004787831286078486
0.0004787831286072289
0.000478783128608721
0.0004930931406390792
0.00049309314101513
0.0004930931408460918
0.0004930931408683961
0.0004930931407862105
0.0004930931408207124
0.0004930931408013942
0.0004930931407503982
0.0004930931407622962
0.0004930931407661548
0.0004930931407498773
0.0004930931407164612
0.000493093140734605
0.0004930931407362395
0.0004930931406947402
0.0004930931407214669
0.0004930931407258899
0.0004930931406875467
0.0004930931407164786
0.0004930931407219169
0.0004930931406836202
0.000493093140713187
0.0004930931407188849
0.0004930931406829791
0.0004930931407129035
0.0004930931407192185
0.0004930931406823263
0.0004930931407135474
0.0004930931407197254
0.000493093140684437
0.000493093140715251
0.0004930931407215173
0.0004930931406835605
0.0004930931407147739
0.00049309314072027
0.0004930931406887096
0.0004930931407163478
0.0004930931407241006
0.0004930931406854427
0.0004930931407285856
0.0004930931407375979
0.0004930931407507163
0.0004930931407409778
0.0004930931407225394
0.0004930931407314561
0.0004930931407503301
0.0004930931406799919
0.0004930931407456353
0.0004930931407146807
0.0004930931407236403
0.0004930931406953743
0.0004930931407755164
0.0004930931406558649
0.0004930931407789057
0.0004930931406944045
0.0004930931407603912
0.0004930931406705739
0.0004930931406916671
0.0009191602987483878
0.0009191602996906955
0.0009191602996357364
0.0009191602996612128
0.0009191602995856958
0.0009191602996548719
0.000919160299657925
0.0009191602995459993
0.000919160299607703
0.000919160299618558
0.0009191602995979451
0.0009191602995367163
0.0009191602995932126
0.0009191602996046145
0.0009191602995034557
0.0009191602995756694
0.0009191602995943037
0.0009191602994949474
0.0009191602995711945
0.0009191602995913969
0.0009191602994926009
0.0009191602995680182
0.0009191602995892953
0.0009191602994926641
0.0009191602995701712
0.0009191602995905238
0.0009191602994937326
0.0009191602995714475
0.0009191602995933716
0.0009191602994968397
0.0009191602995760945
0.0009191602995958457
0.0009191602994972937
0.000919160299574467
0.0009191602995950979
0.0009191602995010558
0.0009191602995780192
0.0009191602995943672
0.0009191602994965782
0.0009191602995749741
0.0009191602996197212
0.0009191602996284638
0.0009191602996192409
0.0009191602995449066
0.0009191602996044163
0.0009191602996270545
0.0009191602995064087
0.0009191602996073789
0.0009191602996067806
0.0009191602995304647
0.0009191602995777361
0.0009191602996291964
0.0009191602994929301
0.0009191602996043062
0.0009191602995956664
0.0009191602995311132
0.0009191602994810285
0.0009191602994466012
0.00125494344224163
0.00125494344363243
0.001254943443679731
0.001254943443707127
0.001254943443615387
0.001254943443748459
0.001254943443763254
0.001254943443575376
0.001254943443699476
0.001254943443712028
0.001254943443683103
0.001254943443585831
0.001254943443690933
0.001254943443711826
0.001254943443534548
0.001254943443668337
0.001254943443700797
0.001254943443525108
0.001254943443664195
0.001254943443698516
0.001254943443523624
0.001254943443661139
0.001254943443697736
0.001254943443525824
0.001254943443666873
0.001254943443700551
0.001254943443528471
0.001254943443669068
0.001254943443706089
0.001254943443534348
0.001254943443677738
0.001254943443709731
0.001254943443535111
0.001254943443674736
0.001254943443710097
0.001254943443541613
0.001254943443683725
0.001254943443706886
0.001254943443530788
0.001254943443667146
0.001254943443752244
0.001254943443755146
0.001254943443742604
0.001254943443604496
0.00125494344372362
0.001254943443751469
0.001254943443558986
0.001254943443713246
0.001254943443730772
0.001254943443569101
0.001254943443691088
0.001254943443741279
0.001254943443550213
0.00125494344369272
0.001254943443717237
0.001254943443563701
0.001254943443516802
0.001254943443512923
0.001591455772990149
0.001591455774652557
0.001591455774892155
0.001591455774907003
0.001591455774809008
0.001591455775038955
0.001591455775065885
0.001591455774786622
0.001591455775003852
0.001591455775019969
0.00159145577497929
0.00159145577483753
0.001591455775010979
0.001591455775039559
0.001591455774765188
0.001591455774987255
0.001591455775031618
0.001591455774758204
0.001591455774985853
0.00159145577503167
0.001591455774759252
0.00159145577498482
0.001591455775034534
0.001591455774765693
0.001591455774996325
0.001591455775040513
0.001591455774771334
0.001591455775000558
0.00159145577504997
0.001591455774781255
0.001591455775014393
0.001591455775055243
0.001591455774782502
0.00159145577501029
0.001591455775058401
0.001591455774792925
0.00159145577502746
0.00159145577505325
0.001591455774777082
0.001591455774996453
0.001591455775128948
0.001591455775130673
0.001591455775110289
0.001591455774880936
0.001591455775084173
0.00159145577510977
0.001591455774825033
0.00159145577505759
0.001591455775093882
0.001591455774819107
0.00159145577504687
0.001591455775085723
0.001591455774822977
0.001591455775021682
0.001591455775083267
0.001591455774831414
0.001591455774775809
0.001591455774859689
0.001926494224754163
0.001926494226520441
0.001926494226961007
0.00192649422696426
0.001926494226865168
0.001926494227215417
0.001926494227255462
0.001926494226873537
0.001926494227204336
0.001926494227227201
0.001926494227172785
0.001926494226980764
0.001926494227236276
0.001926494227274697
0.001926494226887178
0.001926494227215018
0.001926494227273497
0.001926494226886006
0.001926494227218831
0.001926494227277601
0.001926494226891184
0.001926494227221589
0.001926494227285997
0.001926494226903713
0.001926494227240834
0.001926494227296789
0.001926494226913626
0.001926494227248146
0.001926494227311259
0.001926494226928955
0.001926494227268243
0.001926494227319094
0.001926494226931335
0.001926494227263762
0.001926494227326555
0.001926494226947033
0.001926494227291476
0.001926494227319892
0.001926494226926208
0.001926494227243772
0.001926494227432253
0.001926494227431748
0.001926494227402592
0.001926494227064546
0.001926494227367598
0.001926494227389235
0.00192649422699653
0.001926494227322354
0.001926494227379282
0.00192649422697253
0.001926494227324683
0.001926494227350888
0.001926494227001466
0.001926494227274768
0.001926494227372953
0.001926494227014056
0.001926494226947227
0.001926494227161217
0.002260884243750746
0.002260884245474587
0.002260884246081084
0.002260884246078328
0.002260884245984216
0.002260884246472326
0.002260884246527026
0.002260884246032249
0.002260884246492704
0.002260884246526875
0.002260884246457128
0.002260884246209518
0.002260884246557994
0.002260884246610714
0.002260884246095835
0.002260884246542862
0.002260884246619797
0.002260884246103797
0.002260884246554535
0.002260884246629874
0.002260884246114904
0.002260884246562975
0.00226088424664528
0.002260884246135035
0.002260884246591681
0.002260884246662717
0.002260884246150603
0.002260884246603221
0.002260884246683315
0.002260884246172667
0.002260884246630557
0.002260884246695229
0.002260884246177561
0.002260884246627091
0.002260884246708386
0.002260884246199837
0.002260884246667406
0.002260884246700449
0.002260884246173806
0.002260884246600844
0.002260884246860917
0.002260884246852895
0.002260884246812899
0.002260884246352029
0.002260884246765751
0.002260884246784503
0.00226088424626917
0.002260884246699949
0.002260884246780056
0.002260884246226016
0.002260884246715428
0.002260884246731551
0.002260884246280056
0.002260884246644772
0.002260884246778643
0.002260884246299583
0.002260884246224295
0.002260884246598642
0.002598656825494875
0.002598656827050953
0.002598656827798718
0.002598656827790871
0.002598656827676195
0.002598656828316748
0.002598656828388442
0.002598656827770203
0.002598656828374227
0.002598656828425412
0.00259865682833883
0.002598656828030134
0.002598656828480791
0.002598656828554597
0.002598656827898377
0.00259865682847581
0.002598656828577486
0.002598656827918676
0.00259865682849806
0.002598656828595673
0.002598656827937761
0.002598656828514266
0.0025986568286192
0.00259865682796669
0.002598656828553962
0.002598656828645489
0.002598656827989649
0.002598656828571134
0.002598656828673433
0.00259865682801979
0.002598656828606546
0.002598656828691481
0.002598656828029367
0.002598656828606409
0.002598656828711794
0.002598656828059493
0.002598656828661104
0.002598656828702418
0.002598656828027749
0.002598656828573527
0.002598656828927031
0.002598656828896293
0.002598656828842672
0.002598656828251933
0.00259865682878493
0.002598656828804321
0.002598656828151205
0.002598656828697004
0.002598656828803746
0.00259865682808825
0.002598656828724781
0.002598656828736032
0.002598656828165771
0.002598656828637954
0.002598656828807834
0.002598656828187951
0.002598656828113569
0.002598656828671332
0.002947733371641465
0.002947733372913589
0.002947733373763934
0.002947733373747801
0.002947733373586493
0.002947733374394944
0.002947733374487221
0.002947733373732627
0.002947733374494099
0.002947733374569539
0.002947733374464432
0.002947733374088159
0.002947733374649826
0.002947733374754533
0.002947733373940897
0.002947733374659654
0.002947733374794868
0.002947733373976847
0.002947733374695561
0.002947733374823844
0.002947733374006404
0.002947733374721943
0.002947733374856239
0.002947733374045036
0.002947733374774092
0.002947733374894306
0.002947733374077784
0.002947733374798768
0.002947733374931131
0.00294773337411755
0.002947733374843076
0.002947733374957886
0.002947733374134872
0.002947733374849766
0.002947733374987073
0.002947733374174167
0.0029477333749205
0.00294773337497561
0.002947733374135726
0.002947733374809282
0.002947733375288146
0.00294773337522609
0.002947733375147778
0.002947733374413188
0.002947733375073714
0.002947733375100188
0.002947733374291492
0.002947733374962285
0.002947733375100486
0.00294773337420781
0.002947733375000803
0.002947733375014898
0.002947733374306124
0.002947733374902354
0.002947733375111247
0.002947733374317472
0.002947733374260089
0.002947733375025379
0.00332054538511189
0.003320545385982635
0.003320545386879465
0.003320545386854256
0.003320545386613044
0.00332054538760866
0.003320545387726861
0.003320545386818492
0.003320545387753248
0.003320545387862862
0.003320545387736928
0.003320545387284703
0.003320545387967074
0.003320545388117126
0.003320545387125174
0.003320545387997754
0.003320545388179064
0.003320545387180442
0.003320545388050987
0.003320545388222481
0.003320545387223766
0.003320545388090466
0.003320545388264254
0.003320545387272868
0.003320545388156808
0.003320545388318478
0.003320545387319172
0.003320545388191771
0.003320545388366331
0.003320545387370628
0.003320545388246037
0.003320545388404632
0.003320545387399585
0.003320545388264559
0.003320545388445297
0.003320545387449768
0.00332054538835301
0.003320545388430309
0.00332054538740299
0.003320545388215045
0.00332054538887481
0.003320545388776006
0.003320545388642915
0.003320545387743241
0.003320545388540764
0.003320545388584996
0.003320545387597372
0.003320545388404567
0.003320545388581234
0.003320545387490984
0.003320545388451417
0.003320545388479708
0.003320545387606733
0.003320545388345733
0.003320545388600984
0.003320545387577784
0.003320545387562364
0.00332054538857263
0.003733629951059122
0.003733629951414367
0.00373362995226904
0.003733629952242827
0.003733629951865766
0.003733629953072132
0.003733629953223397
0.003733629952137396
0.003733629953263498
0.003733629953421819
0.003733629953271637
0.003733629952732207
0.003733629953546415
0.003733629953763736
0.003733629952565282
0.003733629953606433
0.00373362995385233
0.003733629952644262
0.003733629953681676
0.00373362995391578
0.003733629952706157
0.003733629953737905
0.003733629953967172
0.003733629952766468
0.003733629953820981
0.003733629954044605
0.003733629952832435
0.003733629953870419
0.003733629954106475
0.003733629952898557
0.003733629953936508
0.003733629954159063
0.003733629952943766
0.003733629953973765
0.003733629954215774
0.003733629953007568
0.003733629954081757
0.003733629954194434
0.003733629952949751
0.003733629953913898
0.003733629954749897
0.003733629954618182
0.003733629954456616
0.003733629953365547
0.003733629954311063
0.003733629954390701
0.003733629953192483
0.003733629954149185
0.003733629954374888
0.00373362995305948
0.003733629954200391
0.003733629954260778
0.003733629953188895
0.003733629954092348
0.003733629954408025
0.003733629953166308
0.003733629953223245
0.003733629954451107
0.004205283568037761
0.004205283567796332
0.004205283568471769
0.004205283568469232
0.004205283567853712
0.004205283569281287
0.004205283569472193
0.004205283568178625
0.004205283569512399
0.004205283569740437
0.004205283569561246
0.004205283568919923
0.004205283569877312
0.004205283570195241
0.004205283568754861
0.004205283569979359
0.004205283570317111
0.004205283568862793
0.004205283570082148
0.004205283570409064
0.004205283568950505
0.00420528357015967
0.004205283570469657
0.004205283569022718
0.004205283570263499
0.004205283570582126
0.004205283569118461
0.004205283570333847
0.004205283570661638
0.004205283569203295
0.004205283570415146
0.004205283570730369
0.004205283569269593
0.004205283570480015
0.004205283570811699
0.004205283569352058
0.004205283570609813
0.004205283570778352
0.004205283569278733
0.004205283570409857
0.004205283571385432
0.004205283571228634
0.004205283571099715
0.004205283569785771
0.004205283570889863
0.004205283571033774
0.004205283569584334
0.004205283570702384
0.004205283570993115
0.004205283569417914
0.004205283570751124
0.004205283570872864
0.004205283569557145
0.004205283570647176
0.004205283571047301
0.004205283569576186
0.004205283569760107
0.004205283571180976
0.004751009215091314
0.004751009214463507
0.004751009214741119
0.004751009214655638
0.004751009213868077
0.004751009215477672
0.004751009215706772
0.004751009214175477
0.004751009215720571
0.004751009216045493
0.004751009215832245
0.004751009215070891
0.004751009216178476
0.004751009216645657
0.004751009214926211
0.004751009216341325
0.004751009216809816
0.004751009215069056
0.004751009216477429
0.004751009216942528
0.004751009215193181
0.004751009216581607
0.004751009217009582
0.004751009215277454
0.004751009216712222
0.004751009217177097
0.004751009215419181
0.004751009216813109
0.004751009217276917
0.004751009215527291
0.004751009216915075
0.004751009217361908
0.004751009215618929
0.004751009217018243
0.00475100921748378
0.004751009215729574
0.004751009217173117
0.004751009217426911
0.004751009215633014
0.004751009216941214
0.004751009218151434
0.004751009217974618
0.004751009217836598
0.004751009216249488
0.004751009217514215
0.004751009217767698
0.004751009216022167
0.004751009217303419
0.004751009217682129
0.004751009215811461
0.004751009217338449
0.004751009217567888
0.004751009215957509
0.004751009217247978
0.004751009217770484
0.004751009216047804
0.004751009216440639
0.004751009218023372
0.005377826320568041
0.005377826320033742
0.005377826320001744
0.005377826319613522
0.005377826318446554
0.005377826320106451
0.005377826320350458
0.005377826318565925
0.005377826320293834
0.005377826320743503
0.005377826320495115
0.005377826319593419
0.005377826320844935
0.005377826321525199
0.005377826319500554
0.005377826321092599
0.005377826321744256
0.005377826319684697
0.005377826321266953
0.005377826321933386
0.005377826319859235
0.005377826321404536
0.005377826321997235
0.005377826319953393
0.005377826321569267
0.005377826322253006
0.005377826320166316
0.005377826321715453
0.005377826322371085
0.005377826320300543
0.005377826321843828
0.005377826322470726
0.005377826320420485
0.005377826321998048
0.005377826322660561
0.005377826320576488
0.00537782632218446
0.005377826322557508
0.005377826320443034
0.005377826321926803
0.005377826323441432
0.005377826323263674
0.00537782632309239
0.005377826321182795
0.005377826322592503
0.005377826323021582
0.005377826320943401
0.005377826322365304
0.00537782632285959
0.005377826320671715
0.005377826322370377
0.005377826322772819
0.005377826320824858
0.005377826322306059
0.005377826323004273
0.0053778263210088
0.00537782632169963
0.005377826323401205
0.006079865994758693
0.006079865994546964
0.006079865994352195
0.006079865993784348
0.0060798659921527
0.006079865993645837
0.006079865993885682
0.006079865991880548
0.006079865993672901
0.006079865994285554
0.006079865994000411
0.006079865992938881
0.006079865994294887
0.006079865995273635
0.00607986599294806
0.006079865994650203
0.006079865995562267
0.006079865993179422
0.006079865994866738
0.006079865995824974
0.006079865993420058
0.006079865995047069
0.006079865995865092
0.006079865993517938
0.006079865995252631
0.006079865996258989
0.006079865993837689
0.006079865995466219
0.006079865996384125
0.006079865993995769
0.006079865995621166
0.006079865996492559
0.006079865994145136
0.006079865995843964
0.006079865996797147
0.006079865994375152
0.006079865996074408
0.006079865996605162
0.006079865994181408
0.006079865995806061
0.006079865997668197
0.006079865997650628
0.006079865997425563
0.006079865995032754
0.006079865996544332
0.006079865997246079
0.006079865994827661
0.006079865996316938
0.00607986599696106
0.006079865994470858
0.006079865996267863
0.00607986599693499
0.006079865994637768
0.006079865996245807
0.006079865997196068
0.006079865994924886
0.006079865995916083
0.00607986599767694
0.00683777244993808
0.006837772450036394
0.006837772449791944
0.00683777244917832
0.00683777244738364
0.006837772448584027
0.006837772448830436
0.006837772446761078
0.006837772448332201
0.006837772449145749
0.006837772448854453
0.006837772447608683
0.006837772448962486
0.006837772450377663
0.006837772447806106
0.006837772449438306
0.006837772450740506
0.006837772448087654
0.006837772449707352
0.006837772451092925
0.006837772448407577
0.006837772449941681
0.006837772451081584
0.006837772448501161
0.006837772450188062
0.006837772451674044
0.0068377724489694
0.006837772450504378
0.006837772451786308
0.00683777244914211
0.006837772450673255
0.006837772451891313
0.006837772449321522
0.006837772450988717
0.006837772452385972
0.006837772449667959
0.006837772451281805
0.006837772452031586
0.006837772449377403
0.006837772451032867
0.006837772453288426
0.006837772453184356
0.006837772452970745
0.006837772450269828
0.006837772451801984
0.006837772452924743
0.006837772450211692
0.006837772451604096
0.006837772452448202
0.006837772449736086
0.006837772451454982
0.006837772452531084
0.006837772449932621
0.006837772451500765
0.006837772452818126
0.006837772450312256
0.006837772451433756
0.006837772453200096
0.007622641444375062
0.007622641444531625
0.007622641444356813
0.007622641444005961
0.007622641442627227
0.007622641443406653
0.007622641443662851
0.007622641442000643
0.007622641442769348
0.007622641443784712
0.00762264144365162
0.00762264144215124
0.007622641443231578
0.007622641445378886
0.007622641442677539
0.007622641443845783
0.00762264144576732
0.007622641443003795
0.007622641444204969
0.007622641446231971
0.007622641443410178
0.007622641444494175
0.007622641446162359
0.00762264144350023
0.007622641444770478
0.007622641446989604
0.007622641444145714
0.007622641445244491
0.007622641447080516
0.007622641444324868
0.007622641445395831
0.007622641447141154
0.007622641444535161
0.007622641445824457
0.007622641447956588
0.007622641445051866
0.00762264144617759
0.007622641447331335
0.007622641444627102
0.007622641446009363
0.007622641448923047
0.00762264144817919
0.007622641448252733
0.007622641445515445
0.007622641446806086
0.007622641448577253
0.007622641445680039
0.007622641446665017
0.007622641447812935
0.007622641445053439
0.007622641446302744
0.007622641448067417
0.007622641445300329
0.007622641446487066
0.007622641448363195
0.007622641445738475
0.007622641446700631
0.007622641448466663
0.008402703734681353
0.008402703734543968
0.0084027037346805
0.00840270373446194
0.008402703733991034
0.008402703735051595
0.008402703734274805
0.008402703734333748
0.008402703733942357
0.00840270373412194
0.00840270373493008
0.008402703732869877
0.008402703733769451
0.00840270373654938
0.008402703733875111
0.008402703734695231
0.008402703736699102
0.008402703734216655
0.008402703735221175
0.008402703737335045
0.00840270373471083
0.008402703735470564
0.008402703737378673
0.008402703734832271
0.008402703735773958
0.008402703738337817
0.008402703735629603
0.008402703736479883
0.008402703738487359
0.00840270373584299
0.008402703736644812
0.008402703738312348
0.008402703736073696
0.008402703737072052
0.008402703739745847
0.008402703736809259
0.00840270373738884
0.00840270373867251
0.008402703736241727
0.008402703737469161
0.008402703740851315
0.00840270373931587
0.008402703739934812
0.008402703737288249
0.00840270373851265
0.008402703740404851
0.008402703737488486
0.008402703738389191
0.008402703739293445
0.008402703736739982
0.008402703737508718
0.008402703739763118
0.008402703737036533
0.008402703738067651
0.008402703740007058
0.008402703737476045
0.00840270373797538
0.008402703739618838
0.009149726719368699
0.009149726719397665
0.009149726720294174
0.009149726719083422
0.00914972671905892
0.009149726720129441
0.009149726718859262
0.009149726719712098
0.009149726718534403
0.009149726718590939
0.009149726719611808
0.009149726717968473
0.009149726718432194
0.009149726721590574
0.009149726719142909
0.009149726719388414
0.009149726721403227
0.009149726719500815
0.009149726720216722
0.009149726722436731
0.009149726720078376
0.009149726721110097
0.009149726722597059
0.00914972672031032
0.009149726721057627
0.009149726723241379
0.009149726721132845
0.009149726722129416
0.009149726723832
0.009149726721466297
0.009149726722025088
0.009149726723583518
0.009149726721732584
0.009149726722800653
0.009149726725491292
0.009149726722655474
0.009149726722673033
0.009149726723628732
0.009149726722027334
0.009149726723567675
0.009149726726774684
0.009149726724713035
0.009149726725993965
0.009149726723262763
0.009149726724096734
0.009149726726207402
0.009149726723311359
0.009149726723547384
0.009149726725138382
0.009149726722614592
0.00914972672309489
0.009149726725407448
0.009149726722877189
0.009149726723973205
0.009149726725551166
0.009149726723275721
0.009149726723530528
0.009149726724873171
0.009842885382465562
0.009842885382315645
0.009842885384543358
0.009842885382004576
0.009842885382682572
0.009842885384087164
0.009842885381887564
0.009842885383388318
0.009842885381570755
0.009842885382025213
0.009842885383777743
0.009842885381499897
0.009842885381776505
0.009842885384228789
0.009842885382483433
0.009842885382766113
0.009842885384491734
0.009842885383006357
0.009842885383568317
0.009842885386114367
0.00984288538360165
0.009842885384470932
0.009842885386257149
0.009842885384067909
0.00984288538430592
0.009842885386305157
0.009842885384770423
0.009842885385701093
0.009842885387713871
0.009842885385235435
0.009842885385315204
0.009842885387027557
0.00984288538560522
0.009842885386317878
0.009842885389372254
0.009842885386636477
0.009842885386491078
0.009842885385735073
0.009842885386376081
0.009842885387322215
0.00984288539106937
0.009842885388470359
0.009842885390361876
0.009842885387351671
0.009842885387305204
0.009842885390540634
0.009842885387231212
0.009842885387079855
0.009842885389434617
0.009842885386672079
0.009842885387316124
0.00984288538901963
0.009842885386806879
0.009842885387842445
0.00984288538930923
0.009842885387171039
0.009842885387527331
0.009842885388762884
0.01046960533593941
0.01046960533547675
0.01046960533879173
0.01046960533544889
0.01046960533526622
0.01046960533844512
0.01046960533594796
0.01046960533611451
0.01046960533460468
0.01046960533510945
0.01046960533731662
0.0104696053351259
0.01046960533524654
0.01046960533766956
0.01046960533561234
0.01046960533713084
0.01046960533825761
0.01046960533666603
0.01046960533720031
0.01046960533920624
0.01046960533713173
0.01046960533740281
0.01046960533987082
0.01046960533790029
0.01046960533816651
0.0104696053401495
0.01046960533849678
0.01046960533874249
0.01046960534138667
0.01046960533864857
0.01046960533982088
0.01046960534143136
0.01046960533961336
0.01046960534000098
0.01046960534271825
0.01046960534069061
0.01046960534083759
0.01046960533920446
0.01046960533938149
0.01046960534206367
0.01046960534508369
0.01046960534250105
0.01046960534476831
0.01046960534125992
0.01046960534094842
0.01046960534473057
0.01046960534119353
0.01046960534088391
0.01046960534397963
0.01046960534045098
0.01046960534170756
0.01046960534333305
0.01046960534050367
0.01046960534199379
0.01046960534345186
0.01046960534078486
0.01046960534212063
0.01046960534308237
0.01102424126514601
0.01102424126432098
0.01102424126859144
0.01102424126473531
0.01102424126407429
0.0110242412683401
0.0110242412657187
0.01102424126563982
0.01102424126317361
0.01102424126502994
0.01102424126683197
0.01102424126381742
0.01102424126524533
0.01102424126748696
0.01102424126464435
0.01102424126645298
0.01102424126820609
0.01102424126539552
0.0110242412669295
0.01102424126880832
0.01102424126588672
0.01102424126741163
0.01102424126958532
0.01102424126668507
0.01102424126811356
0.01102424127003477
0.01102424126725954
0.01102424126879674
0.01102424127104305
0.01102424126780853
0.01102424126937279
0.01102424127136555
0.01102424126893429
0.01102424126862982
0.01102424127316488
0.01102424127054005
0.01102424127086355
0.01102424126803539
0.01102424126964034
0.01102424127010281
0.01102424127555149
0.01102424127225986
0.01102424127481032
0.0110242412708035
0.01102424127020426
0.01102424127464274
0.01102424127033103
0.01102424127142993
0.01102424127339635
0.01102424127039513
0.01102424127012678
0.01102424127418074
0.01102424127053883
0.01102424127032605
0.01102424127425682
0.01102424127027242
0.01102424127188265
0.01102424127310349
0.01150587336806671
0.0115058733668771
0.0115058733720014
0.01150587336777188
0.01150587336671436
0.01150587337186897
0.01150587336924442
0.01150587336913628
0.01150587336595959
0.01150587336818233
0.01150587337027719
0.01150587336662531
0.01150587336838235
0.01150587337094162
0.01150587336747512
0.01150587336937611
0.0115058733716992
0.01150587336817422
0.01150587336993336
0.01150587337226472
0.0115058733687172
0.01150587337054542
0.01150587337301254
0.01150587336947094
0.01150587337119211
0.0115058733735456
0.01150587337004753
0.01150587337187886
0.01150587337435886
0.01150587337066936
0.01150587337239363
0.01150587337482717
0.0115058733719559
0.0115058733712921
0.01150587337679676
0.01150587337407208
0.01150587337443784
0.01150587337089669
0.01150587337252444
0.01150587337315394
0.01150587337929633
0.01150587337558394
0.01150587337850439
0.0115058733740245
0.01150587337309281
0.01150587337820912
0.01150587337333514
0.01150587337473067
0.01150587337692665
0.01150587337374532
0.01150587337292926
0.01150587337805437
0.01150587337394428
0.01150587337310272
0.0115058733781345
0.01150587337350172
0.01150587337492296
0.01150587337677789
0.01191621159748077
0.01191621159592204
0.01191621160179197
0.0119162115972633
0.01191621159585508
0.01191621160178523
0.0119162115992416
0.01191621159912243
0.0119162115953983
0.01191621159776923
0.01191621160015463
0.01191621159600481
0.01191621159783762
0.01191621160077462
0.01191621159681377
0.01191621159873798
0.01191621160154168
0.0119162115975124
0.01191621159932033
0.01191621160210736
0.01191621159807849
0.011916211599972
0.01191621160282544
0.01191621159879224
0.01191621160057669
0.01191621160338064
0.01191621159936735
0.01191621160123632
0.0119162116040755
0.01191621159997704
0.0119162116017812
0.01191621160462907
0.01191621160143876
0.01191621160046262
0.01191621160670824
0.01191621160407052
0.01191621160427662
0.01191621160089082
0.01191621160021631
0.01191621160470601
0.01191621160870464
0.01191621160510101
0.01191621160838653
0.01191621160357676
0.01191621160236377
0.0119162116081279
0.0119162116027613
0.01191621160422792
0.01191621160684082
0.0119162116034133
0.01191621160222972
0.0119162116081266
0.01191621160366331
0.01191621160239839
0.0119162116082195
0.01191621160378238
0.01191621160284899
0.01191621160750232
0.01225807067570767
0.01225807067392885
0.01225807068036528
0.01225807067559274
0.01225807067389241