/*--------------------------------*- C++ -*----------------------------------*\
| =========                 |                                                 |
| \\      /  F ield         | OpenFOAM: The Open Source CFD Toolbox           |
|  \\    /   O peration     | Version:  v1812                                 |
|   \\  /    A nd           | Web:      www.OpenFOAM.com                      |
|    \\/     M anipulation  |                                                 |
\*---------------------------------------------------------------------------*/
FoamFile
{
    version     2.0;
    format      ascii;
    class       volScalarField;
    location    "20000";
    object      nuTilda_0;
}
// * * * * * * * * * * * * * * * * * * * * * * * * * * * * * * * * * * * * * //

dimensions      [0 2 -1 0 0 0 0];


internalField   nonuniform List<scalar> 
3770
(
0.0004787831285941858
0.000478783128592217
0.0004787831285918182
0.0004787831285918592
0.0004787831285914249
0.0004787831285916189
0.0004787831285912112
0.0004787831285912984
0.0004787831285912808
0.0004787831285912568
0.0004787831285911424
0.0004787831285911749
0.0004787831285911613
0.0004787831285910714
0.0004787831285910851
0.0004787831285911586
0.0004787831285910281
0.0004787831285910588
0.000478783128591145
0.000478783128591014
0.0004787831285910311
0.0004787831285910996
0.0004787831285910609
0.000478783128591065
0.0004787831285910806
0.0004787831285910745
0.0004787831285910719
0.0004787831285911032
0.000478783128591062
0.0004787831285910816
0.0004787831285911006
0.0004787831285910722
0.0004787831285910618
0.0004787831285911149
0.0004787831285910415
0.0004787831285911417
0.0004787831285911391
0.0004787831285910738
0.0004787831285911085
0.0004787831285912186
0.0004787831285910772
0.0004787831285912039
0.0004787831285910628
0.0004787831285911916
0.0004787831285910896
0.0004787831285911689
0.0004787831285910258
0.0004787831285913526
0.0004787831285909397
0.0004787831285913649
0.0004787831285909994
0.0004787831285914657
0.0004787831285908868
0.0004787831285918212
0.0004787831285909016
0.0004787831285921301
0.0004787831285915061
0.0004787831285930059
0.0004930931376485394
0.0004930931380241174
0.000493093137855387
0.0004930931378778829
0.0004930931377954959
0.0004930931378300719
0.0004930931378108334
0.0004930931377572619
0.0004930931377691431
0.0004930931377753734
0.000493093137759179
0.0004930931377257685
0.000493093137744093
0.0004930931377456172
0.0004930931377040564
0.0004930931377307983
0.0004930931377351657
0.0004930931376968153
0.0004930931377259172
0.0004930931377312761
0.0004930931376930876
0.0004930931377225609
0.0004930931377282162
0.0004930931376923086
0.0004930931377222067
0.0004930931377285597
0.0004930931376917266
0.0004930931377229845
0.0004930931377292035
0.0004930931376936888
0.0004930931377245439
0.00049309313773073
0.0004930931376930782
0.0004930931377239415
0.0004930931377293993
0.0004930931376979105
0.0004930931377255143
0.0004930931377333733
0.0004930931376947886
0.0004930931377379426
0.0004930931377470477
0.0004930931377603662
0.0004930931377507901
0.0004930931377319803
0.0004930931377407512
0.0004930931377596571
0.0004930931376893023
0.0004930931377550027
0.0004930931377239601
0.0004930931377329481
0.0004930931377046694
0.0004930931377850195
0.000493093137665335
0.0004930931377883705
0.0004930931377037904
0.0004930931377693543
0.0004930931376795485
0.0004930931377012184
0.000919160295079955
0.0009191602960220033
0.0009191602959673081
0.0009191602959928884
0.0009191602959172916
0.0009191602959866928
0.0009191602959897594
0.0009191602958771676
0.0009191602959384297
0.0009191602959503489
0.0009191602959297567
0.0009191602958684238
0.000919160295925361
0.000919160295936498
0.0009191602958351535
0.0009191602959073281
0.0009191602959259821
0.0009191602958266672
0.0009191602959031703
0.0009191602959231857
0.0009191602958242773
0.0009191602958996854
0.0009191602959211574
0.0009191602958244453
0.0009191602959018883
0.0009191602959224127
0.0009191602958257156
0.0009191602959034478
0.0009191602959254972
0.0009191602958288437
0.0009191602959082507
0.000919160295927446
0.0009191602958289134
0.0009191602959059218
0.0009191602959264488
0.0009191602958324825
0.0009191602959095973
0.0009191602959260584
0.0009191602958281854
0.0009191602959066539
0.0009191602959527406
0.000919160295960915
0.0009191602959518508
0.000919160295876887
0.0009191602959360717
0.000919160295958671
0.0009191602958380715
0.0009191602959392043
0.0009191602959384311
0.0009191602958620737
0.0009191602959094319
0.0009191602959612936
0.0009191602958249307
0.0009191602959362135
0.0009191602959273626
0.0009191602958612846
0.0009191602958111686
0.0009191602957783031
0.00125494343720756
0.001254943438598403
0.001254943438645736
0.001254943438673134
0.001254943438581486
0.001254943438714997
0.001254943438729707
0.001254943438541925
0.001254943438665138
0.001254943438678545
0.001254943438649627
0.001254943438552147
0.001254943438657988
0.001254943438678378
0.001254943438500801
0.001254943438634502
0.001254943438667034
0.001254943438491496
0.001254943438630957
0.001254943438664908
0.001254943438489734
0.001254943438627276
0.001254943438664321
0.001254943438492278
0.001254943438633234
0.0012549434386672
0.001254943438495239
0.001254943438635857
0.001254943438673116
0.001254943438501347
0.001254943438644982
0.001254943438675857
0.001254943438501078
0.00125494343864064
0.001254943438675818
0.001254943438507387
0.001254943438649829
0.001254943438673198
0.001254943438496938
0.00125494343863329
0.001254943438723416
0.00125494343872235
0.001254943438708622
0.001254943438571074
0.001254943438689792
0.001254943438717597
0.001254943438525207
0.001254943438679738
0.001254943438696967
0.001254943438535186
0.001254943438657355
0.001254943438708253
0.001254943438517024
0.001254943438659366
0.001254943438683446
0.001254943438526833
0.001254943438479133
0.001254943438478159
0.00159145576657826
0.001591455768241331
0.001591455768480391
0.001591455768495167
0.001591455768397492
0.001591455768628042
0.001591455768654701
0.001591455768375924
0.001591455768591708
0.001591455768608959
0.001591455768568256
0.001591455768426124
0.001591455768600741
0.00159145576862852
0.001591455768353744
0.001591455768575711
0.00159145576862017
0.001591455768347023
0.001591455768575212
0.001591455768620405
0.001591455768347573
0.00159145576857319
0.001591455768623689
0.001591455768354689
0.001591455768585205
0.001591455768629793
0.00159145576836075
0.001591455768590004
0.001591455768639803
0.001591455768371104
0.001591455768604602
0.001591455768643595
0.001591455768370499
0.001591455768598329
0.001591455768646217
0.001591455768380774
0.001591455768615812
0.00159145576864198
0.001591455768365583
0.00159145576858491
0.001591455768726734
0.001591455768715427
0.001591455768692238
0.001591455768469835
0.001591455768672709
0.001591455768698195
0.001591455768413583
0.001591455768646565
0.001591455768682395
0.001591455768407423
0.001591455768635461
0.001591455768675508
0.00159145576841255
0.001591455768611002
0.001591455768671719
0.001591455768414387
0.001591455768361714
0.001591455768449899
0.001926494216986219
0.001926494218754673
0.001926494219193545
0.001926494219196769
0.001926494219098178
0.00192649421944887
0.001926494219488328
0.001926494219107189
0.001926494219435864
0.001926494219460271
0.001926494219405802
0.001926494219213191
0.001926494219470481
0.001926494219507773
0.001926494219119718
0.001926494219447477
0.001926494219506058
0.001926494219118958
0.001926494219452522
0.001926494219510427
0.001926494219123489
0.001926494219453953
0.001926494219519591
0.001926494219137116
0.001926494219474091
0.001926494219530496
0.001926494219147468
0.001926494219482054
0.001926494219545733
0.001926494219163485
0.001926494219503309
0.00192649421955138
0.00192649421916303
0.001926494219495603
0.001926494219558196
0.001926494219178663
0.001926494219523783
0.001926494219552851
0.001926494219158866
0.001926494219476387
0.00192649421966902
0.001926494219651301
0.001926494219623956
0.001926494219297757
0.00192649421960032
0.001926494219621689
0.001926494219229136
0.001926494219555605
0.001926494219611926
0.001926494219204839
0.001926494219557308
0.001926494219585416
0.001926494219235782
0.001926494219508772
0.001926494219605359
0.001926494219237877
0.001926494219176854
0.001926494219397506
0.002260884234642987
0.002260884236372061
0.002260884236975222
0.002260884236972706
0.002260884236878985
0.002260884237366587
0.002260884237420108
0.002260884236926423
0.002260884237383963
0.002260884237420082
0.002260884237350231
0.00226088423710174
0.002260884237452814
0.002260884237504082
0.002260884236988519
0.002260884237435566
0.002260884237512579
0.002260884236997042
0.002260884237448726
0.002260884237523045
0.002260884237007472
0.002260884237455582
0.002260884237539721
0.00226088423702926
0.00226088423748569
0.002260884237557122
0.002260884237045146
0.002260884237497878
0.002260884237578688
0.002260884237068172
0.002260884237526895
0.002260884237587703
0.002260884237069099
0.002260884237518845
0.002260884237600106
0.002260884237091494
0.002260884237559892
0.002260884237593957
0.002260884237066982
0.002260884237494011
0.00226088423775453
0.002260884237735454
0.002260884237695889
0.002260884237245674
0.002260884237659037
0.002260884237677185
0.002260884237162001
0.002260884237593748
0.002260884237673241
0.002260884237118646
0.002260884237608293
0.002260884237627277
0.002260884237175653
0.002260884237540054
0.002260884237671241
0.002260884237180053
0.0022608842371135
0.002260884237497594
0.002598656815042551
0.002598656816609114
0.002598656817351175
0.002598656817343851
0.002598656817229316
0.002598656817867551
0.00259865681793703
0.002598656817320249
0.002598656817920454
0.002598656817973818
0.002598656817887046
0.002598656817577043
0.002598656818031398
0.002598656818103515
0.002598656817446422
0.002598656818024041
0.002598656818125804
0.002598656817467441
0.002598656818047944
0.002598656818144516
0.002598656817485968
0.002598656818062491
0.002598656818170024
0.002598656817517297
0.002598656818104244
0.002598656818195884
0.002598656817540166
0.002598656818121868
0.002598656818224918
0.002598656817571533
0.002598656818159604
0.002598656818239535
0.002598656817576005
0.002598656818153244
0.002598656818258949
0.002598656817606515
0.002598656818209079
0.002598656818251888
0.002598656817576882
0.002598656818122799
0.002598656818467008
0.002598656818454457
0.002598656818397761
0.002598656817801426
0.002598656818334267
0.002598656818352454
0.002598656817699461
0.002598656818246644
0.002598656818353097
0.002598656817636708
0.002598656818273182
0.002598656818288491
0.002598656817718298
0.002598656818190297
0.002598656818356011
0.002598656817720999
0.002598656817658513
0.002598656818229257
0.00294773335980395
0.002947733361093613
0.002947733361935133
0.002947733361919834
0.002947733361758389
0.00294773336256235
0.002947733362650803
0.002947733361898039
0.002947733362654715
0.002947733362732237
0.002947733362626776
0.002947733362248585
0.002947733362815312
0.002947733362918303
0.002947733362103541
0.002947733362822723
0.002947733362958216
0.002947733362140451
0.002947733362860363
0.002947733362987695
0.002947733362169646
0.002947733362885211
0.002947733363023005
0.002947733362211656
0.002947733362940209
0.002947733363059912
0.002947733362243509
0.002947733362964919
0.002947733363097821
0.002947733362284681
0.002947733363012266
0.002947733363121119
0.002947733362295948
0.002947733363010791
0.002947733363149017
0.002947733362335965
0.002947733363083359
0.002947733363140471
0.002947733362300301
0.002947733362974461
0.002947733363421005
0.002947733363416791
0.002947733363340662
0.002947733362578436
0.002947733363238741
0.002947733363263004
0.00294773336245433
0.002947733363126983
0.002947733363265799
0.00294773336237178
0.00294773336316412
0.002947733363183624
0.002947733362475284
0.002947733363071648
0.002947733363274536
0.002947733362465271
0.002947733362423153
0.002947733363203417
0.00332054537179545
0.003320545372690455
0.003320545373581449
0.00332054537355384
0.003320545373310555
0.003320545374299283
0.003320545374411704
0.003320545373505509
0.003320545374434508
0.003320545374545429
0.00332054537441888
0.003320545373963871
0.003320545374652839
0.003320545374801641
0.003320545373808157
0.003320545374681309
0.003320545374863584
0.003320545373864817
0.00332054537473645
0.003320545374907108
0.003320545373907879
0.003320545374774787
0.003320545374953011
0.003320545373961623
0.003320545374844819
0.003320545375004728
0.003320545374005562
0.003320545374879111
0.00332054537505362
0.003320545374058538
0.003320545374937021
0.003320545375089412
0.003320545374081086
0.00332054537494531
0.003320545375127703
0.003320545374132155
0.003320545375036644
0.00332054537511642
0.003320545374088908
0.003320545374902357
0.003320545375476325
0.003320545375477308
0.003320545375380689
0.003320545374430951
0.003320545375227647
0.003320545375268202
0.003320545374280362
0.003320545375089873
0.003320545375268893
0.00332054537417679
0.003320545375135612
0.003320545375170559
0.003320545374298618
0.003320545375038386
0.003320545375285513
0.00332054537425034
0.003320545374253909
0.003320545375279492
0.00373362993610087
0.003733629936470946
0.003733629937331959
0.003733629937304979
0.003733629936925336
0.003733629938121734
0.00373362993826581
0.003733629937182454
0.003733629938301942
0.003733629938459794
0.003733629938308695
0.003733629937765348
0.003733629938587446
0.003733629938805088
0.003733629937604316
0.003733629938645722
0.003733629938894305
0.003733629937685457
0.00373362993872348
0.003733629938956751
0.003733629937746757
0.003733629938779309
0.003733629939013873
0.003733629937813294
0.003733629938866764
0.003733629939086284
0.003733629937874424
0.003733629938914551
0.003733629939149534
0.003733629937942228
0.003733629938984376
0.003733629939202174
0.003733629937981874
0.003733629939009644
0.003733629939253731
0.003733629938046009
0.003733629939121897
0.003733629939237488
0.003733629937992704
0.003733629938958913
0.00373362993969761
0.00373362993970302
0.003733629939581139
0.003733629938411997
0.003733629939355792
0.003733629939429989
0.003733629938231029
0.003733629939190416
0.003733629939421152
0.003733629938103454
0.003733629939241524
0.00373362993930915
0.003733629938239243
0.003733629939144583
0.003733629939449876
0.003733629938198895
0.003733629938276643
0.003733629939522404
0.00420528355119996
0.004205283550912399
0.004205283551628206
0.004205283551652616
0.004205283551028324
0.004205283552444583
0.004205283552629896
0.00420528355134015
0.004205283552666706
0.004205283552891337
0.004205283552711232
0.004205283552064854
0.004205283553030086
0.004205283553352201
0.004205283551908004
0.004205283553131119
0.004205283553474772
0.00420528355201908
0.004205283553237975
0.004205283553563774
0.004205283552105046
0.004205283553316371
0.004205283553632616
0.004205283552185543
0.004205283553425076
0.004205283553735169
0.004205283552272183
0.004205283553492148
0.00420528355381787
0.004205283552359505
0.004205283553576233
0.00420528355389123
0.004205283552423052
0.004205283553628769
0.004205283553961494
0.004205283552503409
0.004205283553763697
0.004205283553936013
0.00420528355243625
0.004205283553569033
0.004205283554524618
0.004205283554521845
0.004205283554371275
0.004205283552949392
0.004205283554050089
0.004205283554187059
0.004205283552735885
0.00420528355385697
0.004205283554156207
0.00420528355257844
0.004205283553907726
0.004205283554035597
0.004205283552723129
0.004205283553817068
0.004205283554204654
0.004205283552725612
0.004205283552928911
0.004205283554372987
0.0047510091960692
0.004751009195260028
0.004751009195698118
0.00475100919569549
0.004751009194826215
0.004751009196434685
0.00475100919666682
0.004751009195142617
0.004751009196680357
0.004751009196998276
0.004751009196784626
0.004751009196018489
0.004751009197131208
0.004751009197610333
0.004751009195884557
0.004751009197294501
0.004751009197772948
0.004751009196030989
0.004751009197437329
0.004751009197900357
0.004751009196151196
0.004751009197543921
0.004751009197980651
0.004751009196246811
0.004751009197680592
0.004751009198128989
0.004751009196372123
0.004751009197774598
0.004751009198237315
0.004751009196485466
0.004751009197877487
0.004751009198332743
0.004751009196579595
0.00475100919797077
0.004751009198432902
0.004751009196681987
0.004751009198128767
0.004751009198389351
0.004751009196594875
0.004751009197903213
0.00475100919914443
0.004751009199128711
0.004751009198940788
0.004751009197220778
0.00475100919847944
0.004751009198725516
0.004751009196976572
0.004751009198261497
0.004751009198652987
0.0047510091967794
0.004751009198302135
0.004751009198533675
0.004751009196927878
0.004751009198225686
0.004751009198734237
0.004751009197003391
0.004751009197408956
0.004751009199019399
0.005377826299014071
0.005377826297986278
0.005377826297949117
0.005377826297817347
0.005377826296768798
0.005377826298489897
0.005377826298756706
0.005377826296987968
0.005377826298710964
0.005377826299148629
0.005377826298898046
0.005377826297998481
0.005377826299249404
0.005377826299956895
0.005377826297923279
0.00537782629950605
0.005377826300166918
0.005377826298108702
0.005377826299689335
0.005377826300349302
0.005377826298276685
0.005377826299827451
0.005377826300437271
0.005377826298387774
0.005377826300003364
0.005377826300659251
0.005377826298572433
0.005377826300133975
0.005377826300796585
0.005377826298718712
0.005377826300264063
0.005377826300909337
0.005377826298847506
0.005377826300412553
0.005377826301063147
0.005377826298983892
0.005377826300592313
0.005377826300982213
0.005377826298866147
0.005377826300345404
0.005377826301951696
0.005377826301942153
0.005377826301706059
0.005377826299623742
0.005377826301020626
0.005377826301440947
0.005377826299357064
0.005377826300783546
0.005377826301298246
0.005377826299105678
0.005377826300799711
0.005377826301198411
0.005377826299254853
0.005377826300747798
0.005377826301434492
0.005377826299427933
0.005377826300119881
0.005377826301844451
0.006079865970336759
0.006079865969681292
0.006079865969500395
0.006079865968990065
0.006079865967466236
0.006079865969107825
0.006079865969394626
0.006079865967408168
0.006079865969216075
0.00607986596980652
0.006079865969506899
0.006079865968464023
0.006079865969823487
0.006079865970849987
0.006079865968516768
0.006079865970213817
0.006079865971117271
0.006079865968741577
0.006079865970436953
0.006079865971375769
0.006079865968974289
0.006079865970600921
0.006079865971455946
0.006079865969098268
0.006079865970834855
0.006079865971801819
0.006079865969374058
0.006079865971011433
0.006079865971959644
0.00607986596955642
0.006079865971183206
0.006079865972077808
0.006079865969719447
0.006079865971399726
0.006079865972329315
0.006079865969912199
0.006079865971599986
0.006079865972170147
0.006079865969744488
0.006079865971360338
0.006079865973376545
0.006079865973275419
0.006079865973037548
0.006079865970637284
0.006079865972114728
0.006079865972802016
0.006079865970376179
0.006079865971859864
0.006079865972549667
0.006079865970052254
0.00607986597184063
0.006079865972499578
0.006079865970204305
0.006079865971824878
0.006079865972777089
0.006079865970488801
0.006079865971483897
0.006079865973248184
0.006837772422392434
0.006837772422100459
0.00683777242154089
0.006837772421025849
0.006837772419556625
0.006837772420876609
0.006837772421172899
0.006837772419106548
0.006837772420739113
0.006837772421529949
0.006837772421162542
0.006837772419962096
0.006837772421385459
0.006837772422844015
0.006837772420282249
0.006837772421939125
0.00683777242319177
0.00683777242054565
0.006837772422196534
0.006837772423544349
0.006837772420858634
0.006837772422370293
0.006837772423570729
0.006837772420986526
0.006837772422684962
0.006837772424127662
0.006837772421399265
0.006837772422920329
0.006837772424268712
0.006837772421609537
0.006837772423142254
0.00683777242438281
0.006837772421804063
0.006837772423445282
0.006837772424801034
0.006837772422089151
0.006837772423671173
0.006837772424489062
0.00683777242184114
0.006837772423496912
0.006837772425795675
0.006837772425495843
0.006837772425294912
0.006837772422735267
0.006837772424263102
0.006837772425364546
0.006837772422654873
0.006837772423984059
0.006837772424935567
0.006837772422225164
0.006837772423927003
0.006837772424991092
0.006837772422392799
0.0068377724239594
0.006837772425312665
0.00683777242278489
0.006837772423915127
0.006837772425669725
0.007622641413604906
0.007622641413225122
0.007622641412636176
0.007622641412376073
0.007622641411598299
0.007622641412433522
0.007622641412731373
0.007622641410946867
0.00762264141186089
0.007622641412962876
0.007622641412561476
0.007622641411149952
0.007622641412523167
0.007622641414571232
0.007622641411941997
0.007622641413183659
0.007622641415051251
0.007622641412247289
0.007622641413482675
0.007622641415507002
0.007622641412647379
0.007622641413684169
0.007622641415358097
0.007622641412761024
0.007622641414081623
0.007622641416263967
0.007622641413365787
0.007622641414412989
0.007622641416303384
0.007622641413579478
0.007622641414636355
0.007622641416434955
0.007622641413809479
0.007622641415089305
0.007622641417117154
0.007622641414236566
0.007622641415356964
0.007622641416521219
0.007622641413872676
0.007622641415313372
0.007622641418115995
0.007622641417137082
0.007622641417111212
0.007622641414707791
0.007622641415979355
0.007622641417760744
0.00762264141490948
0.007622641415673317
0.007622641417006501
0.007622641414322807
0.007622641415581394
0.007622641417273147
0.007622641414530324
0.007622641415671687
0.007622641417632648
0.007622641415003806
0.007622641415884625
0.007622641417815721
0.008402703700948595
0.008402703701025867
0.008402703700434333
0.008402703699914398
0.008402703700683764
0.008402703700961191
0.00840270370039501
0.008402703699680592
0.008402703699532903
0.00840270370056467
0.008402703700747567
0.00840270369888957
0.008402703700310475
0.008402703702403702
0.00840270369993115
0.008402703700714231
0.0084027037030916
0.008402703700291335
0.008402703701111352
0.008402703703651496
0.008402703700772044
0.008402703701590282
0.008402703703030168
0.008402703700854466
0.008402703702022908
0.008402703704436788
0.008402703701684788
0.008402703702521806
0.008402703704249248
0.00840270370187359
0.008402703702490234
0.008402703704571645
0.008402703702167469
0.008402703703362265
0.008402703705543704
0.008402703702777847
0.00840270370371426
0.008402703704473102
0.008402703702268836
0.008402703703816709
0.00840270370668029
0.008402703704976823
0.008402703704838158
0.00840270370311582
0.008402703704097968
0.008402703706350887
0.008402703703538215
0.00840270370394057
0.008402703704878674
0.008402703702764079
0.008402703703821257
0.008402703705540951
0.008402703703033101
0.008402703703951292
0.008402703705910992
0.008402703703534773
0.008402703704011116
0.008402703706120373
0.009149726682493588
0.009149726683107356
0.009149726682759297
0.009149726681591573
0.009149726681828901
0.009149726683211167
0.009149726682110377
0.009149726681675765
0.009149726681871495
0.009149726681785892
0.009149726682864279
0.009149726681015272
0.009149726682131463
0.009149726684377611
0.009149726682129768
0.009149726682416049
0.009149726685165326
0.009149726682563357
0.009149726683064721
0.009149726685851923
0.009149726683079938
0.009149726683606897
0.009149726684959282
0.009149726683225454
0.009149726683929242
0.00914972668652528
0.009149726684193761
0.009149726684748791
0.009149726686433154
0.009149726684392744
0.009149726684870988
0.009149726686589069
0.009149726684787687
0.009149726685812336
0.009149726688123977
0.009149726685563091
0.009149726686128453
0.009149726686187796
0.009149726684905976
0.009149726686202181
0.009149726689577873
0.009149726687539399
0.009149726687355036
0.009149726685877031
0.009149726686656087
0.009149726689011616
0.009149726686256465
0.009149726686949132
0.009149726687098207
0.009149726685503616
0.009149726686278779
0.009149726687899439
0.009149726685788518
0.009149726686462495
0.009149726688320856
0.00914972668624096
0.009149726686494428
0.009149726688143503
0.009842885342583292
0.009842885343560832
0.009842885343938002
0.009842885342068845
0.00984288534251772
0.009842885343769862
0.009842885342279641
0.009842885342151254
0.009842885341372789
0.009842885342054162
0.009842885343697814
0.009842885341612408
0.009842885342015674
0.00984288534469574
0.009842885342725677
0.009842885342882317
0.009842885345241434
0.009842885343251659
0.009842885344112526
0.009842885346008081
0.00984288534367252
0.009842885344278938
0.009842885346015996
0.009842885344154114
0.009842885344396479
0.009842885346928501
0.009842885345039394
0.009842885345705453
0.009842885347728774
0.009842885345335371
0.009842885345398403
0.009842885347658446
0.009842885345944796
0.009842885347011209
0.009842885349324504
0.009842885346718457
0.009842885346936284
0.009842885346066746
0.009842885345874231
0.009842885348521055
0.009842885350682826
0.009842885348776278
0.009842885348531602
0.00984288534702737
0.009842885348313585
0.00984288535011809
0.009842885347121289
0.009842885348227616
0.009842885348422545
0.009842885346753908
0.009842885347150472
0.009842885349011283
0.009842885347000329
0.00984288534746936
0.009842885349245262
0.009842885347287441
0.009842885347531648
0.009842885349127526
0.01046960529339875
0.01046960529452762
0.01046960529554775
0.01046960529274607
0.01046960529399004
0.01046960529516591
0.01046960529345456
0.01046960529372527
0.01046960529215483
0.01046960529242791
0.01046960529550095
0.01046960529273429
0.01046960529283458
0.0104696052959735
0.01046960529380992
0.01046960529375842
0.01046960529645603
0.01046960529440463
0.0104696052946798
0.01046960529675761
0.01046960529462355
0.01046960529472691
0.01046960529828379
0.01046960529559163
0.01046960529579494
0.01046960529821299
0.01046960529624377
0.01046960529624617
0.0104696053001216
0.01046960529667618
0.01046960529633772
0.01046960530011813
0.01046960529747187
0.01046960529775555
0.01046960530041769
0.0104696052981925
0.01046960529902207
0.01046960529674154
0.0104696052978911
0.01046960529859972
0.01046960530283238
0.01046960530066381
0.01046960530042062
0.01046960529815238
0.01046960529993095
0.01046960530136912
0.01046960529837292
0.0104696052996264
0.01046960530083404
0.01046960529839999
0.01046960529833168
0.01046960530153912
0.01046960529858613
0.01046960529856392
0.01046960530152794
0.01046960529876912
0.01046960529858406
0.01046960530161541
0.01102424122027546
0.01102424122148002
0.01102424122307496
0.01102424121965809
0.01102424122111759
0.01102424122276868
0.0110242412209096
0.01102424122147167
0.01102424121929085
0.01102424121919951
0.01102424122315916
0.01102424121976557
0.01102424121936648
0.01102424122410606
0.01102424122081828
0.01102424122034963
0.0110242412247226
0.01102424122143037
0.01102424122096697
0.01102424122514981
0.01102424122185345
0.01102424122152268
0.01102424122612162
0.01102424122270214
0.01102424122222174
0.0110242412265261
0.01102424122330815
0.01102424122298687
0.01102424122766304
0.01102424122387897
0.01102424122328344
0.0110242412279812
0.01102424122415312
0.0110242412255828
0.01102424122783815
0.01102424122567633
0.01102424122701189
0.01102424122420182
0.01102424122387778
0.01102424122696525
0.01102424123024598
0.01102424122849819
0.01102424122827329
0.01102424122537194
0.01102424122730393
0.01102424122903292
0.01102424122606371
0.0110242412257151
0.01102424122963199
0.01102424122558379
0.0110242412268292
0.01102424122889205
0.01102424122561205
0.01102424122699563
0.0110242412289124
0.01102424122625617
0.01102424122574106
0.01102424122959738
0.01150587332117973
0.01150587332245535
0.01150587332456899
0.01150587332067679
0.01150587332220412
0.01150587332438485
0.011505873322519
0.01150587332320207
0.01150587332051925
0.01150587332002829
0.01150587332496827
0.01150587332101171
0.01150587332022561
0.01150587332578459
0.01150587332194322
0.01150587332116351
0.01150587332647824
0.0115058733225792
0.01150587332171834
0.01150587332701304
0.01150587332313058
0.01150587332238895
0.01150587332780116
0.01150587332387399
0.01150587332301259
0.01150587332833104
0.01150587332447311
0.01150587332374198
0.01150587332915253
0.01150587332507008
0.01150587332417408
0.01150587332964597
0.01150587332510798
0.01150587332683505
0.01150587332936318
0.01150587332722294
0.01150587332876401
0.01150587332538548
0.0115058733246923
0.01150587332846894
0.01150587333227955
0.01150587333029997
0.01150587332999398
0.01150587332653705
0.01150587332861134
0.01150587333070486
0.01150587332746773
0.01150587332657557
0.01150587333165404
0.0115058733268879
0.01150587332839927
0.01150587333064291
0.0115058733268753
0.01150587332854555
0.01150587333071371
0.01150587332771287
0.01150587332703214
0.01150587333126125
0.01191621154880457
0.01191621155021023
0.0119162115527896
0.01191621154849201
0.01191621155006317
0.01191621155272528
0.01191621155098268
0.01191621155161944
0.01191621154860176
0.01191621154779945
0.01191621155345263
0.01191621154908075
0.01191621154790947
0.01191621155413773
0.0119162115499052
0.01191621154878678
0.01191621155486491
0.01191621155056411
0.01191621154933555
0.01191621155543097
0.01191621155115644
0.01191621155003733
0.01191621155615604
0.0119162115518452
0.01191621155062553
0.01191621155671512
0.01191621155243907
0.01191621155128828
0.01191621155739478
0.01191621155302503
0.01191621155180912
0.01191621155797172
0.01191621155290814
0.01191621155473316
0.01191621155764808
0.01191621155565662
0.01191621155696446
0.0119162115525831
0.01191621155381976
0.01191621155491923
0.01191621156142901
0.011916211558699
0.01191621155829177
0.01191621155435555
0.01191621155664894
0.01191621155904771
0.01191621155552228
0.01191621155427743
0.01191621156015875
0.01191621155488776
0.01191621155647888
0.01191621155910597
0.01191621155489602
0.01191621155661396
0.0119162115592021
0.01191621155523054
0.01191621155645277
0.01191621155883712
0.01225807062563945
0.01225807062714047
0.01225807063013172
0.01225807062547282
0.01225807062712495