/*--------------------------------*- C++ -*----------------------------------*\
| =========                 |                                                 |
| \\      /  F ield         | OpenFOAM: The Open Source CFD Toolbox           |
|  \\    /   O peration     | Version:  v1812                                 |
|   \\  /    A nd           | Web:      www.OpenFOAM.com                      |
|    \\/     M anipulation  |                                                 |
\*---------------------------------------------------------------------------*/
FoamFile
{
    version     2.0;
    format      ascii;
    class       volScalarField;
    location    "20000";
    object      p;
}
// * * * * * * * * * * * * * * * * * * * * * * * * * * * * * * * * * * * * * //

dimensions      [0 2 -2 0 0 0 0];


internalField   nonuniform List<scalar> 
3770
(
-1.106649210647894e-14
-2.610185521077746e-10
-2.122867845557735e-10
-2.769566361166352e-10
-2.65102328986865e-10
-2.834910954674759e-10
-2.761614690230214e-10
-2.869242227200015e-10
-2.8002244425516e-10
-2.806075914369298e-10
-2.784409336531445e-10
-2.770838606783888e-10
-2.736808177487492e-10
-2.697716080811156e-10
-2.683177173187898e-10
-2.640366785821851e-10
-2.588682482633333e-10
-2.572268901766158e-10
-2.527670181141994e-10
-2.473073131600399e-10
-2.454898844860617e-10
-2.403673088582949e-10
-2.350758953284461e-10
-2.328213114647099e-10
-2.281367962925554e-10
-2.218159925016924e-10
-2.197896208100406e-10
-2.142912460024483e-10
-2.087444097864159e-10
-2.058659804912574e-10
-2.011924929033062e-10
-1.952434226998591e-10
-1.933922202345411e-10
-1.876343176904839e-10
-1.819956149486765e-10
-1.786191246055331e-10
-1.742223121132852e-10
-1.658178793412864e-10
-1.65777495135857e-10
-1.587451623200661e-10
-1.547224847715917e-10
-1.442414701455416e-10
-1.433952234512306e-10
-1.354668208018879e-10
-1.383821481203888e-10
-1.239527952157589e-10
-1.324710354628497e-10
-1.133456850649974e-10
-1.243259001831882e-10
-1.018061146351416e-10
-1.213737983688295e-10
-8.450995858004855e-11
-1.188166407106273e-10
-6.845744496971939e-11
-1.127306721827654e-10
-5.118269965349457e-11
-1.021421262635486e-10
-3.955977180171493e-11
1.148470311422338e-13
-2.606320468916812e-10
-2.123129278668491e-10
-2.768592378432185e-10
-2.650895059931026e-10
-2.834462108269234e-10
-2.761302696383694e-10
-2.869303797264016e-10
-2.800094301088501e-10
-2.805818876735888e-10
-2.78439826033086e-10
-2.770916879221554e-10
-2.736663126785639e-10
-2.697586732334617e-10
-2.68327993993503e-10
-2.640289819865955e-10
-2.588573451527002e-10
-2.572385818427363e-10
-2.527592320472346e-10
-2.472967124933196e-10
-2.455034046717581e-10
-2.403629021596036e-10
-2.35067074916501e-10
-2.328343714401755e-10
-2.28132778281001e-10
-2.21808547900935e-10
-2.198028864199549e-10
-2.142864135427698e-10
-2.087367004417094e-10
-2.058799147394798e-10
-2.01185437111845e-10
-1.952342508618072e-10
-1.934085825113685e-10
-1.87631538201163e-10
-1.819883993356597e-10
-1.786326142102215e-10
-1.7422419472126e-10
-1.658171468799776e-10
-1.657914250843115e-10
-1.587429646593598e-10
-1.547172114972294e-10
-1.442366710688235e-10
-1.433944863070757e-10
-1.35473387751417e-10
-1.383809682383094e-10
-1.239489053753765e-10
-1.324944531637609e-10
-1.133346023615188e-10
-1.243246466916044e-10
-1.018213586309955e-10
-1.213809613908162e-10
-8.450416560812532e-11
-1.188560416930419e-10
-6.847097141825232e-11
-1.127571421570768e-10
-5.128600015157078e-11
-1.022136828441426e-10
-3.999729316293416e-11
1.155710739974704e-13
-2.596994098120723e-10
-2.121023633686422e-10
-2.766938233504809e-10
-2.649591306478833e-10
-2.833461233395205e-10
-2.76035305832217e-10
-2.869310351914601e-10
-2.799521487419228e-10
-2.80528598911219e-10
-2.784299055963545e-10
-2.77094855656576e-10
-2.736224859050174e-10
-2.697373412253275e-10
-2.68344293560815e-10
-2.639995432475368e-10
-2.588427294441045e-10
-2.57261033625703e-10
-2.527307052279285e-10
-2.472834417903297e-10
-2.455299366840237e-10
-2.403412033474215e-10
-2.350583959309749e-10
-2.328609263030575e-10
-2.281133228543581e-10
-2.218027346262238e-10
-2.198306153880343e-10
-2.14265363313256e-10
-2.087308366830912e-10
-2.059085280266484e-10
-2.011617712311134e-10
-1.952254253462636e-10
-1.934418896047345e-10
-1.876144908040213e-10
-1.819854286351124e-10
-1.786603125449846e-10
-1.74219419027179e-10
-1.65827596631415e-10
-1.65825699043337e-10
-1.587220735389598e-10
-1.547071212774433e-10
-1.44232277744522e-10
-1.434102838643633e-10
-1.354814660112603e-10
-1.383737469583403e-10
-1.239401843264137e-10
-1.325495992104417e-10
-1.132902202615375e-10
-1.243490084431437e-10
-1.018366528687047e-10
-1.21408514264304e-10
-8.448388936591048e-11
-1.189673514419878e-10
-6.846319419813245e-11
-1.12860038634706e-10
-5.150198082478608e-11
-1.024145927458317e-10
-4.113373501966202e-11
-3.250539209650485e-13
-2.586525265885703e-10
-2.116130459044022e-10
-2.764790759647317e-10
-2.647187019589161e-10
-2.832116361237152e-10
-2.758822965199766e-10
-2.868977917368927e-10
-2.798700154908043e-10
-2.804606949751692e-10
-2.783917662955797e-10
-2.770787375844136e-10
-2.735676064852197e-10
-2.697054864914394e-10
-2.683501643863098e-10
-2.639633128861598e-10
-2.588235344661731e-10
-2.572784756342758e-10
-2.52698352512116e-10
-2.472663403121879e-10
-2.45552475199725e-10
-2.403179004007613e-10
-2.350498982785527e-10
-2.328856627097225e-10
-2.280944040225856e-10
-2.217980925786412e-10
-2.198566739645704e-10
-2.142438526707394e-10
-2.087256778197913e-10
-2.059367850698542e-10
-2.011379369562363e-10
-1.952144689160165e-10
-1.934761307149398e-10
-1.875989128404778e-10
-1.819865254128371e-10
-1.786863552591176e-10
-1.742163413363882e-10
-1.658441708721754e-10
-1.658680261871061e-10
-1.586989509767345e-10
-1.547032979691265e-10
-1.442362554740625e-10
-1.43435248125505e-10
-1.354826645695801e-10
-1.383680176522473e-10
-1.239178022628228e-10
-1.326119659840249e-10
-1.132388054448704e-10
-1.243889866364753e-10
-1.01838044344219e-10
-1.214585416472938e-10
-8.445161698291305e-11
-1.191020564832555e-10
-6.84549289454064e-11
-1.129827566511593e-10
-5.175463250668128e-11
-1.025898940475939e-10
-4.257067533666947e-11
-1.099291764724214e-12
-2.580798865314131e-10
-2.110388987155365e-10
-2.763021200918222e-10
-2.644534497048098e-10
-2.830793907692569e-10
-2.757406422500264e-10
-2.868370884907119e-10
-2.79788172959465e-10
-2.804064821839074e-10
-2.783448167424641e-10
-2.770461174633996e-10
-2.735200405510957e-10
-2.696834687567807e-10
-2.683375521173862e-10
-2.639276402074253e-10
-2.588157384165488e-10
-2.572791691632088e-10
-2.5266976703799e-10
-2.472608212770928e-10
-2.45557193379395e-10
-2.402973286793646e-10
-2.350538744575026e-10
-2.328938029545135e-10
-2.280790903773413e-10
-2.218060996479673e-10
-2.198650723309355e-10
-2.142247365932441e-10
-2.087320792236202e-10
-2.059481215572499e-10
-2.011183527941192e-10
-1.952142282600652e-10
-1.934947206644976e-10
-1.87586522191659e-10
-1.819993172370934e-10
-1.786938982157562e-10
-1.742101522836243e-10
-1.658704377538621e-10
-1.658937081701902e-10
-1.586692907849217e-10
-1.547076505206679e-10
-1.442504570769316e-10
-1.434684861910759e-10
-1.354742104513012e-10
-1.383646660613355e-10
-1.239032591221707e-10
-1.326541796009995e-10
-1.131953644039636e-10
-1.244375624743092e-10
-1.018217149984621e-10
-1.215029480268838e-10
-8.442757282422894e-11
-1.191993815923208e-10
-6.84441398775557e-11
-1.130722955438438e-10
-5.194032437163468e-11
-1.026331973274302e-10
-4.359728056781849e-11
-2.090644259720059e-12
-2.579229710803029e-10
-2.10443319250387e-10
-2.761487934048426e-10
-2.641774459138991e-10
-2.829404822886525e-10
-2.756113896725622e-10
-2.867555947793414e-10
-2.797039304069578e-10
-2.803607003056246e-10
-2.782933230053623e-10
-2.770006783845819e-10
-2.73475536597351e-10
-2.69671467419459e-10
-2.683119063596062e-10
-2.638895453133027e-10
-2.588193310381938e-10
-2.572667658890616e-10
-2.526401931045033e-10
-2.47265917753177e-10
-2.455477828634059e-10
-2.402756257578554e-10
-2.350707930834539e-10
-2.328894453844858e-10
-2.28064003274585e-10
-2.218273347335456e-10
-2.198597076508029e-10
-2.142041617370242e-10
-2.087504392655404e-10
-2.059470820968824e-10
-2.010977218764495e-10
-1.952234250576247e-10
-1.935025255046217e-10
-1.875746472114766e-10
-1.820244014743456e-10
-1.786873978069616e-10
-1.741970382909104e-10
-1.659063697364745e-10
-1.659067321415094e-10
-1.586318485281779e-10
-1.547150748269853e-10
-1.442694550295972e-10
-1.435109307170188e-10
-1.354617029569363e-10
-1.383606991154928e-10
-1.239004749725807e-10
-1.326800660572843e-10
-1.131558442889025e-10
-1.244934139969381e-10
-1.017961167383417e-10
-1.215367613403667e-10
-8.441748689644744e-11
-1.192622403973385e-10
-6.843156281923906e-11
-1.131302260691292e-10
-5.208354950701783e-11
-1.025837709325115e-10
-4.42486745922573e-11
-3.246079889278195e-12
-2.580946624221316e-10
-2.098435501763579e-10
-2.760017048780948e-10
-2.638851302022205e-10
-2.82787710998528e-10
-2.754890729264677e-10
-2.866547469014349e-10
-2.796106143688252e-10
-2.803184229197336e-10
-2.782392348638004e-10
-2.769438397701605e-10
-2.734290264378979e-10
-2.696673117616106e-10
-2.682758529270645e-10
-2.63845324870095e-10
-2.588319999516127e-10
-2.572454651517582e-10
-2.526068804647346e-10
-2.472806095558456e-10
-2.455286311426859e-10
-2.402495701538203e-10
-2.350981139563056e-10
-2.328766975609867e-10
-2.280460013920447e-10
-2.218596725120732e-10
-2.198449893559196e-10
-2.141796681960065e-10
-2.087789733173316e-10
-2.05937274618576e-10
-2.010740728390501e-10
-1.952420919107647e-10
-1.9350303537543e-10
-1.875596468451365e-10
-1.820598971550834e-10
-1.786714176355908e-10
-1.741764213600349e-10
-1.659519793574008e-10
-1.659122599578264e-10
-1.585858003837168e-10
-1.547233638830642e-10
-1.442919418755078e-10
-1.435628714047058e-10
-1.354467331724612e-10
-1.383543881366791e-10
-1.239087412860483e-10
-1.326952516282066e-10
-1.131158153671823e-10
-1.245567889982215e-10
-1.017646657510102e-10
-1.215604785600301e-10
-8.44200086231681e-11
-1.193015397794527e-10
-6.8417071265528e-11
-1.131680302103778e-10
-5.220604090828318e-11
-1.024698189240166e-10
-4.462417725841834e-11
-4.547604236720449e-12
-2.585829585545468e-10
-2.092502308080122e-10
-2.758550433582003e-10
-2.635779444455339e-10
-2.826147476661595e-10
-2.753698416877145e-10
-2.865335066774112e-10
-2.795053009455619e-10
-2.802757546266917e-10
-2.781804608201496e-10
-2.768751595260307e-10
-2.733781973155385e-10
-2.69669891534977e-10
-2.682315775453117e-10
-2.637944052358859e-10
-2.588534142750242e-10
-2.572155107674725e-10
-2.525672185729051e-10
-2.473033063438704e-10
-2.455002638735199e-10
-2.402175149569123e-10
-2.351364780326581e-10
-2.328566358980564e-10
-2.280240599123606e-10
-2.219036517145032e-10
-2.198222212718511e-10
-2.141499523892173e-10
-2.08818185673624e-10
-2.059211541699974e-10
-2.010449919958128e-10
-1.952684294111788e-10
-1.934981105770565e-10
-1.875410079670664e-10
-1.821067993960932e-10
-1.786476014484263e-10
-1.741462958766507e-10
-1.660069442037358e-10
-1.659134472431464e-10
-1.585298158994365e-10
-1.547289553117947e-10
-1.443160162899768e-10
-1.436265977387464e-10
-1.354322820118063e-10
-1.383452836535969e-10
-1.239279214516854e-10
-1.327016333308277e-10
-1.130741647216746e-10
-1.246286717602471e-10
-1.017288474385534e-10
-1.215744860028429e-10
-8.443596152208926e-11
-1.193187863053456e-10
-6.839986771132687e-11
-1.131887832298943e-10
-5.231528983077285e-11
-1.02299440098817e-10
-4.474655659657017e-11
-6.000551673604873e-12
-2.594062821769812e-10
-2.086807855575622e-10
-2.75709029690162e-10
-2.632572594088826e-10
-2.824175555167996e-10
-2.75255372707492e-10
-2.863877240438261e-10
-2.793829226912981e-10
-2.80232157275386e-10
-2.781191749876483e-10
-2.767931701876843e-10
-2.733207110041555e-10
-2.696797626517969e-10
-2.68177293489145e-10
-2.63733807997979e-10
-2.588837033501667e-10
-2.571770584476074e-10
-2.52520218541947e-10
-2.473362648409838e-10
-2.454630383869641e-10
-2.401775006408538e-10
-2.351857341289978e-10
-2.328291475997062e-10
-2.279958822824822e-10
-2.219596491800747e-10
-2.197915192475045e-10
-2.141134032869909e-10
-2.088686367037184e-10
-2.058980019398935e-10
-2.010100121152739e-10
-1.95305826323934e-10
-1.934865879829705e-10
-1.875160120149612e-10
-1.821653235041747e-10
-1.786158298470024e-10
-1.741059669222271e-10
-1.660731431037681e-10
-1.659102161805276e-10
-1.584614229769206e-10
-1.547310683204909e-10
-1.443439519943178e-10
-1.437035411498301e-10
-1.354178496078203e-10
-1.383320284378632e-10
-1.239603663550661e-10
-1.326985785705662e-10
-1.130299954020877e-10
-1.24709004147743e-10
-1.016893826896943e-10
-1.215751428311542e-10
-8.446818824337669e-11
-1.193119963620831e-10
-6.838166607360488e-11
-1.131942446064257e-10
-5.241589033389838e-11
-1.020635488362092e-10
-4.460079961731866e-11
-7.634851034650762e-12
-2.606254629588868e-10
-2.081534045278456e-10
-2.755613730656078e-10
-2.629204565859662e-10
-2.821824201068044e-10
-2.751439408722165e-10
-2.86209441302165e-10
-2.792362045495847e-10
-2.8018325741159e-10
-2.780522012308158e-10
-2.766944552207685e-10
-2.732533489576094e-10
-2.696975168323443e-10
-2.681122079351e-10
-2.636619490575113e-10
-2.589251066034859e-10
-2.571275055610979e-10
-2.524614767463946e-10
-2.473802724163457e-10
-2.45415064580249e-10
-2.401265391468755e-10
-2.352489194465908e-10
-2.327926740341795e-10
-2.279586208860428e-10
-2.220304333888328e-10
-2.197521908058056e-10
-2.140681309850259e-10
-2.089335635112518e-10
-2.058686035639433e-10
-2.009664764029513e-10
-1.953556836115791e-10
-1.934677793813687e-10
-1.874822345353582e-10
-1.822389695659113e-10
-1.785758746486023e-10
-1.740516344136454e-10
-1.661528430961776e-10
-1.65904197717909e-10
-1.583779727621171e-10
-1.547268091971688e-10
-1.443743771112205e-10
-1.437971551468708e-10
-1.354063159900194e-10
-1.383134156316244e-10
-1.240096220048076e-10
-1.326844337122561e-10
-1.129828965990244e-10
-1.247998685909531e-10
-1.016469263185876e-10
-1.215583344162014e-10
-8.452315186470244e-11
-1.192745535835025e-10
-6.836306168687771e-11
-1.131796631601791e-10
-5.251199076983256e-11
-1.017505413748086e-10
-4.414757181353877e-11
-9.496896472093923e-12
-2.62351290860925e-10
-2.077076383908045e-10
-2.754105109962857e-10
-2.625684502817078e-10
-2.818945115070376e-10
-2.750376150182075e-10
-2.85986417937747e-10
-2.790541077863687e-10
-2.801267138725067e-10
-2.779808075360719e-10
-2.765723369176043e-10
-2.731704220480505e-10
-2.697250469238324e-10
-2.680314029113143e-10
-2.635715975882399e-10
-2.589796754482971e-10
-2.570644945247782e-10
-2.523873357309414e-10
-2.474403637019122e-10
-2.453547116278658e-10
-2.400600671454066e-10
-2.353288360935904e-10
-2.327452910054267e-10
-2.279073249104798e-10
-2.221196106574884e-10
-2.197023338358226e-10
-2.140093935957242e-10
-2.090165182641527e-10
-2.058304698425588e-10
-2.009111762151833e-10
-1.954248612908697e-10
-1.934392861599115e-10
-1.874351765903409e-10
-1.823313295109492e-10
-1.785255536716588e-10
-1.73978853458341e-10
-1.662514316417693e-10
-1.658944063632475e-10
-1.582724721035802e-10
-1.547129008639836e-10
-1.444106610758033e-10
-1.439139691140424e-10
-1.353983938964273e-10
-1.382861047745888e-10
-1.240823739578344e-10
-1.326558663821222e-10
-1.129312232048773e-10
-1.249027592033774e-10
-1.016025612458955e-10
-1.215146148157416e-10
-8.460975906797612e-11
-1.19195888251859e-10
-6.834680709784986e-11
-1.131343565996307e-10
-5.260062334750888e-11
-1.013361984931673e-10
-4.331073289759535e-11
-1.161485863789849e-11
-2.647731815531802e-10
-2.074201180764934e-10
-2.752571215903555e-10
-2.622075762138838e-10
-2.815296419480631e-10
-2.749393324121821e-10
-2.857029344843834e-10
-2.788220213622776e-10
-2.800548145218595e-10
-2.77900672064164e-10
-2.764187313728362e-10
-2.730649589345291e-10
-2.697639871782101e-10
-2.679304937532092e-10
-2.634566584669011e-10
-2.590521957655995e-10
-2.569832301597477e-10
-2.522892144320585e-10
-2.475195179146242e-10
-2.452785999178102e-10
-2.399721101513536e-10
-2.354309071861585e-10
-2.326834459670609e-10
-2.278347182196856e-10
-2.222319627865369e-10
-2.196402410067084e-10
-2.139327631367085e-10
-2.091237402696294e-10
-2.05782932642513e-10
-2.008394114573965e-10
-1.95518419301701e-10
-1.933987946739782e-10
-1.873683785027559e-10
-1.824482866221966e-10
-1.784641677334223e-10
-1.738799339293426e-10
-1.663739435505907e-10
-1.658825086750758e-10
-1.581363902627139e-10
-1.54683132690602e-10
-1.444532514120723e-10
-1.440621080401115e-10
-1.353990264339194e-10
-1.382466315851005e-10
-1.241868333673081e-10
-1.326087010049383e-10
-1.128740248373557e-10
-1.250210770423839e-10
-1.015575203289266e-10
-1.214319132883648e-10
-8.474011036306921e-11
-1.190601260790229e-10
-6.833234572340946e-11
-1.130380939509358e-10
-5.266654465208979e-11
-1.007969789134363e-10
-4.19670401853055e-11
-1.394722760918082e-11
-2.68108206028607e-10
-2.074266116017438e-10
-2.751192558147335e-10
-2.618702698266294e-10
-2.810739183700866e-10
-2.748559077482054e-10
-2.853439757721146e-10
-2.785267094854528e-10
-2.799623195460759e-10
-2.77811638643592e-10
-2.762239925865918e-10
-2.729269132602363e-10
-2.698137153700019e-10
-2.678043261940206e-10
-2.633064064250508e-10
-2.591442430782192e-10
-2.568805848577467e-10
-2.521603273694659e-10
-2.476219880767538e-10
-2.451847369229149e-10
-2.398555987692484e-10
-2.355586612937185e-10
-2.326054691284503e-10
-2.277338835893374e-10
-2.223717216543049e-10
-2.195635056147558e-10
-2.13829880340079e-10
-2.09258634038438e-10
-2.057242357230019e-10
-2.007445012909131e-10
-1.956422475479075e-10
-1.933459214167292e-10
-1.8727629344069e-10
-1.825943293503223e-10
-1.783898705766603e-10
-1.737449346072074e-10
-1.665242357591747e-10
-1.658694071509037e-10
-1.579555708690151e-10
-1.54627108876611e-10
-1.44507750164772e-10
-1.442540485376328e-10
-1.354133186838878e-10
-1.38190395341574e-10
-1.243311936810814e-10
-1.325395046755752e-10
-1.128088036977294e-10
-1.251558231865174e-10
-1.015145944978745e-10
-1.212956545572997e-10
-8.492380156381974e-11
-1.18849690558882e-10
-6.831506315252677e-11
-1.128691582039198e-10
-5.267288307555889e-11
-1.001090698429555e-10
-3.997523602109674e-11
-1.632387967963182e-11
-2.725498555159107e-10
-2.079243255099114e-10
-2.750455497814701e-10
-2.616046027720159e-10
-2.805306568935062e-10
-2.748021725003688e-10
-2.849017289779023e-10
-2.781572276476324e-10
-2.798407832050822e-10
-2.777090697716785e-10
-2.759817225084169e-10
-2.727493658242104e-10
-2.698696532974317e-10
-2.676489750524456e-10
-2.631143267847231e-10
-2.592564543600976e-10
-2.567544049274023e-10
-2.519919946843737e-10
-2.47745229603211e-10
-2.45073151454212e-10
-2.397060137668819e-10
-2.357122210293079e-10
-2.325094994585823e-10
-2.275962591009392e-10
-2.225370328727174e-10
-2.19474105349958e-10
-2.13698183012184e-10
-2.094223423800568e-10
-2.056555099337276e-10
-2.006235424512582e-10
-1.957965753342745e-10
-1.932801038361445e-10
-1.871510825408363e-10
-1.827690172392553e-10
-1.783064347818885e-10
-1.735666787657848e-10
-1.66700355513874e-10
-1.658600041561294e-10
-1.577154657083251e-10
-1.545323612834455e-10
-1.445829242976735e-10
-1.444999573314808e-10
-1.354463184390837e-10
-1.381149867344614e-10
-1.245183148853113e-10
-1.324484376194724e-10
-1.127352378913079e-10
-1.253072790938177e-10
-1.014750640352523e-10
-1.210943338253581e-10
-8.516113523912809e-11
-1.185536433801295e-10
-6.827980594472651e-11
-1.12607838460442e-10
-5.255293330739315e-11
-9.92733447713125e-11
-3.722270276756126e-11
-1.844914176289451e-11
-2.781959837747216e-10
-2.091022002227719e-10
-2.751243594676993e-10
-2.615055809332359e-10
-2.799348998556931e-10
-2.747905464498899e-10
-2.843841521740125e-10
-2.777157331746094e-10
-2.796886900387514e-10
-2.775932281516348e-10
-2.756875319001257e-10
-2.725259562582971e-10
-2.699172364595198e-10
-2.674652446378827e-10
-2.628779106744427e-10
-2.593798275543948e-10
-2.566083777180558e-10
-2.517833234727274e-10
-2.478790271320475e-10
-2.449494996525845e-10
-2.395241702792741e-10
-2.358819222329399e-10
-2.323991033206979e-10
-2.274201932305264e-10
-2.227175774518403e-10
-2.193772770179386e-10
-2.135362211446669e-10
-2.096038736702324e-10
-2.055808647621102e-10
-2.004765141419689e-10
-1.959724944426608e-10
-1.932069330410909e-10
-1.86992579074059e-10
-1.82963424653088e-10
-1.782207738526658e-10
-1.733409373903445e-10
-1.668883872778907e-10
-1.658615381700857e-10
-1.574125090562491e-10
-1.543880110265125e-10
-1.446846767615596e-10
-1.448061688491381e-10
-1.355025327693554e-10
-1.380182836320274e-10
-1.247381883634465e-10
-1.323429993847296e-10
-1.126547930075475e-10
-1.254675655392526e-10
-1.014413062972892e-10
-1.208269143108934e-10
-8.543521941683765e-11
-1.181736177736802e-10
-6.820119294382735e-11
-1.12243363456973e-10
-5.222051838364401e-11
-9.833196366758203e-11
-3.365687800006634e-11
-2.000829973826187e-11
-2.850384060415214e-10
-2.11048207278245e-10
-2.754169105543855e-10
-2.616665904753995e-10
-2.793505928430465e-10
-2.748264575422989e-10
-2.838245335391281e-10
-2.772221833516526e-10
-2.795046612897375e-10
-2.7747093595351e-10
-2.753477858980083e-10
-2.722541255836709e-10
-2.699268592501684e-10
-2.672614574230576e-10
-2.626066839478137e-10
-2.59490761339155e-10
-2.564563906170996e-10
-2.515408495845096e-10
-2.479938369720319e-10
-2.448323534955809e-10
-2.393235862368197e-10
-2.360387130905629e-10
-2.322840335593026e-10
-2.272071317383947e-10
-2.228803660661359e-10
-2.192938310154833e-10
-2.133603975002308e-10
-2.097764377991253e-10
-2.055135066812988e-10
-2.003195561903789e-10
-1.961428461138067e-10
-1.931348516988254e-10
-1.868021256914768e-10
-1.831458542182766e-10
-1.781553391073526e-10
-1.730806107270528e-10
-1.670565305185752e-10
-1.658842407825591e-10
-1.570859584968475e-10
-1.542166157708397e-10
-1.448001413292704e-10
-1.451445586218323e-10
-1.35580002481147e-10
-1.378964673169084e-10
-1.249579986564209e-10
-1.322442696102683e-10
-1.12581718729445e-10
-1.256125297976977e-10
-1.014182673055527e-10
-1.205033595260739e-10
-8.570112602416818e-11
-1.177356237070668e-10
-6.805392207231336e-11
-1.117669484757207e-10
-5.160011142316099e-11
-9.738095733475782e-11
-2.930938936239156e-11
-2.079944422644236e-11
-2.929908782309747e-10
-2.137193122426432e-10
-2.758836064810776e-10
-2.621364634960907e-10
-2.788755476492519e-10
-2.748765777415378e-10
-2.832692969209655e-10
-2.767419884977743e-10
-2.792712789384747e-10
-2.77341719086425e-10
-2.749973303517175e-10
-2.719363145145639e-10
-2.698466287634825e-10
-2.670602975316591e-10
-2.623281577625476e-10
-2.595411840177679e-10
-2.563257233815031e-10
-2.512866501180563e-10
-2.480352224943542e-10
-2.447569444767209e-10
-2.391387001739905e-10
-2.36127514504318e-10
-2.321830398753405e-10
-2.269710484446217e-10
-2.229660955334795e-10
-2.1925992922615e-10
-2.13204236321532e-10
-2.098858979228471e-10
-2.054766738026445e-10
-2.001883177843977e-10
-1.962551148516334e-10
-1.930810859472852e-10
-1.865963263057382e-10
-1.832579781876832e-10
-1.781477020742732e-10
-1.728166886386586e-10
-1.671437590029449e-10
-1.659417034057454e-10
-1.567825494715175e-10
-1.540743740163757e-10
-1.449522786102164e-10
-1.454381792824862e-10
-1.356602549203999e-10
-1.37753816491395e-10
-1.251149017227823e-10
-1.32189904460838e-10
-1.125533002147546e-10
-1.256889490253714e-10
-1.014166262038943e-10
-1.201515665555958e-10
-8.588372213545054e-11
-1.172860542714401e-10
-6.782870255626591e-11
-1.111607121299886e-10
-5.06561235828491e-11
-9.654645834414406e-11
-2.428791527705195e-11
-2.073425810651629e-11
-3.018934738894128e-10
-2.170360270465157e-10
-2.76459522849995e-10
-2.62840867585699e-10
-2.786332932708013e-10
-2.749163187774694e-10
-2.826992137955773e-10
-2.763962788800238e-10
-2.789723014355752e-10
-2.771502003211104e-10
-2.746833025070249e-10
-2.716098071441104e-10
-2.696637164837825e-10
-2.66846984909802e-10
-2.620903192321524e-10
-2.595161003151129e-10
-2.561914560381935e-10
-2.51058114152098e-10
-2.479871231223151e-10
-2.447087522295257e-10
-2.390275969994505e-10
-2.361303345267813e-10
-2.320560750948468e-10
-2.267353838135945e-10
-2.229503500253045e-10
-2.192649901619038e-10
-2.131224776586617e-10
-2.099203723125948e-10
-2.054487815463551e-10
-2.001435796712714e-10
-1.962874920647651e-10
-1.930028174709429e-10
-1.863998929336871e-10
-1.832739818175848e-10
-1.78194781258433e-10
-1.726102065320581e-10
-1.671241170984095e-10
-1.65995698967261e-10
-1.565254802911313e-10
-1.540129809551353e-10
-1.451765206388454e-10
-1.456205748631356e-10
-1.356976380665442e-10
-1.376312594702996e-10
-1.251884527701889e-10
-1.321685255538435e-10
-1.126360090872808e-10
-1.256781406551691e-10
-1.01385850469494e-10
-1.198159421178161e-10
-8.594325050570442e-11
-1.168244466204521e-10
-6.754444672044454e-11
-1.104504296194248e-10
-4.937423941133228e-11
-9.593503526212157e-11
-1.871480204685055e-11
-1.980392376173301e-11
-3.115353146073151e-10
-2.209218318387552e-10
-2.77221739630177e-10
-2.636716366306741e-10
-2.785754397974489e-10
-2.749634343042128e-10
-2.821010639600025e-10
-2.76199174088898e-10
-2.786343085143735e-10
-2.768638084300885e-10
-2.744045668791621e-10
-2.713366003069815e-10
-2.694179506489122e-10
-2.665960342017621e-10
-2.619385385294593e-10
-2.594261803477636e-10
-2.559849843647725e-10
-2.508982353850048e-10
-2.478859484492232e-10
-2.446264969443226e-10
-2.390312249652567e-10
-2.360710237227632e-10
-2.318376055317817e-10
-2.265364005335139e-10
-2.22858412607922e-10
-2.192466311988001e-10
-2.131407795618684e-10
-2.099127700029962e-10
-2.053836362137975e-10
-2.002193296939499e-10
-1.962559844280743e-10
-1.928334210761392e-10
-1.862341094472092e-10
-1.832269070588961e-10
-1.782589572886663e-10
-1.725276900370005e-10
-1.670133043191419e-10
-1.659704926165292e-10
-1.563471662718956e-10
-1.540143353018025e-10
-1.454216228965096e-10
-1.45697539689255e-10
-1.356864339004575e-10
-1.375914211761264e-10
-1.252144598575348e-10
-1.321049694858681e-10
-1.12846134586953e-10
-1.256163400471873e-10
-1.012721669784961e-10
-1.195564713552192e-10
-8.589747347922842e-11
-1.162952806251018e-10
-6.723342781953895e-11
-1.097138046026139e-10
-4.775521644602778e-11
-9.559672098904075e-11
-1.268611294906699e-11
-1.809123446514678e-11
-3.216215552390554e-10
-2.252318315327559e-10
-2.783309193078626e-10
-2.646026806784359e-10
-2.785853853010587e-10
-2.75084190241798e-10
-2.815291183887227e-10
-2.760541628401165e-10
-2.782667745807122e-10
-2.765162827554444e-10
-2.741293423247258e-10
-2.711295692114662e-10
-2.691317587353201e-10
-2.663097891681776e-10
-2.618526292069337e-10
-2.592724473003126e-10
-2.557040256799919e-10
-2.508508473111663e-10
-2.477722659473541e-10
-2.444555268396788e-10
-2.390921163221734e-10
-2.359605557539923e-10
-2.315599609457542e-10
-2.264299663042468e-10
-2.227182280291249e-10
-2.191435568327516e-10
-2.132127279496844e-10
-2.098945087598877e-10
-2.052935148117077e-10
-2.003500634858479e-10
-1.961599083816993e-10
-1.926080112109837e-10
-1.861151544381857e-10
-1.831598576021178e-10
-1.783081351896174e-10
-1.725778720701926e-10
-1.668322345995265e-10
-1.658197481997752e-10
-1.562658470808319e-10
-1.540448000179424e-10
-1.456494653484337e-10
-1.457231429109048e-10
-1.356358766755675e-10
-1.376419793176315e-10
-1.252405148707974e-10
-1.319675228727001e-10
-1.130885263383362e-10
-1.255250058420747e-10
-1.011246577807043e-10
-1.193867634642768e-10
-8.577365250524302e-11
-1.157149170277017e-10
-6.692809735530432e-11
-1.090107173400876e-10
-4.582526957260443e-11
-9.549094389592332e-11
-6.33069692690921e-12
-1.577438051538264e-11
-3.318422162802038e-10
-2.297776567285796e-10
-2.797875767242747e-10
-2.656295497234593e-10
-2.786673017243961e-10
-2.752749372370373e-10
-2.809869717101696e-10
-2.759544141171523e-10
-2.779081307334013e-10
-2.761620068629971e-10
-2.738284460011805e-10
-2.709468512028861e-10
-2.688214244836163e-10
-2.659975315147338e-10
-2.617907183354806e-10
-2.590824000544352e-10
-2.554018050876587e-10
-2.509004335889068e-10
-2.476644608562928e-10
-2.441891569945423e-10
-2.390779396897064e-10
-2.358132758091819e-10
-2.313194857110666e-10
-2.264477439292436e-10
-2.225721919660821e-10
-2.189206760342227e-10
-2.132463622409998e-10
-2.098938508726044e-10
-2.052199264824839e-10
-2.00433797001323e-10
-1.960164859252298e-10
-1.924330295090784e-10
-1.860531352045354e-10
-1.830848556609689e-10
-1.782839893897989e-10
-1.727149103735663e-10
-1.666576854083829e-10
-1.65586670492051e-10
-1.562045108854565e-10
-1.540432519802272e-10
-1.458667259283833e-10
-1.457609892781285e-10
-1.355878118490834e-10
-1.377123479821164e-10
-1.252898755381912e-10
-1.318003681020982e-10
-1.132521791880242e-10
-1.25416982149343e-10
-1.010095867408911e-10
-1.192157546240265e-10
-8.562063239576884e-11
-1.151726486601211e-10
-6.659898198911315e-11
-1.083971059834558e-10
-4.368153215478406e-11
-9.551969041440976e-11
1.741150967314067e-13
-1.303654996042665e-11
-3.41949135422349e-10
-2.344059194453568e-10
-2.81479345549303e-10
-2.66744435463159e-10
-2.787975689560357e-10
-2.754650071329186e-10
-2.804682643698131e-10
-2.759210710035927e-10
-2.775996151979071e-10
-2.758460268799154e-10
-2.735065751369196e-10
-2.70733365017386e-10
-2.685165847499534e-10
-2.657025066902465e-10
-2.616869548661289e-10
-2.588904395463519e-10
-2.551488027746635e-10
-2.509224532377656e-10
-2.47544030488046e-10
-2.43934363309953e-10
-2.389696120028318e-10
-2.356620618704e-10
-2.311526853424801e-10
-2.264875230009635e-10
-2.224575307324237e-10
-2.186918146778304e-10
-2.132046891111625e-10
-2.09884312764651e-10
-2.051727590479903e-10
-2.004466161015029e-10
-1.958749061726413e-10
-1.923491919686296e-10
-1.859878324370585e-10
-1.829837718525666e-10
-1.781821256783147e-10
-1.728768696740077e-10
-1.665641858410679e-10
-1.653553340998882e-10
-1.56064229036902e-10
-1.53964976964853e-10
-1.460761684889825e-10
-1.458376674829521e-10
-1.356007461402549e-10
-1.377552363586441e-10
-1.253356561037189e-10
-1.316622223239694e-10
-1.133226621072585e-10
-1.252825132984586e-10
-1.009403585670407e-10
-1.190005580244042e-10
-8.548048852886578e-11
-1.146918218419972e-10
-6.616558948640061e-11
-1.078969826536282e-10