/*--------------------------------*- C++ -*----------------------------------*\
| =========                 |                                                 |
| \\      /  F ield         | OpenFOAM: The Open Source CFD Toolbox           |
|  \\    /   O peration     | Version:  v1812                                 |
|   \\  /    A nd           | Web:      www.OpenFOAM.com                      |
|    \\/     M anipulation  |                                                 |
\*---------------------------------------------------------------------------*/
FoamFile
{
    version     2.0;
    format      ascii;
    class       surfaceScalarField;
    location    "20000";
    object      phi;
}
// * * * * * * * * * * * * * * * * * * * * * * * * * * * * * * * * * * * * * //

dimensions      [0 3 -1 0 0 0 0];
oriented        oriented;


internalField   nonuniform List<scalar> 
7417
(
-0.0005224313969849987
-1.191825428256837e-13
-0.0005224313972635526
2.784555942495518e-13
-0.0005224313972206892
-4.284513921916755e-14
-0.000522431397301856
8.120765936235601e-14
-0.000522431397303796
1.923958359713106e-15
-0.0005224313973284614
2.469094997227391e-14
-0.0005224313973502959
2.189996454861174e-14
-0.0005224313973615916
1.135503114198627e-14
-0.0005224313973614995
-7.351536546499062e-17
-0.000522431397376169
1.423656309985427e-14
-0.0005224313973878123
1.207577279691181e-14
-0.0005224313973887379
8.505272636906009e-16
-0.0005224313973924264
3.692532098274462e-15
-0.0005224313974054345
1.305495908806321e-14
-0.0005224313974031778
-2.323149063623577e-15
-0.0005224313974017008
-1.579305156431324e-15
-0.0005224313974124253
1.067049431529918e-14
-0.0005224313974081721
-4.192151276494895e-15
-0.0005224313974064252
-1.66932118069436e-15
-0.0005224313974164673
9.984426313847224e-15
-0.0005224313974117136
-4.506403501028483e-15
-0.0005224313974084596
-3.15215857667474e-15
-0.0005224313974177098
9.304048060795448e-15
-0.0005224313974119516
-5.714438927515325e-15
-0.0005224313974089466
-2.962858057857156e-15
-0.0005224313974173108
8.337917628138208e-15
-0.0005224313974116417
-5.782332065049454e-15
-0.000522431397407351
-4.378653248575733e-15
-0.0005224313974162501
8.849490556455776e-15
-0.000522431397409668
-6.697494462576706e-15
-0.0005224313974068927
-2.803783834794977e-15
-0.0005224313974158702
8.807039654436755e-15
-0.0005224313974103311
-5.241997548100683e-15
-0.0005224313974058485
-4.430991389570915e-15
-0.0005224313974136179
7.746203783117391e-15
-0.000522431397405715
-7.858232052094871e-15
-0.0005224313974010834
-4.833034442364218e-15
-0.0005224313974040703
2.914971800433582e-15
-0.0005224313973957568
-8.482531883538768e-15
-0.0005224313973826067
-1.327415722269486e-14
-0.0005224313973847137
2.119810302958811e-15
-0.0005224313973822813
-2.426715045835666e-15
-0.0005224313973936905
1.153774762550243e-14
-0.0005224313973861325
-7.547156874291133e-15
-0.0005224313973927729
6.61482140868434e-15
-0.0005224313973953353
2.588392392801977e-15
-0.0005224313973985988
3.268901209539355e-15
-0.0005224313973808975
-1.792561609578448e-14
-0.0005224313974044383
2.375257720963449e-14
-0.0005224313973777138
-2.67070743862658e-14
-0.0005224313973939393
1.622472935891632e-14
-0.0005224313973677041
-2.622786906392472e-14
-0.0005224313973901046
2.244325320266982e-14
-0.0005224313973272953
-6.271153740319192e-14
-0.0005224313973693572
4.214394625927826e-14
-0.0005224313972686802
-1.006619690210641e-13
-0.0005224313972679854
-7.598860311782061e-16
-1.612954030281261e-13
-0.0002002658244796174
-1.978368543317419e-13
-0.000200265824736294
5.349606083168611e-13
-0.0002002658247485013
-3.043183809532997e-14
-0.0002002658248202801
1.530570844029895e-13
-0.0002002658248413257
2.289865615820034e-14
-0.0002002658248642056
4.764682790408468e-14
-0.0002002658248973121
5.517688252476799e-14
-0.0002002658249061786
2.032083015173025e-14
-0.0002002658249097664
3.519010126298951e-15
-0.0002002658249260483
3.025337794649988e-14
-0.0002002658249386101
2.492902625308813e-14
-0.0002002658249382753
4.650325421858795e-16
-0.0002002658249423318
7.766387442118278e-15
-0.0002002658249587845
2.954988592087188e-14
-0.0002002658249565683
-4.668316494022238e-15
-0.0002002658249538469
-4.467284393631761e-15
-0.0002002658249674933
2.425273626907702e-14
-0.0002002658249629385
-8.672606153455975e-15
-0.0002002658249597218
-4.781282730280727e-15
-0.0002002658249726617
2.296960070292952e-14
-0.0002002658249673166
-9.639567622442636e-15
-0.0002002658249623974
-7.94219810362528e-15
-0.0002002658249741627
2.107796223487314e-14
-0.0002002658249680575
-1.177083507036193e-14
-0.0002002658249628787
-8.107884170631723e-15
-0.0002002658249737854
1.915881072953511e-14
-0.0002002658249673284
-1.236035436788549e-14
-0.0002002658249613573
-1.041452403253426e-14
-0.0002002658249723841
1.982186347769502e-14
-0.0002002658249652865
-1.393698491473072e-14
-0.0002002658249605889
-7.482628462479182e-15
-0.0002002658249722023
2.042768822648674e-14
-0.0002002658249656702
-1.158176477013614e-14
-0.0002002658249595156
-1.058962415379568e-14
-0.0002002658249695314
1.768803833175266e-14
-0.0002002658249618384
-1.556131574864213e-14
-0.0002002658249534524
-1.326973996358159e-14
-0.0002002658249592913
8.746995383305135e-15
-0.0002002658249508464
-1.711996209434641e-14
-0.0002002658249383878
-2.583298482678504e-14
-0.0002002658249374658
1.281531484796061e-15
-0.000200265824937116
-2.648147220215783e-15
-0.0002002658249468174
2.130232206732067e-14
-0.0002002658249423911
-1.20646617595789e-14
-0.0002002658249412694
5.424090625829019e-15
-0.0002002658249507354
1.210014947120801e-14
-0.0002002658249450982
-2.355871346030405e-15
-0.000200265824935535
-2.764259389846972e-14
-0.0002002658249499325
3.824323209702158e-14
-0.0002002658249351049
-4.153915484358992e-14
-0.0002002658249329106
1.399474789301572e-14
-0.0002002658249280711
-3.107496474437613e-14
-0.0002002658249242112
1.865119034950608e-14
-0.0002002658248849526
-1.018419054892573e-13
-0.0002002658248967549
5.405924094013298e-14
-0.0002002658248181972
-1.79184558637752e-13
-0.0002002658247916768
-2.741059898499708e-14
-3.948488239316447e-13
-5.050252755534055e-05
-2.952808181456647e-13
-5.050252778596638e-05
7.656053542407292e-13
-5.050252784449705e-05
2.80145452948549e-14
-5.050252790594728e-05
2.144836034995928e-13
-5.050252794243368e-05
5.94138593557251e-14
-5.050252796598073e-05
7.115580888195733e-14
-5.050252800165328e-05
9.080263082260577e-14
-5.050252801150365e-05
3.014382182521916e-14
-5.050252802018422e-05
1.220705333758022e-14
-5.050252803573653e-05
4.569309694445472e-14
-5.050252804757868e-05
3.687324406458575e-14
-5.050252804858061e-05
1.446107666555196e-15
-5.050252805424161e-05
1.341703936525602e-14
-5.050252806867384e-05
4.398831151816608e-14
-5.050252806781379e-05
-5.477013905450378e-15
-5.050252806714154e-05
-5.116832071599708e-15
-5.050252807852744e-05
3.563073751521581e-14
-5.050252807508455e-05
-1.211241487536862e-14
-5.050252807368235e-05
-6.18411254521709e-15
-5.050252808431284e-05
3.353931731198508e-14
-5.05025280799838e-05
-1.39364796802342e-14
-5.050252807701755e-05
-1.090851785739996e-14
-5.050252808641854e-05
3.051527563607269e-14
-5.050252808143439e-05
-1.675030313393587e-14
-5.050252807789306e-05
-1.162806050783721e-14
-5.050252808646205e-05
2.775245213415247e-14
-5.050252808092588e-05
-1.79069615530799e-14
-5.05025280768217e-05
-1.454135414612808e-14
-5.050252808526361e-05
2.825983576589829e-14
-5.050252807923299e-05
-1.996903836990735e-14
-5.050252807600092e-05
-1.073940173224174e-14
-5.050252808503346e-05
2.934437680623665e-14
-5.050252807932391e-05
-1.721502061707532e-14
-5.050252807512954e-05
-1.474975968493691e-14
-5.050252808254363e-05
2.512181775147547e-14
-5.050252807642693e-05
-2.165670957433856e-14
-5.050252806922284e-05
-2.057759670011408e-14
-5.050252807289872e-05
1.237772038082328e-14
-5.050252806528867e-05
-2.472756414961249e-14
-5.050252805758861e-05
-3.356096147334399e-14
-5.050252805588293e-05
-4.60350204702644e-16
-5.050252805533894e-05
-3.259835539105572e-15
-5.050252806039193e-05
2.641200402815347e-14
-5.05025280584514e-05
-1.394842217215593e-14
-5.050252805564871e-05
2.647787990787513e-15
-5.050252806515862e-05
2.160785597159391e-14
-5.050252805673597e-05
-1.07822845114246e-14
-5.050252805415394e-05
-3.027340775169871e-14
-5.050252805994656e-05
4.411558963083425e-14
-5.050252805287429e-05
-4.859670054518968e-14
-5.050252804385841e-05
5.007186734957512e-15
-5.050252804660727e-05
-2.831477282082901e-14
-5.05025280318474e-05
3.869655638763892e-15
-5.05025280093226e-05
-1.243708865002794e-13
-5.050252800528781e-05
5.000855768266772e-14
-5.050252794083303e-05
-2.436492039716732e-13
-5.050252791397978e-05
-5.42366308686591e-14
-6.559321194608835e-13
2.691343252942768e-05
-4.223045525864069e-13
2.691343233751392e-05
9.574172950431735e-13
2.691343225207146e-05
1.135668317243772e-13
2.691343219481342e-05
2.717598425160871e-13
2.691343214865824e-05
1.05540645753521e-13
2.69134321244394e-05
9.542221364672833e-14
2.691343208616956e-05
1.291635868709352e-13
2.691343207358612e-05
4.279748002389056e-14
2.691343206240129e-05
2.341289699246494e-14
2.69134320471785e-05
6.082098454775938e-14
2.691343203415564e-05
5.00133289482306e-14
2.691343203142332e-05
4.145993203743368e-15
2.691343202545421e-05
1.939953371321533e-14
2.691343201149964e-05
5.797205643335107e-14
2.691343201070157e-05
-4.747558974531889e-15
2.691343201085562e-05
-5.377577047128973e-15
2.691343200023951e-05
4.619933693999117e-14
2.691343200235731e-05
-1.418966290876301e-14
2.691343200358698e-05
-7.352924272035886e-15
2.691343199387512e-05
4.329482892971615e-14
2.691343199692502e-05
-1.688890497239254e-14
2.691343199957667e-05
-1.347754725074656e-14
2.691343199113897e-05
3.896246538098104e-14
2.691343199491285e-05
-2.049573633358639e-14
2.69134319983548e-05
-1.50424415528367e-14
2.691343199076439e-05
3.529937117793912e-14
2.69134319952013e-05
-2.241642736564162e-14
2.691343199916097e-05
-1.854350028511108e-14
2.691343199182177e-05
3.556597506250641e-14
2.691343199672163e-05
-2.494900341574076e-14
2.691343200008427e-05
-1.409531720868325e-14
2.691343199218971e-05
3.725952882363134e-14
2.691343199679294e-05
-2.173615657403528e-14
2.691343200072969e-05
-1.867368190659263e-14
2.691343199451814e-05
3.129555810768673e-14
2.691343199923643e-05
-2.640300550632675e-14
2.691343200638994e-05
-2.773772740389571e-14
2.691343200365949e-05
1.511608418587546e-14
2.691343201059324e-05
-3.176912577452704e-14
2.691343201685112e-05
-3.988959574933353e-14
2.691343201965408e-05
-3.221446953533271e-15
2.691343202084067e-05
-4.349996529539391e-15
2.691343201769052e-05
2.95933327589623e-14
2.691343201792012e-05
-1.423738600055025e-14
2.691343202194073e-05
-1.421302591467677e-15
2.691343201175751e-05
3.181149091430782e-14
2.691343202064201e-05
-1.965019937325589e-14
2.691343202100574e-05
-3.069508400003299e-14
2.691343201904817e-05
4.609773441635923e-14
2.691343202168701e-05
-5.123726036273278e-14
2.691343203441722e-05
-7.744670067624502e-15
2.691343202807495e-05
-2.198061041189115e-14
2.691343204642761e-05
-1.445006065543659e-14
2.691343206247076e-05
-1.403389542181032e-13
2.691343207185634e-05
4.068943684371677e-14
2.691343212826004e-05
-3.000333517933552e-13
2.691343214957534e-05
-7.563575567945004e-14
-9.088219403805731e-13
8.2141118308134e-05
-5.74877831354874e-13
8.214111815764778e-05
1.107940896057312e-12
8.214111805797229e-05
2.131240818563099e-13
8.214111800309927e-05
3.266113796663452e-13
8.214111795065875e-05
1.580518528017961e-13
8.214111792530571e-05
1.207265949522694e-13
8.214111788542291e-05
1.689656892293133e-13
8.214111786997577e-05
5.820129725303222e-14
8.214111785705781e-05
3.632746391365143e-14
8.214111784200681e-05
7.582571838901116e-14
8.214111782777638e-05
6.427423985028935e-14
8.214111782342407e-05
8.499934132096397e-15
8.214111781738477e-05
2.542858050844404e-14
8.214111780376036e-05
7.158034389249546e-14
8.214111780139776e-05
-2.322681485137976e-15
8.214111780124272e-05
-5.158014034185866e-15
8.214111779116269e-05
5.628561985121569e-14
8.214111779198115e-05
-1.502029769857683e-14
8.214111779325777e-05
-8.646282427463732e-15
8.214111778428691e-05
5.221382216972038e-14
8.214111778608659e-05
-1.869837568309618e-14
8.214111778866332e-05
-1.608669715809308e-14
8.214111778096659e-05
4.668524957474722e-14
8.214111778358222e-05
-2.310617013661259e-14
8.214111778709263e-05
-1.854065454363235e-14
8.214111778028443e-05
4.214523639802744e-14
8.214111778363748e-05
-2.576181687090799e-14
8.21411177876826e-05
-2.260811410412182e-14
8.214111778118799e-05
4.206833525996484e-14
8.214111778501449e-05
-2.874394708376871e-14
8.214111778868165e-05
-1.778290507582886e-14
8.21411177817143e-05
4.414494961133772e-14
8.214111778521969e-05
-2.521796116532686e-14
8.214111778915041e-05
-2.256879033087938e-14
8.214111778385508e-05
3.662784824429319e-14
8.214111778732202e-05
-2.985425624049044e-14
8.214111779445667e-05
-3.493885470505175e-14
8.21411177925293e-05
1.698884075902946e-14
8.214111779869529e-05
-3.790857198313998e-14
8.214111780422139e-05
-4.541402854629957e-14
8.214111780796365e-05
-7.017117106798233e-15
8.214111780986005e-05
-6.322989034615448e-15
8.214111780781144e-05
3.167166795883439e-14
8.214111780686296e-05
-1.321299068543736e-14
8.214111781161657e-05
-6.137536737519617e-15
8.214111780131086e-05
4.21133014202902e-14
8.214111780977677e-05
-2.812444250575773e-14
8.214111780944914e-05
-3.03816178867735e-14
8.214111780955653e-05
4.603622896504183e-14
8.214111780955097e-05
-5.121632661274026e-14
8.214111782391441e-05
-2.207806457132099e-14
8.21411178162862e-05
-1.433135349382057e-14
8.214111783510009e-05
-3.328976030052608e-14
8.214111784858274e-05
-1.538533202883422e-13
8.2141117859146e-05
3.009576139235789e-14
8.214111791060908e-05
-3.515044595414201e-13
8.214111792597851e-05
-9.094556499514264e-14
-1.138301684351023e-12
0.0001267277214733023
-7.470207855681215e-13
0.0001267277213642669
1.216890593375981e-12
0.0001267277212571688
3.202734635915847e-13
0.0001267277212043617
3.794095933301547e-13
0.0001267277211472499
2.15170113919172e-13
0.0001267277211204727
1.475422228188712e-13
0.0001267277210794856
2.100056100873827e-13
0.0001267277210613641
7.6380430796217e-14
0.000126727721046809
5.092043873920869e-14
0.0001267277210317518
9.08420717236077e-14
0.0001267277210164718
7.962285975117452e-14
0.0001267277210105965
1.434409031609152e-14
0.0001267277210044215
3.161146162617147e-14
0.0001267277209911721
8.485635722264759e-14
0.0001267277209874079
1.404460450272235e-15
0.0001267277209868527
-4.691515383080023e-15
0.0001267277209772705
6.581714021783611e-14
0.0001267277209768879
-1.460851838581797e-14
0.0001267277209781039
-9.814178166658172e-15
0.0001267277209698714
6.048710977000616e-14
0.0001267277209705507
-1.931616010561185e-14
0.0001267277209729796
-1.844517836947124e-14
0.0001267277209660013
5.368172646299456e-14
0.0001267277209675801
-2.465677155028878e-14
0.0001267277209710429
-2.196594617820686e-14
0.0001267277209649975
4.816841405060194e-14
0.0001267277209673763
-2.820586901127532e-14
0.0001267277209714118
-2.669244685976214e-14
0.0001267277209657288
4.771910321034539e-14
0.0001267277209686048
-3.168191109494129e-14
0.0001267277209724538
-2.163785633985769e-14
0.0001267277209664036
5.020353633194388e-14
0.0001267277209689421
-2.770040667457263e-14
0.0001267277209728005
-2.639095076219197e-14
0.0001267277209683801
4.103199900357291e-14
0.0001267277209707685
-3.228125584092731e-14
0.0001267277209777344
-4.19138116048554e-14
0.0001267277209765878
1.813934922536724e-14
0.0001267277209820496
-4.345540339118966e-14
0.0001267277209870375
-5.048010116313088e-14
0.0001267277209915713
-1.1534683045463e-14
0.0001267277209940204
-8.682943643161022e-15
0.0001267277209928401
3.288328504187956e-14
0.0001267277209910203
-1.143649471319e-14
0.0001267277209962202
-1.137886841891693e-14
0.0001267277209861395
5.220447876098684e-14
0.0001267277209939903
-3.595288015298131e-14
0.0001267277209932903
-2.970902986312619e-14
0.000126727720994903
4.443436071004766e-14
0.0001267277209930393
-4.934705759442527e-14
0.0001267277210081607
-3.721151286422959e-14
0.0001267277210001807
-6.358661678369753e-15
0.0001267277210185132
-5.160663194142999e-14
0.0001267277210305838
-1.658644512490749e-13
0.0001267277210411383
1.959380758450813e-14
0.0001267277210889266
-3.992797102667461e-13
0.0001267277210999322
-1.020209078743948e-13
-1.339539045064072e-12
0.0001667505846378215
-9.336880417201892e-13
0.0001667505845689153
1.285830984163855e-12
0.0001667505844585838
4.304996113986414e-13
0.0001667505844075896
4.304108580846872e-13
0.0001667505843464961
2.7634043718437e-13
0.000166750584317957
1.760345772191074e-13
0.0001667505842759496
2.519296202991513e-13
0.0001667505842552736
9.699469643445407e-14
0.0001667505842389632
6.721622568105166e-14
0.0001667505842236435
1.061174446876232e-13
0.0001667505842073644
9.589344397987021e-14
0.0001667505841999984
2.171954973718106e-14
0.0001667505841935113
3.808549604679678e-14
0.0001667505841806171
9.772719167777292e-14
0.0001667505841755945
6.501724077053642e-15
0.0001667505841744954
-3.514772513769639e-15
0.0001667505841653454
7.499303886746322e-14
0.000166750584163867
-1.314526893045336e-14
0.0001667505841648596
-1.082599729002822e-14
0.0001667505841573267
6.796052278910524e-14
0.0001667505841570341
-1.905025402967852e-14
0.0001667505841591989
-2.065229452076121e-14
0.0001667505841529014
5.999309820552402e-14
0.0001667505841535839
-2.533368121115087e-14
0.0001667505841568613
-2.523825017115553e-14
0.0001667505841515452
5.352103869822578e-14
0.0001667505841530899
-2.972622742986212e-14
0.0001667505841569897
-3.060863651855307e-14
0.0001667505841520848
5.263067877843532e-14
0.0001667505841541583
-3.371635576388363e-14
0.0001667505841580464
-2.553857880884521e-14
0.0001667505841528966
5.528302880197853e-14
0.0001667505841546329
-2.943437791108657e-14
0.0001667505841583211
-3.004992783061545e-14
0.0001667505841547517
4.463732277422425e-14
0.0001667505841562438
-3.374928996898428e-14
0.0001667505841629154
-4.865128717467112e-14
0.0001667505841625369
1.846014707096023e-14
0.0001667505841674382
-4.830881397429202e-14
0.0001667505841719616
-5.498804430694216e-14
0.0001667505841771553
-1.677590638880766e-14
0.0001667505841800053
-1.164525200907857e-14
0.0001667505841796091
3.329101111988484e-14
0.000166750584177144
-8.894574167614618e-15
0.0001667505841826168
-1.679765023491199e-14
0.000166750584172938
6.18850142118384e-14
0.0001667505841802071
-4.323565612885435e-14
0.0001667505841791837
-2.869599751007975e-14
0.0001667505841820575
4.159104982584203e-14
0.000166750584178809
-4.60845628616368e-14
0.0001667505841942554
-5.262083683711594e-14
0.0001667505841863778
1.543748065783347e-15
0.0001667505842039793
-6.923556496950399e-14
0.0001667505842151732
-1.770967970584603e-13
0.0001667505842254109
9.317700921954452e-15
0.0001667505842704645
-4.443372016360591e-13
0.0001667505842788317
-1.103197695555042e-13
-1.511785097486578e-12
0.0002077388928042464
-1.132970459559448e-12
0.0002077388927741588
1.315841895264402e-12
0.0002077388926627986
5.418379899676938e-13
0.0002077388926131845
4.79993014959003e-13
0.0002077388925479949
3.415875748268908e-13
0.0002077388925171041
2.069567692535851e-13
0.0002077388924736735
2.9537208879458e-13
0.0002077388924502789
1.204256534575049e-13
0.0002077388924318677
8.567625564622086e-14
0.0002077388924158761
1.221044096884037e-13
0.0002077388923984362
1.133790444945662e-13
0.0002077388923894779
3.065361334399019e-14
0.0002077388923824131
4.51489127648596e-14
0.0002077388923697333
1.104242820103136e-13
0.0002077388923634967
1.27365543263597e-14
0.0002077388923616805
-1.761835081960213e-15
0.0002077388923528253
8.37900632239333e-14
0.0002077388923503007
-1.060360937912454e-14
0.0002077388923508974
-1.138408612138724e-14
0.0002077388923439674
7.492310770457348e-14
0.0002077388923428111
-1.785568120348604e-14
0.0002077388923446041
-2.239128138524607e-14
0.0002077388923389091
6.57166900751762e-14
0.0002077388923388101
-2.520096769104552e-14
0.0002077388923417908
-2.816537599019286e-14
0.0002077388923371415
5.816926479705674e-14
0.0002077388923379741
-3.062347628058339e-14
0.0002077388923416466
-3.434478600381826e-14
0.0002077388923374669
5.677464078897374e-14
0.0002077388923388701
-3.516170236596888e-14
0.0002077388923426909
-2.937849024005192e-14
0.0002077388923384095
5.955235509196411e-14
0.0002077388923395011
-3.048095160847624e-14
0.0002077388923429501
-3.343624511755344e-14
0.000207738892340204
4.739300480291554e-14
0.0002077388923409533
-3.454707736765524e-14
0.000207738892347266
-5.499282358003336e-14
0.0002077388923476658
1.804755320310224e-14
0.0002077388923521804
-5.289102094003306e-14
0.0002077388923562676
-5.916215210255165e-14
0.0002077388923620329
-2.255971207887651e-14
0.0002077388923652133
-1.474401960828217e-14
0.0002077388923656061
3.294343323428021e-14
0.0002077388923626572
-5.9638380946113e-15
0.0002077388923683274
-2.24983939874964e-14
0.0002077388923591111
7.110729220127813e-14
0.0002077388923659242
-5.002172673111941e-14
0.0002077388923645508
-2.733051198121042e-14
0.0002077388923685837
3.756542241625706e-14
0.0002077388923642576
-4.174232083268406e-14
0.0002077388923798577
-6.82181660112352e-14
0.0002077388923723345
9.065261115985424e-15
0.0002077388923892401
-8.614557819693703e-14
0.0002077388923999948
-1.878093275542761e-13
0.0002077388924099296
-5.774014549114845e-16
0.0002077388924533143
-4.877152356962216e-13
0.0002077388924605594
-1.17614730123211e-13
-1.656137298207128e-12
0.0002566836507191642
-1.346159149140521e-12
0.0002566836507283219
1.306695694261838e-12
0.0002566836506167292
6.533673403711069e-13
0.0002566836505678485
5.289049521240223e-13
0.0002566836504975837
4.119143042526772e-13
0.0002566836504632893
2.412226101041486e-13
0.000256683650417461
3.411263627672878e-13
0.000256683650390717
1.471058802349565e-13
0.0002566836503695166
1.068452923211275e-13
0.0002566836503522092
1.393598399881558e-13
0.0002566836503331494
1.324104665321695e-13
0.0002566836503222698
4.15448652935482e-14
0.000256683650314224
5.31813429533974e-14
0.0002566836503014773
1.231506136078635e-13
0.0002566836502939045
2.037873142709252e-14
0.0002566836502911271
1.112882649304539e-15
0.0002566836502823518
9.260508687542744e-14
0.0002566836502787235
-6.990731997263817e-15
0.0002566836502787193
-1.140698359142014e-14
0.0002566836502722458
8.134017480852324e-14
0.0002566836502702516
-1.588937656027454e-14
0.0002566836502715505
-2.373924905078171e-14
0.0002566836502663531
7.091710934886235e-14
0.0002566836502655267
-2.437775054242466e-14
0.0002566836502681136
-3.075349238904974e-14
0.0002566836502640633
6.225196668186971e-14
0.0002566836502642619
-3.078944615374272e-14
0.0002566836502676373
-3.772345621699432e-14
0.0002566836502641346
6.027754252362142e-14
0.0002566836502649651
-3.59517708650739e-14
0.0002566836502686506
-3.306625960101551e-14
0.0002566836502652191
6.293041102238571e-14
0.0002566836502657855
-3.105332842922158e-14
0.0002566836502689477
-3.658794708733289e-14
0.0002566836502670266
4.934199583717733e-14
0.0002566836502671441
-3.463927029342059e-14
0.0002566836502730748
-6.098597654383063e-14
0.0002566836502743174
1.673494717720357e-14
0.0002566836502786363
-5.716069688376184e-14
0.0002566836502823254
-6.280737685735084e-14
0.000256683650288676
-2.894903047210243e-14
0.0002566836502921804
-1.83705465576215e-14
0.0002566836502934207
3.169980815675528e-14
0.0002566836502900914
-2.548157187908364e-15
0.0002566836502959692
-2.831479809740352e-14
0.000256683650287219
7.986523072888268e-14
0.000256683650293736
-5.655792475576254e-14
0.0002566836502919541
-2.556236568736813e-14
0.0002566836502971588
3.237804335950203e-14
0.0002566836502919522
-3.651908094916537e-14
0.0002566836503076998
-8.392792572545325e-14
0.0002566836503007395
1.605353035673585e-14
0.0002566836503170931
-1.025207783768534e-13
0.000256683650327947
-1.987089765869229e-13
0.0002566836503377053
-1.037252286144088e-14
0.0002566836503807977
-5.308166470287146e-13
0.0002566836503882672
-1.250065052966311e-13
-1.773803776113346e-12
0.0003230081349871464
-1.577255137129548e-12
0.0003230081350396091
1.254201860329481e-12
0.0003230081349284237
7.644213714396127e-13
0.0003230081348796291
5.776434033064439e-13
0.0003230081348025409
4.891305093154318e-13
0.0003230081347631726
2.805969597247091e-13
0.0003230081347134462
3.908048273499456e-13
0.0003230081346821445
1.784036404547816e-13
0.0003230081346569943
1.320355799957756e-13
0.0003230081346374023
1.58973975139888e-13
0.0003230081346159262
1.539198067489834e-13
0.0003230081346024831
5.497665884100711e-14
0.0003230081345928364
6.281472573768794e-14
0.0003230081345796291
1.363524904763067e-13
0.0003230081345703913
2.966372833579589e-14
0.0003230081345662452
5.242050473369928e-15
0.0003230081345572707
1.015142784045849e-13
0.0003230081345523289
-2.044061712889426e-15
0.0003230081345514131
-1.046653201093277e-14
0.0003230081345452373
8.752867368918953e-14
0.0003230081345423228
-1.295945169862811e-14
0.000323008134542933
-2.432611423453292e-14
0.0003230081345381381
7.57512248657872e-14
0.0003230081345365619
-2.27546276145673e-14
0.0003230081345386094
-3.272712496662045e-14
0.000323008134535128
6.575938486247271e-14
0.0003230081345347064
-3.043343205688548e-14
0.0003230081345376911
-4.079486284983596e-14
0.0003230081345348674
6.306366972332517e-14
0.0003230081345351704
-3.626673635412397e-14
0.0003230081345386334
-3.656248888986939e-14
0.0003230081345361112
6.541268712324703e-14
0.0003230081345362356
-3.114063111983369e-14
0.0003230081345390414
-3.929507468202132e-14
0.0003230081345380257
5.04078341093988e-14
0.0003230081345375658
-3.423697317430451e-14
0.0003230081345430624
-6.6546321303193e-14
0.0003230081345453223
1.443393729167974e-14
0.0003230081345496467
-6.153308196141653e-14
0.0003230081345529556
-6.620258992661241e-14
0.000323008134559996
-3.605706736973018e-14
0.0003230081345638749
-2.219503887541122e-14
0.0003230081345661024
2.954145044117873e-14
0.0003230081345624714
1.104990753669446e-15
0.0003230081345686095
-3.446616247754826e-14
0.0003230081345603863
8.809409001340608e-14
0.000323008134566756
-6.290370494639191e-14
0.0003230081345644853
-2.328307316273731e-14
0.0003230081345709738
2.590013110000144e-14
0.0003230081345650545
-3.057800557805924e-14
0.0003230081345809505
-9.979737062997333e-14
0.0003230081345748994
2.212040356549435e-14
0.0003230081345907586
-1.184111470860925e-13
0.0003230081346024704
-2.104041694125241e-13
0.0003230081346121731
-2.004565575929729e-14
0.0003230081346567128
-5.753408564005363e-13
0.0003230081346657628
-1.340701953347594e-13
-1.863966586192447e-12
0.0004184882885473961
-1.830897301394177e-12
0.0004184882886518528
1.149742024039501e-12
0.0004184882885438821
8.723609609077998e-13
0.0004184882884952178
6.263340660556302e-13
0.0004184882884095677
5.748077730585446e-13
0.0004184882883628936
3.272525151813201e-13
0.0004184882883075705
4.460728324551453e-13
0.0004184882882699894
2.159276601623902e-13
0.0004184882882392425
1.627429463084886e-13
0.0004184882882160411
1.821263423526356e-13
0.0004184882881910662
1.788720158707524e-13
0.000418488288174073
7.197178171241273e-14
0.0004184882881619134
7.496534739885343e-14
0.0004184882881478059
1.504556451374546e-13
0.0004184882881363776
4.114042151057526e-14
0.0004184882881301938
1.152148993778724e-14
0.0004184882881207278
1.110380402795381e-13
0.0004184882881141103
4.567013053335903e-15
0.0004184882881117574
-8.144172392136079e-15
0.0004184882881057574
9.347616976500127e-14
0.0004184882881017287
-8.959115564167819e-15
0.0004184882881012814
-2.391920347140547e-14
0.0004184882880968548
8.018051502637013e-14
0.0004184882880944354
-2.034644834983962e-14
0.0004184882880956575
-3.396610970727789e-14
0.0004184882880928139
6.862896202250231e-14
0.0004184882880917228
-2.93075649088566e-14
0.0004184882880940975
-4.31629697935084e-14
0.0004184882880920664
6.510883253831392e-14
0.0004184882880918421
-3.601511059873964e-14
0.0004184882880948835
-3.960493851254832e-14
0.0004184882880934771
6.678842428149915e-14
0.0004184882880932211
-3.089624541789125e-14
0.0004184882880954976
-4.156918523848341e-14
0.0004184882880956034
5.032264641517956e-14
0.0004184882880945889
-3.31950666763494e-14
0.0004184882880994508
-7.145135912121791e-14
0.0004184882881030423
1.076952819516536e-14
0.0004184882881075714
-6.602537252019849e-14
0.000418488288110444
-6.90271608881441e-14
0.0004184882881182639
-4.391019709647419e-14
0.0004184882881225533
-2.660394712575192e-14
0.000418488288126023
2.604703966975543e-14
0.000418488288122268
4.945466654984168e-15
0.0004184882881286836
-4.080929495782755e-14
0.0004184882881212934
9.549766782788687e-14
0.000418488288127586
-6.921540193965525e-14
0.0004184882881247397
-2.044990968538291e-14
0.0004184882881326501
1.799913067533284e-14
0.0004184882881263318
-2.424046895366778e-14
0.0004184882881420845
-1.15515175353235e-13
0.0004184882881376983
2.653428116403551e-14
0.0004184882881527417
-1.334621380281916e-13
0.0004184882881663758
-2.240787183963357e-13
0.000418488288175848
-2.955541969002982e-14
0.0004184882882236093
-6.231146988835369e-13
0.0004184882882360137
-1.464088486082571e-13
-1.921678919742207e-12
0.0005557219456260287
-2.106964314594855e-12
0.0005557219457941242
9.816084325051109e-13
0.00055572194569734
9.689196290895665e-13
0.0005557219456506993
6.729927199881318e-13
0.0005557219455565678
6.6922640458419e-13
0.0005557219455003239
3.83488235289329e-13
0.0005557219454382722
5.079979797395761e-13
0.0005557219453926073
2.61520083089286e-13
0.0005557219453543616
2.009842144544851e-13
0.0005557219453259662
2.105188544506608e-13
0.0005557219452963562
2.084663067223043e-13
0.0005557219452746151
9.373045667057253e-14
0.0005557219452587207
9.082942515726678e-14
0.0005557219452433454
1.657744632924526e-13
0.0005557219452291325
5.546908261180399e-14
0.0005557219452199097
2.082149851317286e-14
0.0005557219452096926
1.212151042890368e-13
0.0005557219452009559
1.328321599129526e-14
0.0005557219451963325
-3.522726750147577e-15
0.0005557219451904589
9.932935765784536e-14