/*--------------------------------*- C++ -*----------------------------------*\
| =========                 |                                                 |
| \\      /  F ield         | OpenFOAM: The Open Source CFD Toolbox           |
|  \\    /   O peration     | Version:  v1812                                 |
|   \\  /    A nd           | Web:      www.OpenFOAM.com                      |
|    \\/     M anipulation  |                                                 |
\*---------------------------------------------------------------------------*/
FoamFile
{
    version     2.0;
    format      ascii;
    class       volVectorField;
    location    "20000";
    object      U;
}
// * * * * * * * * * * * * * * * * * * * * * * * * * * * * * * * * * * * * * //

dimensions      [0 1 -1 0 0 0 0];


internalField   nonuniform List<vector> 
3770
(
(-0.5513846955033034 -3.216562675257035e-12 -2.147564398839711e-06)
(-0.5513846956589759 6.44382488371622e-12 -2.14753574531106e-06)
(-0.5513846957747568 -2.623257685733442e-12 -2.147533432042362e-06)
(-0.5513846957567287 2.347419371272887e-12 -2.147531277426931e-06)
(-0.5513846958550755 -5.937919281814048e-13 -2.1475294425524e-06)
(-0.5513846958100329 6.590403750163239e-13 -2.147527859586912e-06)
(-0.5513846958766712 2.489965408570668e-13 -2.147526424467858e-06)
(-0.5513846958810026 3.187614429431319e-13 -2.147525114404116e-06)
(-0.5513846958814826 -1.538182074791593e-13 -2.147523892287947e-06)
(-0.5513846958915822 3.270498558033887e-13 -2.147522740501743e-06)
(-0.5513846959085054 2.708284301101843e-13 -2.1475216435846e-06)
(-0.5513846959180696 2.016634974239107e-14 -2.147520590772456e-06)
(-0.5513846959091646 3.623120890136539e-14 -2.147519574212074e-06)
(-0.5513846959254044 2.601320538693079e-13 -2.147518586905747e-06)
(-0.5513846959392062 -5.862032092208668e-14 -2.147517624847621e-06)
(-0.551384695918275 -5.564396125173235e-14 -2.147516683437455e-06)
(-0.5513846959353818 2.265606048799311e-13 -2.14751576034174e-06)
(-0.5513846959442397 -7.98758148112791e-14 -2.147514851880056e-06)
(-0.5513846959239291 -5.276496610538146e-14 -2.147513958103733e-06)
(-0.5513846959396641 2.101476828662337e-13 -2.147513074332217e-06)
(-0.5513846959486571 -7.500322082137015e-14 -2.14751220297699e-06)
(-0.5513846959265069 -8.777896934780292e-14 -2.147511338384899e-06)
(-0.551384695941655 1.954833206214333e-13 -2.147510485263714e-06)
(-0.5513846959488291 -1.121160113030212e-13 -2.147509635069998e-06)
(-0.551384695927599 -7.099825791774266e-14 -2.147508797877109e-06)
(-0.5513846959408653 1.636294738434753e-13 -2.14750795849788e-06)
(-0.5513846959492201 -1.143886636724847e-13 -2.147507135652124e-06)
(-0.5513846959255312 -1.077560447325024e-13 -2.147506303788493e-06)
(-0.5513846959406262 1.942882253623354e-13 -2.147505495752709e-06)
(-0.5513846959465263 -1.452493778188326e-13 -2.147504666665083e-06)
(-0.5513846959250981 -6.23386698353818e-14 -2.147503876257106e-06)
(-0.5513846959394174 1.982797703732532e-13 -2.147503043790418e-06)
(-0.551384695947974 -9.313282597408251e-14 -2.147502276502026e-06)
(-0.5513846959240732 -1.237119702411618e-13 -2.147501430964634e-06)
(-0.5513846959388671 1.669675029320253e-13 -2.147500698434852e-06)
(-0.5513846959421006 -1.748211013718916e-13 -2.14749982228542e-06)
(-0.5513846959222634 -7.512248211200301e-14 -2.147499146387984e-06)
(-0.5513846959276976 4.465838945123543e-14 -2.147498209533128e-06)
(-0.5513846959371445 -1.848121091818756e-13 -2.147497629236124e-06)
(-0.5513846959021175 -3.612234041384251e-13 -2.147496578287371e-06)
(-0.5513846959154769 1.106585102413673e-13 -2.147496164954426e-06)
(-0.5513846958988602 -8.04053232340142e-14 -2.147494903221446e-06)
(-0.5513846959202673 3.316227945071747e-13 -2.147494785108049e-06)
(-0.5513846959123662 -2.448393504377997e-13 -2.147493140268548e-06)
(-0.5513846959183282 2.741938797640843e-13 -2.147493548144676e-06)
(-0.5513846959054527 -4.925412763055671e-14 -2.147491211128969e-06)
(-0.5513846959516732 2.45969783063566e-13 -2.147492558133569e-06)
(-0.5513846958789743 -6.2579659114278e-13 -2.147488976144804e-06)
(-0.5513846959516663 7.83985117657257e-13 -2.147492002756575e-06)
(-0.5513846958860561 -8.594473148166037e-13 -2.147486187926426e-06)
(-0.5513846959484663 7.131052157695648e-13 -2.147492220111886e-06)
(-0.5513846958509655 -9.992946196031998e-13 -2.147482416956225e-06)
(-0.5513846959800298 1.07554066955294e-12 -2.147493837496059e-06)
(-0.5513846957956183 -1.974966380884388e-12 -2.147476954937841e-06)
(-0.5513846959637919 1.685768790532517e-12 -2.147498160521337e-06)
(-0.551384695756054 -2.744671384802448e-12 -2.147468800635142e-06)
(-0.5513846958874187 9.071923434783902e-13 -2.147507866399021e-06)
(-0.5513846956435511 -2.17127419751748e-12 -2.147459340022487e-06)
(-0.211338615799943 -6.479177032279085e-12 -3.782633670111711e-06)
(-0.2113386160180251 1.982844513829475e-11 -3.782614993305629e-06)
(-0.2113386161649923 -2.387451517546713e-12 -3.78260988182736e-06)
(-0.2113386161486894 5.582146988615633e-12 -3.782605728473327e-06)
(-0.2113386162657898 3.888896542080903e-13 -3.782602242209825e-06)
(-0.2113386162205332 1.731934697357952e-12 -3.782599260989229e-06)
(-0.211338616297078 1.761719909540235e-12 -3.782596603766919e-06)
(-0.211338616304328 6.540611608404953e-13 -3.782594194955673e-06)
(-0.2113386163051258 5.250646936498463e-14 -3.782591966956525e-06)
(-0.211338616317929 1.062448956899656e-12 -3.782589878628614e-06)
(-0.2113386163373002 8.358784075310782e-13 -3.782587899483387e-06)
(-0.2113386163455042 -9.909711798006877e-15 -3.782586006919808e-06)
(-0.2113386163358578 2.829449668245942e-13 -3.782584185135038e-06)
(-0.2113386163538231 9.891263425192089e-13 -3.782582420176959e-06)
(-0.2113386163720374 -2.20143863344851e-13 -3.782580703895073e-06)
(-0.2113386163478022 -1.306395223119711e-13 -3.782579027082458e-06)
(-0.2113386163659059 8.275274505704294e-13 -3.782577385481298e-06)
(-0.2113386163784778 -3.336833141984949e-13 -3.782575771480641e-06)
(-0.211338616354888 -1.233660147254592e-13 -3.782574185365921e-06)
(-0.2113386163712001 7.836930216223085e-13 -3.78257261802977e-06)
(-0.2113386163841856 -3.564258501600869e-13 -3.782571074226643e-06)
(-0.2113386163581532 -2.427689476774847e-13 -3.782569542571743e-06)
(-0.2113386163737353 7.119673274791218e-13 -3.78256803306265e-06)
(-0.2113386163845606 -4.398477636889271e-13 -3.782566528044491e-06)
(-0.2113386163597679 -2.379455993129934e-13 -3.782565048220828e-06)
(-0.2113386163727314 6.373635666066059e-13 -3.782563562886454e-06)
(-0.2113386163850157 -4.654892355776202e-13 -3.782562110115728e-06)
(-0.211338616357201 -3.210604831125345e-13 -3.78256063768042e-06)
(-0.2113386163726804 6.806727622100148e-13 -3.78255921318643e-06)
(-0.2113386163817228 -5.270862465647707e-13 -3.782557744440237e-06)
(-0.211338616356764 -2.079229207569701e-13 -3.782556353903241e-06)
(-0.2113386163711174 7.155216767280191e-13 -3.782554876405219e-06)
(-0.2113386163834852 -4.273547276103834e-13 -3.782553531514927e-06)
(-0.2113386163552674 -3.475085582329683e-13 -3.782552025201105e-06)
(-0.2113386163707008 6.022264085646021e-13 -3.782550749998742e-06)
(-0.2113386163773281 -5.929715767073211e-13 -3.782549179240613e-06)
(-0.2113386163544906 -3.975354350779551e-13 -3.782548018419519e-06)
(-0.2113386163570487 2.778508312100313e-13 -3.7825463215714e-06)
(-0.2113386163716185 -6.316822640455651e-13 -3.782545355440979e-06)
(-0.2113386163347178 -9.120316081742855e-13 -3.782543422597927e-06)
(-0.2113386163487377 1.291729176950885e-13 -3.782542797712291e-06)
(-0.2113386163284637 -8.906430948554635e-14 -3.782540430968323e-06)
(-0.2113386163535489 7.885938861806593e-13 -3.782540410411318e-06)
(-0.2113386163430286 -5.2330906999342e-13 -3.782537256090998e-06)
(-0.2113386163520334 3.241296676446333e-13 -3.782538313101771e-06)
(-0.2113386163289596 3.126809754567393e-13 -3.782533737427494e-06)
(-0.2113386163876519 3.176066688246563e-15 -3.782536719214815e-06)
(-0.2113386162983728 -1.096018828954592e-12 -3.782529588324166e-06)
(-0.2113386163883771 1.520774736774038e-12 -3.782536011679363e-06)
(-0.2113386163049387 -1.717222995242707e-12 -3.782524299516297e-06)
(-0.2113386163868213 8.0728716221688e-13 -3.782536875605643e-06)
(-0.2113386162615346 -1.436530883455748e-12 -3.782516972867392e-06)
(-0.2113386164252456 1.014607280064188e-12 -3.782540553976079e-06)
(-0.2113386161959705 -3.979190493005288e-12 -3.782506042898219e-06)
(-0.211338616407444 2.336895678948455e-12 -3.782549419805795e-06)
(-0.2113386161491591 -6.816636839887178e-12 -3.782488937551448e-06)
(-0.2113386163176365 -1.000327932131824e-12 -3.782568515471801e-06)
(-0.2113386160314228 -1.306793130557213e-11 -3.78246176702504e-06)
(-0.05327296299923879 -1.139223601702066e-11 -4.545271974248647e-06)
(-0.05327296318078723 3.143433256748206e-11 -4.545259480013783e-06)
(-0.05327296338905221 -3.49806378420742e-14 -4.545252704794727e-06)
(-0.05327296336163757 8.7340309932531e-12 -4.545247453755065e-06)
(-0.05327296349089705 1.934333577349634e-12 -4.545243101237589e-06)
(-0.05327296345368494 2.828288470166298e-12 -4.545239396558844e-06)
(-0.05327296353121956 3.482132942346464e-12 -4.545236120597077e-06)
(-0.05327296353662908 1.161160531778531e-12 -4.545233162743758e-06)
(-0.05327296354609574 3.721165936720451e-13 -4.545230438187081e-06)
(-0.05327296355827701 1.805419148677719e-12 -4.54522789182041e-06)
(-0.05327296357770735 1.467558733241113e-12 -4.54522548449306e-06)
(-0.05327296358384234 3.911959083434585e-14 -4.545223186840653e-06)
(-0.05327296357940166 5.175111757944851e-13 -4.545220978558333e-06)
(-0.05327296359566907 1.734141921068127e-12 -4.545218841886643e-06)
(-0.05327296361065305 -2.736994183623471e-13 -4.545216766339707e-06)
(-0.05327296359309319 -2.211230634739249e-13 -4.545214740095666e-06)
(-0.05327296360903874 1.418499994819169e-12 -4.545212758010523e-06)
(-0.05327296361815083 -5.068706625357656e-13 -4.545210810233795e-06)
(-0.05327296360097869 -2.330946130413819e-13 -4.545208897170756e-06)
(-0.05327296361494264 1.347039635193865e-12 -4.545207007388064e-06)
(-0.0532729636245038 -5.640679114087355e-13 -4.545205146944631e-06)
(-0.05327296360481621 -4.286045137707145e-13 -4.545203301168959e-06)
(-0.05327296361822593 1.21317391105779e-12 -4.545201483246734e-06)
(-0.05327296362551995 -6.896908017673767e-13 -4.545199670291288e-06)
(-0.05327296360709484 -4.518969130064404e-13 -4.545197889027418e-06)
(-0.05327296361757212 1.097886454547803e-12 -4.545196100059121e-06)
(-0.05327296362640189 -7.423750652589282e-13 -4.545194352466063e-06)
(-0.05327296360482372 -5.722918207849569e-13 -4.545192578726164e-06)
(-0.05327296361790891 1.13696152375303e-12 -4.545190866472072e-06)
(-0.05327296362332565 -8.308714090778505e-13 -4.545189096403375e-06)
(-0.05327296360464588 -4.049410730135454e-13 -4.545187426803253e-06)
(-0.05327296361614565 1.203037718011795e-12 -4.545185644351471e-06)
(-0.05327296362492592 -6.998151403633678e-13 -4.545184032825665e-06)
(-0.05327296360293999 -5.963093646540306e-13 -4.545182211948657e-06)
(-0.05327296361620791 1.004882522122264e-12 -4.545180689619554e-06)
(-0.05327296361909091 -9.085821274889221e-13 -4.545178784506024e-06)
(-0.05327296360329963 -7.789140643666728e-13 -4.545177409091812e-06)
(-0.05327296360248974 5.071223474087299e-13 -4.545175339975755e-06)
(-0.05327296361370001 -1.027663730926202e-12 -4.545174215642842e-06)
(-0.05327296358393436 -1.398011098785291e-12 -4.545171840183303e-06)
(-0.05327296359935167 4.962852213650876e-14 -4.545171156461097e-06)
(-0.05327296357796047 -1.133744919590391e-13 -4.545168218946457e-06)
(-0.05327296360126067 1.121181661957242e-12 -4.545168316201388e-06)
(-0.05327296358536636 -6.47929113028452e-13 -4.545164359085026e-06)
(-0.05327296360146571 2.026128053121459e-13 -4.545165849257926e-06)
(-0.05327296357302081 8.121935048014252e-13 -4.545160052919479e-06)
(-0.05327296363015149 -3.4178178092373e-13 -4.545164031708549e-06)
(-0.05327296354492734 -1.355497271015463e-12 -4.545154929807702e-06)
(-0.05327296363624841 1.943210041620571e-12 -4.545163357858762e-06)
(-0.05327296354402557 -2.155010964821067e-12 -4.545148330646413e-06)
(-0.05327296363768765 4.434519030099556e-13 -4.545164710572117e-06)
(-0.0532729635036667 -1.399389326120226e-12 -4.545139087451756e-06)
(-0.05327296367027886 4.889343248891256e-13 -4.545169681400942e-06)
(-0.05327296344088899 -5.328851705126367e-12 -4.545125133322893e-06)
(-0.0532729636585755 2.420878514067729e-12 -4.545181245381304e-06)
(-0.05327296339295444 -1.006556006926026e-11 -4.545102848817823e-06)
(-0.05327296356424416 -2.126862597610973e-12 -4.545205571442078e-06)
(-0.05327296330274514 -2.54967880457671e-11 -4.545065339028441e-06)
(0.02835449587705511 -1.64354282031936e-11 -4.939953390539022e-06)
(0.02835449578742696 4.011654068017871e-11 -4.939942582596937e-06)
(0.02835449553421622 3.17608541156386e-12 -4.939934939027273e-06)
(0.02835449557086084 1.125902303844029e-11 -4.939929086145946e-06)
(0.02835449543136176 3.73849176490307e-12 -4.939924269319074e-06)
(0.02835449546393649 3.841657684814674e-12 -4.939920178222131e-06)
(0.02835449538634014 5.079813131282289e-12 -4.939916573803217e-06)
(0.02835449537835075 1.667346763859567e-12 -4.939913325688074e-06)
(0.02835449536363252 7.904497677455373e-13 -4.939910339571859e-06)
(0.02835449535263647 2.449430562732632e-12 -4.939907552641821e-06)
(0.02835449533232598 2.011772192739349e-12 -4.939904920950014e-06)
(0.02835449532482051 1.213674440943598e-13 -4.939902411425095e-06)
(0.02835449532684776 7.539632115654581e-13 -4.93990000132729e-06)
(0.02835449531230716 2.350924655177961e-12 -4.939897670806833e-06)
(0.02835449529692768 -2.612310656856782e-13 -4.939895408094625e-06)
(0.02835449531112685 -2.595739049225416e-13 -4.939893199959565e-06)
(0.02835449529736735 1.889960894038511e-12 -4.939891040800948e-06)
(0.02835449528809125 -6.10888176147993e-13 -4.939888919500763e-06)
(0.02835449530235396 -3.043065020749892e-13 -4.939886836594573e-06)
(0.02835449529083001 1.787670684813668e-12 -4.939884779343088e-06)
(0.02835449528118529 -7.024325026115298e-13 -4.939882754549775e-06)
(0.02835449529790513 -5.609908845315069e-13 -4.939880745706984e-06)
(0.02835449528677379 1.599776017204371e-12 -4.939878767845544e-06)
(0.02835449527956891 -8.621665152791823e-13 -4.939876795065922e-06)
(0.02835449529513156 -6.190733080078118e-13 -4.939874857586618e-06)
(0.02835449528711489 1.447216590549725e-12 -4.939872911033977e-06)
(0.02835449527835096 -9.42661404686985e-13 -4.939871010788799e-06)
(0.02835449529716086 -7.659054783465549e-13 -4.939869080583591e-06)
(0.02835449528657634 1.476050559110756e-12 -4.939867219554267e-06)
(0.02835449528125102 -1.052040193365951e-12 -4.939865292818121e-06)
(0.02835449529726259 -5.648003437645434e-13 -4.939863479258141e-06)
(0.02835449528855604 1.567045349061539e-12 -4.939861537910239e-06)
(0.02835449527983811 -9.023155338650535e-13 -4.93985978939781e-06)
(0.02835449529901435 -7.846473200065264e-13 -4.939857803949988e-06)
(0.02835449528803732 1.300081132745112e-12 -4.939856155716592e-06)
(0.02835449528560067 -1.124371259027068e-12 -4.939854074523658e-06)
(0.02835449529799248 -1.104051735171997e-12 -4.939852591751423e-06)
(0.02835449530155985 6.500669090713449e-13 -4.939850324673576e-06)
(0.02835449529054405 -1.322091041988743e-12 -4.939849125244683e-06)
(0.02835449531778671 -1.705185324464413e-12 -4.939846511295706e-06)
(0.02835449530250162 -6.232993139058508e-14 -4.93984580943946e-06)
(0.02835449532521734 -1.548698143988476e-13 -4.939842559727645e-06)
(0.02835449530304166 1.303935819885546e-12 -4.939842740193197e-06)
(0.02835449532066704 -6.822643612808604e-13 -4.939838337511569e-06)
(0.02835449530077483 2.767485483676626e-14 -4.939840091877646e-06)
(0.02835449533325868 1.24259875541352e-12 -4.939833609920815e-06)
(0.02835449527377995 -7.03242645969554e-13 -4.939838176561234e-06)
(0.02835449535862066 -1.429313675315943e-12 -4.939827958086701e-06)
(0.02835449526712414 2.103946049657756e-12 -4.939837552512194e-06)
(0.02835449536291579 -2.334765767216386e-12 -4.939820636918958e-06)
(0.02835449526220197 -5.000928119140267e-14 -4.939839216080022e-06)
(0.02835449540341414 -1.178151473100774e-12 -4.939810323488384e-06)
(0.0283544952316578 -2.189659191340744e-13 -4.939844959069369e-06)
(0.02835449546237498 -6.137318850376538e-12 -4.939794662582683e-06)
(0.02835449524251785 2.131949797957678e-12 -4.939858103913273e-06)
(0.02835449550735164 -1.257839098623447e-11 -4.939769429195226e-06)
(0.02835449533484899 -3.039663725831004e-12 -4.939885456287799e-06)
(0.0283544955734048 -3.629237019671593e-11 -4.939725993687285e-06)
(0.08624278799224799 -2.286295458422198e-11 -5.219931516383842e-06)
(0.08624278800324039 4.802743921491059e-11 -5.219921354448824e-06)
(0.08624278772257457 7.476512761476494e-12 -5.219913146530367e-06)
(0.08624278776634194 1.384007368187788e-11 -5.219906876756151e-06)
(0.08624278762085895 6.016749990729876e-12 -5.219901738680766e-06)
(0.08624278764887383 4.98277166734733e-12 -5.219897378730659e-06)
(0.08624278757218613 6.882774212338116e-12 -5.219893544979191e-06)
(0.0862427875613673 2.313750500510674e-12 -5.219890093626164e-06)
(0.08624278754263971 1.34923014209194e-12 -5.219886923939772e-06)
(0.0862427875326113 3.142315602875895e-12 -5.219883967879014e-06)
(0.08624278751162097 2.637965827093466e-12 -5.219881178211067e-06)
(0.08624278750244084 2.803495446753846e-13 -5.21987851932368e-06)
(0.0862427875026972 1.032662296942196e-12 -5.219875966821316e-06)
(0.08624278748980189 2.987328837502082e-12 -5.219873499411895e-06)
(0.08624278747369936 -1.906061049840978e-13 -5.219871104446082e-06)
(0.0862427874852245 -2.63085852097106e-13 -5.219868767707078e-06)
(0.08624278747345421 2.363322614095032e-12 -5.219866483312214e-06)
(0.08624278746355681 -6.793587363114485e-13 -5.219864239225039e-06)
(0.08624278747557333 -3.597366104388468e-13 -5.219862036113514e-06)
(0.08624278746634134 2.218245146559798e-12 -5.219859860294133e-06)
(0.08624278745620646 -8.118249652146599e-13 -5.21985771913646e-06)
(0.08624278747061369 -6.767911803502492e-13 -5.219855594778996e-06)
(0.08624278746161052 1.972455171286219e-12 -5.219853503654978e-06)
(0.0862427874540362 -1.009803084228219e-12 -5.219851417611849e-06)
(0.0862427874674115 -7.784676596928544e-13 -5.219849369493032e-06)
(0.0862427874616221 1.778910775911949e-12 -5.219847311217839e-06)
(0.08624278745252573 -1.123747417704706e-12 -5.219845302876199e-06)
(0.08624278746919288 -9.525315344095616e-13 -5.219843261668684e-06)
(0.0862427874609232 1.792823733321464e-12 -5.21984129534484e-06)
(0.08624278745522147 -1.254540110052167e-12 -5.219839257366297e-06)
(0.0862427874692375 -7.267251692486732e-13 -5.219837342021861e-06)
(0.08624278746308134 1.907035491843215e-12 -5.219835287694915e-06)
(0.08624278745400833 -1.086797875710646e-12 -5.219833442539364e-06)
(0.08624278747102268 -9.625748916891524e-13 -5.219831339798733e-06)
(0.08624278746218209 1.56447952678011e-12 -5.219829603146328e-06)
(0.08624278745966281 -1.314292374749232e-12 -5.219827396005177e-06)
(0.08624278746947479 -1.434809181035175e-12 -5.219825838610854e-06)
(0.08624278747530585 7.57780589189975e-13 -5.219823429185215e-06)
(0.08624278746414889 -1.626245475319451e-12 -5.219822179196206e-06)
(0.0862427874894848 -1.976101638000006e-12 -5.21981939256283e-06)
(0.08624278747481348 -2.136469105707795e-13 -5.219818682664099e-06)
(0.08624278749850031 -2.245506394288721e-13 -5.219815205149481e-06)
(0.08624278747730922 1.425106249331948e-12 -5.219815453265207e-06)
(0.08624278749578261 -6.639010593302336e-13 -5.219810723074659e-06)
(0.08624278747323494 -1.797253948183781e-13 -5.219812680295872e-06)
(0.08624278750888335 1.714887211578382e-12 -5.219805691392585e-06)
(0.08624278744739579 -1.105010992974987e-12 -5.21981070274343e-06)
(0.08624278753170174 -1.424707945454885e-12 -5.219799655184919e-06)
(0.08624278744107278 2.141863914416862e-12 -5.219810126707434e-06)
(0.08624278753831417 -2.390657240105459e-12 -5.219791805104026e-06)
(0.08624278743311964 -6.815861935968391e-13 -5.219812033420782e-06)
(0.0862427875788303 -8.49152499360516e-13 -5.219780702498061e-06)
(0.0862427874040919 -1.087246718478333e-12 -5.219818364603826e-06)
(0.0862427876337003 -6.800802773826694e-12 -5.219763777490694e-06)
(0.08624278741504482 1.657613510825312e-12 -5.219832703453312e-06)
(0.08624278767491368 -1.50596692087011e-11 -5.219736359283646e-06)
(0.08624278750315453 -3.887938543449978e-12 -5.219862327733509e-06)
(0.08624278772298656 -4.746223448920196e-11 -5.219688584156463e-06)
(0.1319199023343455 -3.040700579133504e-11 -5.440495295028156e-06)
(0.1319199024409524 5.40825492384777e-11 -5.440485620824464e-06)
(0.1319199021454869 1.231521975541407e-11 -5.440477040334312e-06)
(0.1319199021951496 1.633649214523015e-11 -5.440470473924203e-06)
(0.1319199020467764 8.566245191347348e-12 -5.440465102850907e-06)
(0.131919902070141 6.190473055974797e-12 -5.440460544715339e-06)
(0.1319199019948137 8.761214602700351e-12 -5.440456539753675e-06)
(0.131919901981697 3.093549832222775e-12 -5.44045293518366e-06)
(0.1319199019594765 1.989875566669222e-12 -5.440449626005423e-06)
(0.1319199019500441 3.838255806736656e-12 -5.440446540633206e-06)
(0.1319199019286196 3.322978657407562e-12 -5.440443629580871e-06)
(0.1319199019179886 5.14470197957654e-13 -5.440440855466526e-06)
(0.1319199019165685 1.317077150178076e-12 -5.440438192749827e-06)
(0.1319199019051624 3.612249867247973e-12 -5.440435619118614e-06)
(0.1319199018886681 -5.027868112059452e-14 -5.440433121310651e-06)
(0.1319199018976433 -2.500128232550296e-13 -5.440430684381371e-06)
(0.1319199018875729 2.816879322874044e-12 -5.440428302287084e-06)
(0.1319199018772871 -6.903049813350575e-13 -5.4404259622895e-06)
(0.1319199018871065 -4.159142861895404e-13 -5.440423665190539e-06)
(0.131919901879898 2.617895885626233e-12 -5.440421396582077e-06)
(0.1319199018695364 -8.679519607532096e-13 -5.440419164304992e-06)
(0.1319199018817176 -7.890580422019708e-13 -5.440416949418174e-06)
(0.1319199018745812 2.314254452300575e-12 -5.440414769507235e-06)
(0.1319199018668558 -1.107529739057116e-12 -5.440412594613277e-06)
(0.1319199018781195 -9.392552855206005e-13 -5.440410459693917e-06)
(0.1319199018742368 2.077390911404569e-12 -5.440408313704938e-06)
(0.1319199018650552 -1.258746298460669e-12 -5.440406220523608e-06)
(0.1319199018796247 -1.142031054729729e-12 -5.440404092100615e-06)
(0.1319199018733708 2.073900826848198e-12 -5.440402043119845e-06)
(0.1319199018675243 -1.412153218011574e-12 -5.440399917680426e-06)
(0.13191990187959 -9.015304520534739e-13 -5.440397922440008e-06)
(0.1319199018756638 2.207582631688303e-12 -5.4403957792132e-06)
(0.1319199018665016 -1.225192413922906e-12 -5.440393858251908e-06)
(0.1319199018814298 -1.14006025174672e-12 -5.440391663108078e-06)
(0.1319199018744616 1.789546817324037e-12 -5.440389857214002e-06)
(0.1319199018720375 -1.452370492248771e-12 -5.440387550701481e-06)
(0.1319199018794437 -1.763504912588983e-12 -5.440385935101576e-06)
(0.1319199018870779 8.297317852071069e-13 -5.440383413122126e-06)
(0.1319199018760057 -1.899812193462607e-12 -5.440382124214651e-06)
(0.131919901899471 -2.222394268213999e-12 -5.44037920066498e-06)
(0.1319199018856066 -4.06770266911214e-13 -5.440378485935139e-06)
(0.1319199019098696 -3.227316861445682e-13 -5.440374827266746e-06)
(0.1319199018894723 1.502249385469538e-12 -5.440375131268119e-06)
(0.1319199019087281 -5.985783058868518e-13 -5.44037013990676e-06)
(0.1319199018839599 -4.134830301782783e-13 -5.440372261491972e-06)
(0.1319199019221315 2.189778314588739e-12 -5.440364867394116e-06)
(0.1319199018595007 -1.485149808455928e-12 -5.440370237222532e-06)
(0.1319199019426495 -1.397310471940267e-12 -5.44035852586319e-06)
(0.1319199018533729 2.098545534577062e-12 -5.440369702988204e-06)
(0.1319199019513005 -2.343058661684956e-12 -5.440350254365616e-06)
(0.1319199018429201 -1.371798064307338e-12 -5.440371808255041e-06)
(0.131919901991343 -4.813041946131918e-13 -5.440338521422413e-06)
(0.1319199018155555 -1.95844631784932e-12 -5.440378615232916e-06)
(0.1319199020422053 -7.38175700126275e-12 -5.440320585910591e-06)
(0.1319199018263486 1.158298594360364e-12 -5.440393916433947e-06)
(0.1319199020798738 -1.735876387625842e-11 -5.440291427828961e-06)
(0.1319199019094311 -4.501781440670112e-12 -5.440425358184598e-06)
(0.1319199021157326 -5.751615284224282e-11 -5.440240303904502e-06)
(0.1702598009197325 -3.875467327822503e-11 -5.624999769001264e-06)
(0.170259801112887 5.81945116973561e-11 -5.624990630189523e-06)
(0.1702598008125658 1.738873084155879e-11 -5.624981822433434e-06)
(0.1702598008673856 1.873816245622388e-11 -5.624975051926709e-06)
(0.1702598007184052 1.131249456350384e-11 -5.624969513385516e-06)
(0.1702598007372154 7.469312025765291e-12 -5.624964808078362e-06)
(0.1702598006634725 1.068372780890862e-11 -5.624960672852677e-06)
(0.1702598006486896 3.995145930085429e-12 -5.62495694954718e-06)
(0.1702598006233557 2.706677930317108e-12 -5.624953530703733e-06)
(0.1702598006141905 4.539452087108042e-12 -5.624950342539267e-06)
(0.1702598005925107 4.055046875698725e-12 -5.624947334148821e-06)
(0.1702598005807289 8.187755070855997e-13 -5.624944466988461e-06)
(0.1702598005776296 1.608991974187451e-12 -5.624941714775715e-06)
(0.1702598005675032 4.219258297028894e-12 -5.624939054504327e-06)
(0.1702598005510261 1.538938967640833e-13 -5.62493647251014e-06)
(0.1702598005575255 -2.160088407455109e-13 -5.624933953312572e-06)
(0.1702598005488303 3.248235508195989e-12 -5.624931490803072e-06)
(0.1702598005384909 -6.464411929445189e-13 -5.624929071701733e-06)
(0.170259800546099 -4.674880114548809e-13 -5.624926696950611e-06)
(0.1702598005405802 2.983164454014351e-12 -5.624924351571563e-06)
(0.1702598005303478 -8.745459291480623e-13 -5.624922043820179e-06)
(0.1702598005403349 -8.936051592825183e-13 -5.624919753862247e-06)
(0.1702598005347508 2.62319613265262e-12 -5.624917500268166e-06)
(0.1702598005271933 -1.158515279484399e-12 -5.624915251582447e-06)
(0.1702598005363612 -1.095390893947129e-12 -5.624913044526498e-06)
(0.17025980053403 2.340813064539223e-12 -5.624910825602251e-06)
(0.1702598005250965 -1.350078109253421e-12 -5.624908661847245e-06)
(0.1702598005375629 -1.329142428553704e-12 -5.624906460838034e-06)
(0.1702598005329786 2.317680332566251e-12 -5.624904343042936e-06)
(0.1702598005273188 -1.527289984097501e-12 -5.624902144774135e-06)
(0.1702598005374154 -1.083056940163603e-12 -5.624900082972356e-06)
(0.1702598005353643 2.465311712802491e-12 -5.624897865686296e-06)
(0.1702598005264693 -1.320852211716262e-12 -5.624895881539006e-06)
(0.1702598005393339 -1.312822357352812e-12 -5.62489360939839e-06)
(0.1702598005339298 1.974669056854214e-12 -5.624891745747063e-06)
(0.1702598005318889 -1.542989500721567e-12 -5.624889356439531e-06)
(0.1702598005369826 -2.082293099186794e-12 -5.624887692228487e-06)
(0.1702598005459778 8.655688884375893e-13 -5.624885076491669e-06)
(0.1702598005352921 -2.141235531693084e-12 -5.624883754985261e-06)
(0.1702598005568899 -2.445540256073368e-12 -5.624880717435746e-06)
(0.170259800543831 -6.325311412743537e-13 -5.624879998403542e-06)
(0.1702598005683464 -4.436545337457537e-13 -5.624876188989671e-06)
(0.1702598005485585 1.539538099048117e-12 -5.624876539116768e-06)
(0.1702598005687032 -4.987522257791722e-13 -5.624871330540139e-06)
(0.1702598005420026 -6.634516274348593e-13 -5.624873588370376e-06)
(0.170259800582151 2.6491108659231e-12 -5.624865857374413e-06)
(0.1702598005191781 -1.83430792511766e-12 -5.624871524778913e-06)
(0.1702598006006772 -1.356448409926707e-12 -5.624859261548596e-06)
(0.1702598005129592 1.992690751766164e-12 -5.624871024858145e-06)
(0.1702598006112279 -2.219916628719912e-12 -5.624850639178778e-06)
(0.1702598005005213 -2.084310431167543e-12 -5.624873294897614e-06)
(0.1702598006503178 -1.104339401842777e-13 -5.624838381664394e-06)
(0.1702598004749637 -2.794301617465293e-12 -5.624880497308052e-06)
(0.1702598006974461 -7.913309151747465e-12 -5.624819606664089e-06)
(0.1702598004851949 6.763597061040171e-13 -5.624896597600077e-06)
(0.1702598007321558 -1.950048080642072e-11 -5.624789013467975e-06)
(0.1702598005628003 -4.941809618954519e-12 -5.624929530711029e-06)
(0.1702598007605904 -6.61801083113716e-11 -5.624735252024876e-06)
(0.203990131956815 -4.772422796508241e-11 -5.786505555209865e-06)
(0.2039901322266871 6.046720453949441e-11 -5.786497117784401e-06)
(0.2039901319292309 2.255225508530246e-11 -5.78648820417592e-06)
(0.2039901319888933 2.106262161700903e-11 -5.786481307674236e-06)
(0.2039901318412536 1.424275151630987e-11 -5.786475655549391e-06)
(0.2039901318557499 8.843091897651264e-12 -5.786470843796301e-06)
(0.2039901317837406 1.265991104158383e-11 -5.786466610166663e-06)
(0.2039901317678807 5.017747573873365e-12 -5.786462794299308e-06)
(0.20399013173977 3.511805762194601e-12 -5.786459287939746e-06)
(0.2039901317306001 5.262702938409116e-12 -5.78645601629116e-06)
(0.2039901317087848 4.836380524148635e-12 -5.786452927772151e-06)
(0.2039901316961404 1.193578694364779e-12 -5.786449983205691e-06)
(0.2039901316913432 1.920004635232385e-12 -5.786447155917891e-06)
(0.2039901316822811 4.812647653167358e-12 -5.786444422485661e-06)
(0.203990131666193 4.159049642608662e-13 -5.786441769027492e-06)
(0.203990131670292 -1.534499973745129e-13 -5.786439179684995e-06)
(0.2039901316626663 3.66202656217275e-12 -5.786436648370156e-06)
(0.2039901316525848 -5.528069564446533e-13 -5.786434161390031e-06)
(0.2039901316579735 -5.054705552814234e-13 -5.786431719839758e-06)
(0.2039901316538079 3.318016869024322e-12 -5.786429308288813e-06)
(0.2039901316440292 -8.388234491212377e-13 -5.78642693537365e-06)
(0.2039901316518622 -9.839510518714665e-13 -5.786424580504794e-06)
(0.203990131647525 2.902478210300253e-12 -5.786422263118708e-06)
(0.2039901316404291 -1.170087835390945e-12 -5.786419950491932e-06)
(0.2039901316475259 -1.240101098197842e-12 -5.786417680856674e-06)
(0.2039901316464117 2.572018149868294e-12 -5.786415398631925e-06)
(0.2039901316380254 -1.405515195267411e-12 -5.786413173562204e-06)
(0.2039901316483964 -1.508343505116736e-12 -5.786410909488413e-06)