/*--------------------------------*- C++ -*----------------------------------*\
| =========                 |                                                 |
| \\      /  F ield         | OpenFOAM: The Open Source CFD Toolbox           |
|  \\    /   O peration     | Version:  v1812                                 |
|   \\  /    A nd           | Web:      www.OpenFOAM.com                      |
|    \\/     M anipulation  |                                                 |
\*---------------------------------------------------------------------------*/
FoamFile
{
    version     2.0;
    format      ascii;
    class       volVectorField;
    location    "20000";
    object      wallShearStress;
}
// * * * * * * * * * * * * * * * * * * * * * * * * * * * * * * * * * * * * * //

dimensions      [0 2 -2 0 0 0 0];


internalField   uniform (0 0 0);

boundaryField
{
    inlet
    {
        type            cyclic;
    }
    outlet
    {
        type            cyclic;
    }
    bottomWall
    {
        type            calculated;
        value           nonuniform List<vector> 
58
(
(-0.008650308518390564 8.052886837376314e-14 4.140985478396303e-08)
(-0.008650308515281266 -2.038184471086317e-13 4.140930227920473e-08)
(-0.008650308512969017 5.37049049854057e-14 4.140925767382273e-08)
(-0.008650308513330193 -7.163932833455646e-14 4.140921612806694e-08)
(-0.008650308511366165 7.774822926561883e-15 4.140918074725339e-08)
(-0.008650308512265862 -1.997872504860335e-14 4.140915022427767e-08)
(-0.008650308510935348 -1.63756861469408e-14 4.14091225517489e-08)
(-0.008650308510848874 -8.87145425203445e-15 4.140909729076971e-08)
(-0.008650308510839371 2.467732607927121e-15 4.140907372562935e-08)
(-0.00865030851063785 -1.220606589528753e-14 4.140905151657707e-08)
(-0.008650308510299872 -1.068547864234789e-14 4.140903036550101e-08)
(-0.008650308510108961 -6.111010633319216e-16 4.140901006489213e-08)
(-0.008650308510286826 -1.962303113655666e-15 4.140899046335863e-08)
(-0.008650308509962564 -1.09099568655629e-14 4.140897142582697e-08)
(-0.008650308509687003 2.50909021695021e-15 4.140895287514518e-08)
(-0.008650308510104971 1.9680514650541e-15 4.140893472271543e-08)
(-0.008650308509763411 -9.473830443611862e-15 4.140891692330549e-08)
(-0.008650308509586532 3.663110536888826e-15 4.140889940609931e-08)
(-0.008650308509992096 1.999615938098644e-15 4.140888217215475e-08)
(-0.008650308509677926 -8.878101456159658e-15 4.1408865131008e-08)
(-0.008650308509498342 3.777424487012229e-15 4.1408848329297e-08)
(-0.008650308509940639 3.240876700745725e-15 4.14088316580959e-08)
(-0.008650308509638181 -8.163014157325131e-15 4.140881520795808e-08)
(-0.008650308509494919 4.857920148001148e-15 4.14087988142944e-08)
(-0.008650308509918834 2.94456968565619e-15 4.140878267140828e-08)
(-0.008650308509653943 -7.245481311211875e-15 4.140876648625233e-08)
(-0.008650308509487113 5.095961457076949e-15 4.140875061991477e-08)
(-0.008650308509960122 3.978113930630177e-15 4.14087345797967e-08)
(-0.008650308509658715 -7.945707623855187e-15 4.140871899900664e-08)
(-0.008650308509540889 5.916611684255192e-15 4.140870301231984e-08)
(-0.008650308509968776 2.601792960506509e-15 4.140868777155232e-08)
(-0.00865030850968285 -8.312681501669534e-15 4.140867171968223e-08)
(-0.008650308509511975 4.550885746866986e-15 4.140865692461449e-08)
(-0.008650308509989215 4.460488882013342e-15 4.140864062083636e-08)
(-0.008650308509693831 -6.826235868865569e-15 4.140862649597223e-08)
(-0.00865030850962924 6.828059415810302e-15 4.140860960183701e-08)
(-0.008650308510025339 3.955557131369875e-15 4.140859656908419e-08)
(-0.008650308509916788 -3.239536237400101e-15 4.140857850440518e-08)
(-0.008650308509728142 8.346477683182027e-15 4.14085673149476e-08)
(-0.008650308510427512 1.23321144573813e-14 4.140854705041428e-08)
(-0.008650308510160822 -2.387239754709757e-15 4.140853908038521e-08)
(-0.008650308510492522 1.393944631557946e-15 4.140851475139966e-08)
(-0.0086503085100651 -1.04240103474663e-14 4.140851247383894e-08)
(-0.008650308510222851 6.567235900860993e-15 4.140848075767262e-08)
(-0.008650308510103889 -6.077799833770098e-15 4.140848862241911e-08)
(-0.008650308510360865 -3.419984484997488e-15 4.140844355956042e-08)
(-0.008650308509438076 -2.602554468117472e-15 4.140846953267754e-08)
(-0.008650308510889559 1.609000169543147e-14 4.140840046414283e-08)
(-0.008650308509438286 -2.115127967895658e-14 4.14084588237644e-08)
(-0.008650308510748057 2.254583755098116e-14 4.140834670102041e-08)
(-0.008650308509502184 -1.340207634510686e-14 4.140846301487236e-08)
(-0.008650308511448643 2.12555902329763e-14 4.140827398837761e-08)
(-0.008650308508871923 -1.987327984760133e-14 4.140849420156135e-08)
(-0.008650308512553559 5.305777600654125e-14 4.140816866860176e-08)
(-0.008650308509196116 -3.778021934965228e-14 4.140857755923047e-08)
(-0.00865030851334307 8.129806241416067e-14 4.140801143549895e-08)
(-0.008650308510720994 -7.512480919216297e-15 4.140876471055392e-08)
(-0.008650308515588191 1.098061619224978e-13 4.140782901404988e-08)
)
;
    }
    topWall
    {
        type            calculated;
        value           nonuniform List<vector> 
58
(
(-0.0003495337288437467 -8.253892297291432e-14 1.309070596067411e-08)
(-0.000349533731371577 -2.021417131392319e-14 1.309059039730192e-08)
(-0.0003495337315289693 3.588320009472239e-16 1.309066663858381e-08)
(-0.0003495337317137631 4.059841148348475e-15 1.309055733470565e-08)
(-0.0003495337313028374 6.327427575948207e-15 1.309064672923882e-08)
(-0.0003495337314921488 5.728283873056311e-15 1.309054102198245e-08)
(-0.0003495337310358401 5.108928739421028e-15 1.309063585004503e-08)
(-0.0003495337312577391 2.999660177057358e-15 1.309052837335561e-08)
(-0.0003495337308506478 3.572903008639117e-15 1.309062622541731e-08)
(-0.0003495337311031354 2.301687491910495e-15 1.309051657815951e-08)
(-0.000349533730702935 2.155424556424795e-15 1.309061741950146e-08)
(-0.0003495337309942264 1.625834179201018e-15 1.309050604718235e-08)
(-0.0003495337305987851 2.328539404011186e-15 1.309060991160766e-08)
(-0.0003495337308940076 5.619016661491446e-16 1.309049715295812e-08)
(-0.0003495337305177185 2.140425388060688e-15 1.30906038533033e-08)
(-0.0003495337308200603 9.060218571359341e-16 1.309048992724947e-08)
(-0.0003495337304322525 1.365460329046683e-15 1.309059912358124e-08)
(-0.0003495337307620883 7.254365489849799e-16 1.309048421498694e-08)
(-0.0003495337303620928 1.836434317676952e-15 1.309059548461241e-08)
(-0.0003495337306961723 5.592895149145021e-17 1.30904798012529e-08)
(-0.0003495337302988585 1.970722735609029e-15 1.309059267623929e-08)
(-0.0003495337306454994 -1.257300934365302e-17 1.309047647639729e-08)
(-0.0003495337302463391 1.50569097569543e-15 1.309059045923326e-08)
(-0.0003495337305895179 2.109494293086209e-16 1.309047406261674e-08)
(-0.0003495337301859342 1.731567951983632e-15 1.309058863075189e-08)
(-0.0003495337305422033 -3.875814064699334e-16 1.309047241991315e-08)
(-0.0003495337301423235 2.0525578437734e-15 1.309058702668055e-08)
(-0.0003495337304891698 -6.084220523095665e-16 1.309047144257569e-08)
(-0.0003495337300985803 2.095549302887619e-15 1.309058551768043e-08)
(-0.000349533730449117 -6.61266746554912e-16 1.309047105294177e-08)
(-0.0003495337300541682 2.050127474374952e-15 1.309058400487557e-08)
(-0.0003495337304133341 -1.041289202090962e-15 1.309047119268017e-08)
(-0.0003495337300190196 2.708165284539353e-15 1.309058241634878e-08)
(-0.0003495337303639617 -1.907343524852104e-15 1.309047181446286e-08)
(-0.0003495337299907503 3.222983118869899e-15 1.309058070484488e-08)
(-0.0003495337303234101 -1.943174295340112e-15 1.309047287377372e-08)
(-0.0003495337299517817 3.264107098504318e-15 1.309057884840734e-08)
(-0.0003495337302880304 -2.639122898512916e-15 1.309047431931898e-08)
(-0.0003495337299256116 4.559893658266092e-15 1.309057685347264e-08)
(-0.0003495337302372777 -4.240668698906585e-15 1.309047608330064e-08)
(-0.0003495337299083887 5.750902604735361e-15 1.30905747603549e-08)
(-0.0003495337301939395 -5.077733417550525e-15 1.309047807059764e-08)
(-0.0003495337298843852 6.613892241806771e-15 1.309057265128459e-08)
(-0.000349533730153392 -6.844883398789321e-15 1.30904801473237e-08)
(-0.0003495337298774977 9.156389542000104e-15 1.309057065853713e-08)
(-0.0003495337300936318 -9.759581427436144e-15 1.309048213155211e-08)
(-0.0003495337298855331 1.184126650354625e-14 1.309056896993978e-08)
(-0.0003495337300321002 -1.20185846691218e-14 1.309048378586072e-08)
(-0.0003495337298932018 1.420808004480027e-14 1.309056782596733e-08)
(-0.0003495337299595294 -1.522330808871125e-14 1.309048485124574e-08)
(-0.0003495337299295159 1.772701287719407e-14 1.309056751249049e-08)
(-0.00034953372985699 -1.860655784482902e-14 1.309048460937013e-08)
(-0.0003495337300143947 1.843112830490285e-14 1.309056766481347e-08)
(-0.0003495337297706979 -1.797433626762929e-14 1.309048541062166e-08)
(-0.0003495337301320341 1.018437760724664e-14 1.309057172019541e-08)
(-0.0003495337298395414 -7.879116741476397e-15 1.309042882888813e-08)
(-0.0003495337307506038 -6.173487597540427e-14 1.30904254442682e-08)
(-0.0003495337308915468 1.078878883416941e-13 1.309053104059142e-08)
)
;
    }
    left
    {
        type            cyclic;
    }
    right
    {
        type            cyclic;
    }
}


// ************************************************************************* //
