/*--------------------------------*- C++ -*----------------------------------*\
| =========                 |                                                 |
| \\      /  F ield         | OpenFOAM: The Open Source CFD Toolbox           |
|  \\    /   O peration     | Version:  v1812                                 |
|   \\  /    A nd           | Web:      www.OpenFOAM.com                      |
|    \\/     M anipulation  |                                                 |
\*---------------------------------------------------------------------------*/
FoamFile
{
    version     2.0;
    format      ascii;
    class       volScalarField;
    location    "20000";
    object      nut;
}
// * * * * * * * * * * * * * * * * * * * * * * * * * * * * * * * * * * * * * //

dimensions      [0 2 -1 0 0 0 0];


internalField   nonuniform List<scalar> 
3770
(
0.0001427494149436941
0.0001427494149436939
0.0001427494149436939
0.000142749414943694
0.000142749414943694
0.0001427494149436939
0.0001427494149436939
0.0001427494149436942
0.0001427494149436941
0.0001427494149436943
0.0001427494149436939
0.0001427494149436943
0.000142749414943694
0.0001427494149436943
0.0001427494149436941
0.0001427494149436939
0.0001427494149436945
0.0001427494149436937
0.0001427494149436946
0.0001427494149436939
0.0001427494149436936
0.0001427494149436944
0.0001427494149436938
0.0001427494149436939
0.0001427494149436942
0.000142749414943694
0.000142749414943694
0.0001427494149436941
0.0001427494149436941
0.0001427494149436943
0.0001427494149436936
0.0001427494149436944
0.000142749414943694
0.0001427494149436944
0.0001427494149436939
0.0001427494149436938
0.0001427494149436941
0.0001427494149436947
0.000142749414943694
0.0001427494149436939
0.0001427494149436935
0.000142749414943694
0.000142749414943694
0.0001427494149436941
0.0001427494149436942
0.0001427494149436941
0.0001427494149436941
0.0001427494149436947
0.0001427494149436935
0.0001427494149436938
0.0001427494149436941
0.0001427494149436936
0.0001427494149436942
0.0001427494149436951
0.0001427494149436943
0.0001427494149436936
0.0001427494149436934
0.0001427494149436954
2.128102993061999e-05
2.128102993062587e-05
2.128102993062227e-05
2.128102993062349e-05
2.128102993062152e-05
2.12810299306218e-05
2.128102993061997e-05
2.128102993062087e-05
2.128102993062137e-05
2.128102993062024e-05
2.128102993062186e-05
2.128102993062451e-05
2.128102993062361e-05
2.12810299306233e-05
2.128102993062318e-05
2.128102993062319e-05
2.128102993062278e-05
2.128102993062013e-05
2.128102993062184e-05
2.128102993062303e-05
2.128102993062319e-05
2.128102993062098e-05
2.128102993062252e-05
2.128102993062454e-05
2.12810299306206e-05
2.128102993062273e-05
2.128102993062426e-05
2.128102993062096e-05
2.128102993062265e-05
2.128102993062433e-05
2.12810299306203e-05
2.128102993062278e-05
2.128102993062453e-05
2.128102993062095e-05
2.128102993062217e-05
2.12810299306228e-05
2.12810299306211e-05
2.128102993062059e-05
2.128102993062255e-05
2.12810299306231e-05
2.128102993062106e-05
2.128102993062008e-05
2.128102993062148e-05
2.128102993062112e-05
2.128102993062077e-05
2.128102993062319e-05
2.128102993062342e-05
2.12810299306199e-05
2.128102993062142e-05
2.128102993062226e-05
2.128102993062043e-05
2.128102993061985e-05
2.128102993062142e-05
2.128102993062265e-05
2.128102993061911e-05
2.128102993062094e-05
2.128102993062256e-05
2.12810299306193e-05
7.068209417657345e-05
7.068209417662185e-05
7.068209417659481e-05
7.068209417660881e-05
7.068209417658962e-05
7.068209417659496e-05
7.068209417658303e-05
7.068209417659239e-05
7.06820941765898e-05
7.068209417658237e-05
7.06820941765906e-05
7.06820941766141e-05
7.068209417660708e-05
7.068209417660878e-05
7.068209417660683e-05
7.068209417660369e-05
7.068209417659844e-05
7.068209417658169e-05
7.068209417659102e-05
7.068209417660266e-05
7.068209417660365e-05
7.068209417658832e-05
7.068209417659598e-05
7.06820941766116e-05
7.068209417658508e-05
7.068209417659801e-05
7.068209417660948e-05
7.068209417658959e-05
7.068209417659664e-05
7.068209417660992e-05
7.068209417658301e-05
7.068209417659768e-05
7.068209417661102e-05
7.068209417658883e-05
7.068209417659352e-05
7.068209417660419e-05
7.068209417658625e-05
7.068209417658389e-05
7.068209417659789e-05
7.06820941766026e-05
7.068209417659232e-05
7.06820941765844e-05
7.068209417659133e-05
7.068209417658934e-05
7.068209417658757e-05
7.068209417660204e-05
7.068209417660307e-05
7.068209417657975e-05
7.068209417658808e-05
7.06820941765992e-05
7.068209417658247e-05
7.068209417657961e-05
7.068209417658626e-05
7.06820941765942e-05
7.068209417657241e-05
7.068209417658348e-05
7.068209417659403e-05
7.068209417657273e-05
0.0002245079230119141
0.0002245079230120699
0.0002245079230119932
0.0002245079230120171
0.0002245079230119816
0.000224507923011989
0.0002245079230119884
0.0002245079230119872
0.0002245079230119787
0.0002245079230119226
0.0002245079230119765
0.000224507923012035
0.0002245079230120299
0.0002245079230120159
0.0002245079230120096
0.0002245079230119932
0.0002245079230119923
0.0002245079230119261
0.0002245079230119818
0.0002245079230120307
0.0002245079230120309
0.0002245079230119598
0.0002245079230119991
0.0002245079230120404
0.0002245079230119543
0.0002245079230120049
0.0002245079230120445
0.0002245079230119685
0.0002245079230120045
0.0002245079230120368
0.0002245079230119474
0.0002245079230120058
0.0002245079230120497
0.000224507923011967
0.0002245079230120003
0.0002245079230120335
0.0002245079230119448
0.000224507923011954
0.0002245079230120239
0.0002245079230120187
0.000224507923011971
0.0002245079230119516
0.0002245079230119806
0.0002245079230119825
0.0002245079230119819
0.000224507923012016
0.0002245079230120158
0.0002245079230119368
0.0002245079230119805
0.000224507923012019
0.000224507923011933
0.0002245079230119463
0.0002245079230119791
0.0002245079230119792
0.0002245079230119095
0.0002245079230119596
0.0002245079230119981
0.0002245079230119025
0.00042688886080812
0.0004268888608083259
0.0004268888608082295
0.0004268888608082544
0.0004268888608082118
0.0004268888608082233
0.0004268888608082285
0.0004268888608081962
0.0004268888608081968
0.0004268888608080955
0.0004268888608081966
0.0004268888608082809
0.0004268888608082771
0.0004268888608082513
0.0004268888608082509
0.0004268888608082073
0.0004268888608082118
0.000426888860808104
0.0004268888608082091
0.0004268888608082886
0.0004268888608082868
0.0004268888608081711
0.0004268888608082372
0.0004268888608082841
0.0004268888608081604
0.0004268888608082455
0.0004268888608082985
0.000426888860808189
0.0004268888608082497
0.0004268888608082834
0.0004268888608081522
0.0004268888608082474
0.0004268888608083044
0.0004268888608081867
0.0004268888608082401
0.000426888860808278
0.0004268888608081407
0.000426888860808175
0.0004268888608082744
0.000426888860808263
0.0004268888608081964
0.0004268888608081725
0.000426888860808211
0.0004268888608082281
0.0004268888608082144
0.0004268888608082527
0.0004268888608082559
0.0004268888608081327
0.0004268888608082088
0.0004268888608082555
0.000426888860808121
0.0004268888608081524
0.0004268888608081924
0.0004268888608081875
0.0004268888608080881
0.00042688886080818
0.0004268888608082323
0.0004268888608080941
0.0006429002714259832
0.0006429002714261875
0.0006429002714261036
0.0006429002714261057
0.0006429002714260934
0.0006429002714260846
0.0006429002714260818
0.0006429002714260329
0.0006429002714260408
0.0006429002714259035
0.0006429002714260371
0.0006429002714261506
0.0006429002714261703
0.0006429002714261311
0.0006429002714261263
0.0006429002714260516
0.000642900271426056
0.0006429002714259176
0.0006429002714260632
0.0006429002714261507
0.0006429002714261535
0.0006429002714260231
0.0006429002714261001
0.0006429002714261381
0.0006429002714259989
0.000642900271426109
0.0006429002714261646
0.000642900271426054
0.0006429002714261207
0.0006429002714261396
0.0006429002714259933
0.000642900271426111
0.0006429002714261693
0.0006429002714260456
0.0006429002714261018
0.0006429002714261294
0.0006429002714259681
0.0006429002714260299
0.0006429002714261311
0.0006429002714261247
0.0006429002714260614
0.0006429002714260506
0.0006429002714260663
0.000642900271426063
0.00064290027142606
0.0006429002714261034
0.0006429002714261056
0.0006429002714259656
0.0006429002714260607
0.0006429002714261044
0.000642900271425948
0.0006429002714259879
0.00064290027142603
0.000642900271426027
0.0006429002714259118
0.0006429002714260316
0.0006429002714260874
0.0006429002714259453
0.0008573722546843794
0.0008573722546845546
0.0008573722546845084
0.0008573722546844871
0.0008573722546844809
0.000857372254684459
0.0008573722546844657
0.0008573722546844008
0.0008573722546844101
0.0008573722546842453
0.000857372254684397
0.0008573722546845302
0.0008573722546845647
0.0008573722546845059
0.0008573722546845085
0.0008573722546844234
0.0008573722546844256
0.000857372254684263
0.0008573722546844383
0.0008573722546845319
0.0008573722546845375
0.0008573722546844132
0.0008573722546844846
0.0008573722546845083
0.0008573722546843689
0.0008573722546844874
0.0008573722546845427
0.0008573722546844469
0.0008573722546845059
0.0008573722546845119
0.0008573722546843657
0.0008573722546844912
0.0008573722546845484
0.0008573722546844405
0.00085737225468448
0.0008573722546844926
0.0008573722546843264
0.0008573722546844125
0.0008573722546845008
0.0008573722546844956
0.0008573722546844228
0.0008573722546844231
0.0008573722546844358
0.0008573722546843972
0.0008573722546844227
0.0008573722546844671
0.0008573722546844717
0.0008573722546843316
0.0008573722546844338
0.0008573722546844719
0.0008573722546843103
0.0008573722546843524
0.0008573722546843935
0.0008573722546843932
0.000857372254684272
0.0008573722546844067
0.0008573722546844602
0.0008573722546843411
0.001068813708450705
0.001068813708450841
0.001068813708450832
0.001068813708450792
0.001068813708450806
0.001068813708450769
0.001068813708450776
0.001068813708450697
0.00106881370845071
0.001068813708450519
0.001068813708450679
0.001068813708450828
0.001068813708450874
0.001068813708450794
0.001068813708450811
0.001068813708450735
0.001068813708450728
0.00106881370845054
0.001068813708450738
0.001068813708450847
0.00106881370845085
0.001068813708450735
0.001068813708450795
0.001068813708450805
0.001068813708450669
0.001068813708450789
0.001068813708450846
0.00106881370845076
0.0010688137084508
0.001068813708450805
0.001068813708450668
0.001068813708450795
0.001068813708450848
0.001068813708450756
0.001068813708450769
0.001068813708450775
0.00106881370845062
0.00106881370845072
0.001068813708450792
0.001068813708450789
0.001068813708450712
0.001068813708450741
0.001068813708450759
0.001068813708450671
0.001068813708450721
0.001068813708450749
0.001068813708450757
0.001068813708450625
0.001068813708450732
0.001068813708450768
0.001068813708450607
0.001068813708450653
0.001068813708450695
0.001068813708450694
0.001068813708450567
0.001068813708450713
0.001068813708450758
0.001068813708450679
0.001282650408686424
0.001282650408686553
0.001282650408686573
0.001282650408686515
0.001282650408686527
0.001282650408686476
0.00128265040868648
0.001282650408686395
0.001282650408686409
0.001282650408686195
0.001282650408686358
0.001282650408686521
0.001282650408686577
0.001282650408686489
0.001282650408686513
0.001282650408686436
0.001282650408686425
0.001282650408686221
0.001282650408686432
0.001282650408686548
0.001282650408686555
0.001282650408686451
0.001282650408686501
0.001282650408686501
0.001282650408686373
0.001282650408686492
0.001282650408686547
0.001282650408686463
0.001282650408686498
0.001282650408686504
0.001282650408686371
0.001282650408686495
0.00128265040868654
0.001282650408686445
0.001282650408686463
0.001282650408686467
0.001282650408686323
0.001282650408686421
0.001282650408686476
0.001282650408686474
0.001282650408686402
0.00128265040868645
0.001282650408686469
0.001282650408686353
0.001282650408686417
0.001282650408686436
0.001282650408686448
0.001282650408686321
0.001282650408686431
0.001282650408686467
0.001282650408686311
0.001282650408686357
0.001282650408686376
0.001282650408686385
0.001282650408686266
0.001282650408686415
0.001282650408686444
0.001282650408686431
0.001508209107299614
0.001508209107299742
0.001508209107299795
0.001508209107299713
0.001508209107299727
0.001508209107299659
0.001508209107299667
0.00150820910729959
0.001508209107299603
0.001508209107299367
0.001508209107299531
0.001508209107299709
0.001508209107299774
0.001508209107299682
0.001508209107299711
0.001508209107299629
0.001508209107299615
0.0015082091072994
0.001508209107299618
0.001508209107299738
0.00150820910729975
0.001508209107299643
0.001508209107299688
0.001508209107299694
0.00150820910729958
0.001508209107299689
0.001508209107299739
0.001508209107299659
0.001508209107299693
0.001508209107299698
0.001508209107299568
0.001508209107299684
0.001508209107299724
0.001508209107299645
0.001508209107299661
0.001508209107299656
0.001508209107299537
0.00150820910729961
0.001508209107299648
0.001508209107299648
0.001508209107299587
0.001508209107299638
0.00150820910729966
0.001508209107299536
0.001508209107299597
0.001508209107299616
0.001508209107299635
0.001508209107299516
0.001508209107299625
0.001508209107299663
0.001508209107299523
0.001508209107299562
0.001508209107299558
0.001508209107299574
0.001508209107299454
0.001508209107299602
0.001508209107299654
0.001508209107299668
0.001757697943928195
0.001757697943928325
0.001757697943928402
0.001757697943928285
0.001757697943928308
0.001757697943928222
0.001757697943928236
0.001757697943928193
0.001757697943928195
0.001757697943927934
0.001757697943928098
0.001757697943928289
0.001757697943928365
0.001757697943928271
0.0017576979439283
0.001757697943928213
0.001757697943928198
0.001757697943927972
0.001757697943928193
0.001757697943928316
0.001757697943928337
0.001757697943928232
0.00175769794392828
0.001757697943928286
0.001757697943928191
0.00175769794392828
0.001757697943928321
0.001757697943928245
0.001757697943928289
0.001757697943928285
0.001757697943928163
0.001757697943928262
0.001757697943928296
0.001757697943928221
0.001757697943928248
0.001757697943928238
0.001757697943928139
0.001757697943928207
0.00175769794392822
0.001757697943928209
0.001757697943928173
0.001757697943928218
0.001757697943928233
0.001757697943928124
0.001757697943928154
0.001757697943928197
0.001757697943928221
0.001757697943928105
0.001757697943928213
0.001757697943928253
0.001757697943928151
0.001757697943928159
0.001757697943928129
0.001757697943928161
0.001757697943928036
0.001757697943928178
0.001757697943928256
0.001757697943928285
0.002045212841471916
0.002045212841472059
0.002045212841472145
0.00204521284147199
0.002045212841472014
0.002045212841471896
0.00204521284147192
0.002045212841471925
0.002045212841471928
0.002045212841471648
0.002045212841471804
0.002045212841472005
0.002045212841472095
0.002045212841472002
0.002045212841472024
0.002045212841471934
0.002045212841471917
0.002045212841471689
0.002045212841471898
0.002045212841472027
0.00204521284147206
0.002045212841471961
0.002045212841471993
0.002045212841472015
0.002045212841471962
0.002045212841472014
0.002045212841472033
0.002045212841471969
0.002045212841471993
0.002045212841471997
0.002045212841471902
0.00204521284147197
0.002045212841472001
0.002045212841471921
0.002045212841471956
0.002045212841471957
0.002045212841471843
0.002045212841471956
0.002045212841471993
0.002045212841471923
0.002045212841471921
0.002045212841471922
0.002045212841471924
0.002045212841471861
0.002045212841471863
0.002045212841471906
0.002045212841471937
0.002045212841471827
0.002045212841471933
0.002045212841471976
0.002045212841471905
0.002045212841471907
0.002045212841471847
0.00204521284147189
0.002045212841471766
0.002045212841471902
0.002045212841472007
0.002045212841472033
0.002384774327815834
0.002384774327816001
0.002384774327816079
0.00238477432781586
0.002384774327815918
0.002384774327815826
0.002384774327815807
0.002384774327815857
0.002384774327815875
0.002384774327815579
0.002384774327815716
0.002384774327815927
0.002384774327816018
0.002384774327815916
0.002384774327815939
0.002384774327815849
0.002384774327815835
0.002384774327815618
0.002384774327815802
0.002384774327815936
0.002384774327815979
0.002384774327815881
0.002384774327815925
0.002384774327815956
0.002384774327815941
0.002384774327815934
0.002384774327815929
0.002384774327815892
0.002384774327815857
0.002384774327815887
0.002384774327815848
0.002384774327815863
0.0023847743278159
0.002384774327815839
0.00238477432781587
0.002384774327815872
0.002384774327815737
0.002384774327815886
0.002384774327815948
0.002384774327815844
0.002384774327815841
0.0023847743278158
0.002384774327815787
0.002384774327815812
0.002384774327815819
0.002384774327815815
0.002384774327815847
0.002384774327815739
0.002384774327815837
0.002384774327815895
0.00238477432781585
0.002384774327815864
0.002384774327815824
0.002384774327815829
0.002384774327815718
0.002384774327815811
0.002384774327815938
0.002384774327815972
0.002787260180403857
0.002787260180404045
0.002787260180404121
0.002787260180403851
0.002787260180403925
0.002787260180403843
0.002787260180403796
0.002787260180403908
0.002787260180403944
0.00278726018040365
0.002787260180403759
0.002787260180403953
0.002787260180404039
0.002787260180403922
0.002787260180403948
0.002787260180403866
0.00278726018040386
0.002787260180403677
0.002787260180403822
0.002787260180403951
0.002787260180404006
0.002787260180403902
0.00278726018040401
0.002787260180404028
0.002787260180404017
0.00278726018040402
0.002787260180403947
0.002787260180403876
0.00278726018040382
0.002787260180403876
0.002787260180403864
0.002787260180403907
0.002787260180403938
0.002787260180403929
0.002787260180403909
0.002787260180403898
0.00278726018040376
0.002787260180403933
0.002787260180404002
0.002787260180403851
0.002787260180403909
0.0027872601804039
0.002787260180403739
0.00278726018040383
0.002787260180403853
0.002787260180403837
0.002787260180403877
0.002787260180403787
0.002787260180403854
0.002787260180403912
0.002787260180403886
0.002787260180403901
0.002787260180403873
0.002787260180403864
0.002787260180403787
0.00278726018040385
0.002787260180403979
0.002787260180404018
0.003256906595058211
0.003256906595058414
0.003256906595058496
0.003256906595058205
0.003256906595058267
0.003256906595058198
0.003256906595058146
0.003256906595058286
0.003256906595058354
0.003256906595058088
0.003256906595058149
0.003256906595058321
0.003256906595058368
0.0032569065950582
0.003256906595058258
0.003256906595058227
0.003256906595058208
0.003256906595058093
0.003256906595058192
0.003256906595058283
0.003256906595058348
0.003256906595058208
0.003256906595058371
0.003256906595058426
0.003256906595058406
0.003256906595058413
0.003256906595058311
0.00325690659505822
0.003256906595058152
0.003256906595058217
0.003256906595058206
0.003256906595058214
0.003256906595058286
0.003256906595058309
0.00325690659505828
0.003256906595058261
0.003256906595058127
0.003256906595058316
0.003256906595058387
0.003256906595058198
0.003256906595058286
0.003256906595058302
0.003256906595058061
0.003256906595058171
0.00325690659505817
0.003256906595058168
0.003256906595058224
0.003256906595058227
0.003256906595058202
0.00325690659505827
0.003256906595058253
0.00325690659505824
0.003256906595058226
0.003256906595058201
0.003256906595058175
0.003256906595058237
0.003256906595058328
0.003256906595058386
0.003788760712254134
0.003788760712254352
0.003788760712254449
0.003788760712254175
0.003788760712254209
0.003788760712254151
0.003788760712254101
0.003788760712254223
0.003788760712254327
0.003788760712254122
0.00378876071225411
0.00378876071225426
0.00378876071225427
0.00378876071225413
0.003788760712254172
0.003788760712254168
0.00378876071225408
0.003788760712254107
0.003788760712254222
0.003788760712254197
0.003788760712254233
0.003788760712254056
0.003788760712254272
0.003788760712254374
0.003788760712254341
0.003788760712254361
0.003788760712254266
0.003788760712254132
0.003788760712254058
0.003788760712254122
0.003788760712254127
0.003788760712254159
0.003788760712254209
0.003788760712254228
0.003788760712254215
0.003788760712254197
0.003788760712254061
0.003788760712254247
0.003788760712254336
0.003788760712254127
0.003788760712254207
0.003788760712254251
0.003788760712254004
0.003788760712254097
0.003788760712254112
0.003788760712254131
0.003788760712254165
0.003788760712254147
0.003788760712254079
0.003788760712254166
0.003788760712254141
0.003788760712254057
0.003788760712254104
0.003788760712254035
0.003788760712254181
0.00378876071225423
0.003788760712254186
0.003788760712254275
0.004368611492763217
0.004368611492763434
0.004368611492763546
0.004368611492763358
0.004368611492763358
0.004368611492763273
0.004368611492763244
0.004368611492763309
0.004368611492763423
0.004368611492763304
0.004368611492763272
0.004368611492763332
0.004368611492763335
0.004368611492763168
0.004368611492763167
0.004368611492763211
0.004368611492763169
0.004368611492763208
0.004368611492763306
0.004368611492763238
0.004368611492763261
0.004368611492763115
0.004368611492763307
0.004368611492763427
0.004368611492763365
0.004368611492763431
0.004368611492763358
0.004368611492763168
0.004368611492763132
0.004368611492763182
0.004368611492763153
0.004368611492763126
0.004368611492763244
0.004368611492763276
0.004368611492763292
0.004368611492763304
0.004368611492763188
0.004368611492763314
0.004368611492763423
0.004368611492763246
0.00436861149276327
0.004368611492763325
0.004368611492763131
0.004368611492763183
0.004368611492763217
0.004368611492763193
0.004368611492763191
0.004368611492763144
0.004368611492763106
0.004368611492763236
0.00436861149276328
0.004368611492763195
0.004368611492763218
0.004368611492763107
0.004368611492763279
0.004368611492763331
0.004368611492763223
0.004368611492763323
0.00497595025674196
0.004975950256742163
0.004975950256742252
0.004975950256742098
0.004975950256742126
0.004975950256742062
0.004975950256742086
0.004975950256742085
0.004975950256742114
0.004975950256742007
0.004975950256741979
0.004975950256742035
0.004975950256742061
0.004975950256741917
0.004975950256741898
0.004975950256741919
0.004975950256741944
0.004975950256741957
0.004975950256741963
0.00497595025674187
0.004975950256741898
0.004975950256741848
0.004975950256741998
0.004975950256742078
0.004975950256741976
0.004975950256742116
0.004975950256742122
0.004975950256741924
0.004975950256741878
0.004975950256741929
0.004975950256741932
0.004975950256741943
0.004975950256741988
0.004975950256741909
0.004975950256741976
0.004975950256742077
0.004975950256742003
0.004975950256742037
0.004975950256742114
0.004975950256742043
0.004975950256742012
0.00497595025674202
0.00497595025674193
0.004975950256741931
0.004975950256741981
0.004975950256741983
0.004975950256741904
0.004975950256741911
0.004975950256741985
0.004975950256742015
0.004975950256742009
0.004975950256741885
0.004975950256741924
0.004975950256741847
0.004975950256742007
0.004975950256742064
0.004975950256741934
0.004975950256742019
0.005588760052119355
0.005588760052119546
0.005588760052119622
0.005588760052119474
0.0055887600521195
0.005588760052119453
0.005588760052119487
0.005588760052119455
0.005588760052119455
0.005588760052119332
0.005588760052119333
0.005588760052119412
0.005588760052119466
0.005588760052119368
0.005588760052119314
0.00558876005211933
0.005588760052119331
0.0055887600521193
0.005588760052119271
0.005588760052119284
0.005588760052119282
0.005588760052119292
0.005588760052119408
0.0055887600521194
0.005588760052119345
0.005588760052119527
0.005588760052119563
0.005588760052119428
0.005588760052119422
0.005588760052119442
0.005588760052119388
0.005588760052119366
0.00558876005211938
0.0055887600521193
0.005588760052119353
0.005588760052119531
0.005588760052119546
0.005588760052119487
0.005588760052119572
0.005588760052119543
0.005588760052119417
0.005588760052119439
0.005588760052119444
0.005588760052119341
0.005588760052119448
0.005588760052119482
0.005588760052119355
0.005588760052119351
0.005588760052119416
0.005588760052119439
0.005588760052119409
0.005588760052119295
0.005588760052119361
0.005588760052119289
0.005588760052119409
0.005588760052119488
0.005588760052119375
0.005588760052119401
0.006187880056673235
0.006187880056673412
0.006187880056673477
0.006187880056673303
0.006187880056673324
0.006187880056673303
0.006187880056673342
0.006187880056673301
0.006187880056673302
0.006187880056673267
0.006187880056673331
0.00618788005667328
0.006187880056673312
0.006187880056673322
0.006187880056673266
0.006187880056673306
0.006187880056673304
0.006187880056673244
0.006187880056673205
0.006187880056673182
0.006187880056673236
0.006187880056673246
0.006187880056673273
0.006187880056673208
0.006187880056673228
0.006187880056673445
0.006187880056673468
0.006187880056673326
0.006187880056673409
0.006187880056673431
0.006187880056673304
0.00618788005667334
0.006187880056673367
0.006187880056673262
0.006187880056673294
0.006187880056673482
0.006187880056673511
0.006187880056673437
0.006187880056673512
0.006187880056673494
0.006187880056673311
0.006187880056673375
0.006187880056673427
0.006187880056673269
0.006187880056673398
0.006187880056673459
0.006187880056673323
0.006187880056673271
0.006187880056673342
0.006187880056673378
0.006187880056673343
0.006187880056673247
0.006187880056673311
0.006187880056673249
0.006187880056673319
0.006187880056673368
0.006187880056673337
0.006187880056673345
0.006759323673639101
0.006759323673639251
0.006759323673639316
0.00675932367363916
0.006759323673639179
0.006759323673639167
0.006759323673639191
0.006759323673639127
0.006759323673639106
0.006759323673639133
0.006759323673639218
0.006759323673639152
0.006759323673639166
0.00675932367363919
0.006759323673639193
0.006759323673639226
0.006759323673639196
0.00675932367363915
0.006759323673639127
0.006759323673639154
0.006759323673639172
0.006759323673639122
0.006759323673639124
0.006759323673639093
0.006759323673639145
0.006759323673639333
0.006759323673639341
0.00675932367363921
0.006759323673639313
0.006759323673639344
0.006759323673639192
0.006759323673639244
0.006759323673639306
0.006759323673639214
0.006759323673639235
0.006759323673639402
0.00675932367363943
0.006759323673639374
0.006759323673639421
0.006759323673639401
0.006759323673639229
0.006759323673639304
0.006759323673639356
0.006759323673639199
0.006759323673639317
0.006759323673639369
0.006759323673639263
0.006759323673639216
0.006759323673639264
0.006759323673639311
0.006759323673639264
0.006759323673639188
0.006759323673639238
0.006759323673639207
0.006759323673639222
0.006759323673639176
0.006759323673639208
0.006759323673639244
0.00729443423269594
0.007294434232696051
0.00729443423269611
0.007294434232695985
0.007294434232696008
0.007294434232696003
0.007294434232696018
0.007294434232695956
0.007294434232695936
0.007294434232695974
0.007294434232696051
0.007294434232696016
0.007294434232696017
0.007294434232696017
0.007294434232696038
0.0072944342326961
0.007294434232696084
0.007294434232696027
0.007294434232696004
0.007294434232696032
0.007294434232696032
0.007294434232695999
0.007294434232695978
0.007294434232695954
0.007294434232696014
0.007294434232696163
0.007294434232696175
0.007294434232696069
0.007294434232696165
0.007294434232696193
0.007294434232696067
0.007294434232696097
0.007294434232696169
0.007294434232696119
0.007294434232696159
0.007294434232696279
0.007294434232696297
0.007294434232696261
0.007294434232696261
0.007294434232696237
0.007294434232696122
0.007294434232696186
0.007294434232696228
0.007294434232696095
0.007294434232696194
0.007294434232696236
0.007294434232696144
0.007294434232696113
0.007294434232696157
0.007294434232696164
0.007294434232696108
0.007294434232696072
0.007294434232696097
0.007294434232696041
0.007294434232696044
0.007294434232695998
0.007294434232696039
0.007294434232696072
0.007788748372763522
0.007788748372763591
0.007788748372763651
0.007788748372763568
0.007788748372763573
0.007788748372763585
0.007788748372763594
0.00778874837276354
0.007788748372763544
0.007788748372763573
0.007788748372763653
0.007788748372763647
0.0077887483727636
0.007788748372763618
0.007788748372763667
0.007788748372763691
0.007788748372763685
0.007788748372763651
0.007788748372763641
0.007788748372763652
0.007788748372763644
0.00778874837276363
0.007788748372763611
0.007788748372763599
0.007788748372763635
0.007788748372763742
0.007788748372763755
0.007788748372763679
0.007788748372763758
0.007788748372763784
0.007788748372763705
0.00778874837276369
0.007788748372763729
0.007788748372763753
0.007788748372763808
0.007788748372763881
0.007788748372763897
0.007788748372763876
0.007788748372763861
0.00778874837276384
0.007788748372763766
0.007788748372763814
0.007788748372763839
0.007788748372763739
0.007788748372763812
0.007788748372763844
0.007788748372763776
0.007788748372763765
0.007788748372763778
0.007788748372763757
0.007788748372763716
0.007788748372763691
0.007788748372763695
0.007788748372763638
0.007788748372763629
0.007788748372763588
0.007788748372763607
0.007788748372763628
0.008240518603359686
0.008240518603359719
0.008240518603359772
0.008240518603359712
0.008240518603359703
0.008240518603359724
0.008240518603359748
0.008240518603359731
0.008240518603359726
0.00824051860335975
0.008240518603359831
0.00824051860335983
0.008240518603359791
0.008240518603359833
0.008240518603359883
0.008240518603359871
0.008240518603359871
0.00824051860335987
0.008240518603359857
0.008240518603359847
0.008240518603359837
0.008240518603359835
0.008240518603359826
0.008240518603359821
0.008240518603359842
0.008240518603359913
0.00824051860335993
0.00824051860335989
0.008240518603359953
0.008240518603359972
0.008240518603359922
0.008240518603359904
0.008240518603359949
0.008240518603359991
0.00824051860336002
0.008240518603360074
0.00824051860336009
0.008240518603360078
0.008240518603360066
0.008240518603360045
0.00824051860336
0.008240518603360024