/*--------------------------------*- C++ -*----------------------------------*\
| =========                 |                                                 |
| \\      /  F ield         | OpenFOAM: The Open Source CFD Toolbox           |
|  \\    /   O peration     | Version:  v1812                                 |
|   \\  /    A nd           | Web:      www.OpenFOAM.com                      |
|    \\/     M anipulation  |                                                 |
\*---------------------------------------------------------------------------*/
FoamFile
{
    version     2.0;
    format      ascii;
    class       volScalarField;
    location    "20000";
    object      nuTilda;
}
// * * * * * * * * * * * * * * * * * * * * * * * * * * * * * * * * * * * * * //

dimensions      [0 2 -1 0 0 0 0];


internalField   nonuniform List<scalar> 
3770
(
0.0004778600585592507
0.0004778600585592506
0.0004778600585592509
0.0004778600585592506
0.0004778600585592504
0.0004778600585592509
0.0004778600585592512
0.0004778600585592511
0.0004778600585592509
0.0004778600585592511
0.0004778600585592507
0.0004778600585592507
0.0004778600585592504
0.000477860058559251
0.0004778600585592508
0.0004778600585592501
0.0004778600585592511
0.0004778600585592504
0.0004778600585592513
0.000477860058559251
0.0004778600585592506
0.0004778600585592512
0.0004778600585592506
0.0004778600585592507
0.000477860058559251
0.0004778600585592506
0.0004778600585592507
0.0004778600585592509
0.0004778600585592509
0.000477860058559251
0.0004778600585592503
0.0004778600585592512
0.0004778600585592507
0.0004778600585592511
0.0004778600585592507
0.0004778600585592507
0.0004778600585592511
0.0004778600585592515
0.0004778600585592507
0.0004778600585592506
0.0004778600585592503
0.0004778600585592512
0.0004778600585592508
0.0004778600585592511
0.0004778600585592513
0.0004778600585592508
0.0004778600585592507
0.0004778600585592515
0.0004778600585592503
0.0004778600585592508
0.0004778600585592509
0.0004778600585592504
0.000477860058559251
0.000477860058559252
0.000477860058559251
0.0004778600585592503
0.0004778600585592501
0.0004778600585592521
0.0002772041528597199
0.0002772041528597426
0.0002772041528597319
0.0002772041528597327
0.0002772041528597202
0.0002772041528597311
0.0002772041528597276
0.0002772041528597285
0.0002772041528597292
0.0002772041528597232
0.0002772041528597287
0.0002772041528597353
0.0002772041528597304
0.0002772041528597358
0.0002772041528597357
0.000277204152859729
0.0002772041528597285
0.0002772041528597234
0.0002772041528597272
0.0002772041528597359
0.0002772041528597361
0.0002772041528597256
0.0002772041528597309
0.0002772041528597377
0.0002772041528597241
0.0002772041528597318
0.0002772041528597372
0.0002772041528597257
0.0002772041528597316
0.0002772041528597372
0.0002772041528597232
0.0002772041528597319
0.0002772041528597378
0.000277204152859726
0.0002772041528597302
0.0002772041528597333
0.0002772041528597271
0.0002772041528597244
0.0002772041528597304
0.0002772041528597279
0.0002772041528597263
0.0002772041528597292
0.000277204152859726
0.0002772041528597287
0.0002772041528597309
0.0002772041528597343
0.0002772041528597342
0.0002772041528597217
0.0002772041528597274
0.0002772041528597317
0.000277204152859725
0.0002772041528597214
0.0002772041528597263
0.000277204152859731
0.000277204152859719
0.0002772041528597256
0.0002772041528597306
0.000277204152859717
0.0003858558868202109
0.0003858558868202999
0.0003858558868202568
0.0003858558868202779
0.0003858558868202373
0.0003858558868202689
0.0003858558868202667
0.0003858558868202593
0.0003858558868202467
0.0003858558868202382
0.0003858558868202504
0.0003858558868202835
0.0003858558868202639
0.0003858558868202745
0.0003858558868202743
0.0003858558868202543
0.0003858558868202511
0.0003858558868202366
0.0003858558868202477
0.0003858558868202798
0.00038585588682028
0.0003858558868202465
0.0003858558868202593
0.0003858558868202829
0.0003858558868202411
0.0003858558868202626
0.0003858558868202815
0.0003858558868202501
0.0003858558868202609
0.0003858558868202813
0.0003858558868202383
0.000385855886820262
0.0003858558868202821
0.0003858558868202479
0.0003858558868202556
0.0003858558868202749
0.0003858558868202457
0.0003858558868202415
0.0003858558868202612
0.0003858558868202528
0.0003858558868202458
0.0003858558868202564
0.0003858558868202501
0.0003858558868202579
0.0003858558868202623
0.0003858558868202665
0.0003858558868202676
0.0003858558868202324
0.0003858558868202473
0.000385855886820268
0.0003858558868202403
0.0003858558868202316
0.0003858558868202386
0.0003858558868202535
0.0003858558868202212
0.00038585588682024
0.0003858558868202548
0.0003858558868202092
0.0005571099818911078
0.0005571099818912502
0.0005571099818911893
0.000557109981891207
0.0005571099818911659
0.0005571099818911909
0.0005571099818911919
0.0005571099818911682
0.0005571099818911613
0.0005571099818911178
0.0005571099818911648
0.0005571099818912096
0.0005571099818912086
0.0005571099818912119
0.0005571099818911906
0.0005571099818911557
0.0005571099818911704
0.0005571099818911208
0.0005571099818911717
0.0005571099818912179
0.0005571099818912179
0.0005571099818911504
0.0005571099818911859
0.0005571099818912219
0.0005571099818911449
0.0005571099818911921
0.0005571099818912277
0.0005571099818911606
0.0005571099818911919
0.0005571099818912199
0.0005571099818911395
0.0005571099818911918
0.0005571099818912306
0.000557109981891158
0.0005571099818911862
0.0005571099818912155
0.000557109981891136
0.0005571099818911502
0.0005571099818912097
0.0005571099818911887
0.0005571099818911604
0.0005571099818911616
0.000557109981891169
0.0005571099818911799
0.0005571099818911859
0.0005571099818911909
0.0005571099818911907
0.00055710998189113
0.00055710998189117
0.000557109981891205
0.0005571099818911269
0.0005571099818911364
0.0005571099818911535
0.0005571099818911567
0.0005571099818911058
0.0005571099818911514
0.0005571099818911842
0.0005571099818910963
0.0007199395680817859
0.0007199395680819463
0.0007199395680818827
0.0007199395680818947
0.0007199395680818566
0.0007199395680818715
0.0007199395680818645
0.0007199395680818249
0.0007199395680818372
0.0007199395680817669
0.0007199395680818428
0.0007199395680819021
0.0007199395680819086
0.0007199395680819025
0.0007199395680818828
0.0007199395680818308
0.0007199395680818479
0.0007199395680817738
0.0007199395680818559
0.0007199395680819009
0.0007199395680819029
0.0007199395680818251
0.0007199395680818746
0.0007199395680819099
0.0007199395680818149
0.0007199395680818825
0.0007199395680819234
0.0007199395680818416
0.0007199395680818864
0.0007199395680819105
0.0007199395680818096
0.0007199395680818822
0.0007199395680819262
0.0007199395680818377
0.0007199395680818753
0.0007199395680819038
0.0007199395680817991
0.0007199395680818326
0.0007199395680819061
0.0007199395680818855
0.0007199395680818469
0.0007199395680818363
0.000719939568081858
0.0007199395680818708
0.0007199395680818663
0.0007199395680818866
0.0007199395680818864
0.000719939568081796
0.000719939568081854
0.0007199395680818893
0.000719939568081785
0.0007199395680818082
0.0007199395680818284
0.0007199395680818277
0.0007199395680817619
0.0007199395680818319
0.0007199395680818708
0.0007199395680817651
0.0008825088862809301
0.0008825088862810872
0.0008825088862810328
0.0008825088862810202
0.0008825088862810104
0.0008825088862810141
0.0008825088862810004
0.0008825088862809499
0.0008825088862809671
0.0008825088862808687
0.0008825088862809685
0.000882508886281056
0.0008825088862810738
0.0008825088862810468
0.0008825088862810366
0.0008825088862809695
0.0008825088862809789
0.0008825088862808797
0.0008825088862809942
0.0008825088862810431
0.0008825088862810488
0.0008825088862809608
0.0008825088862810173
0.0008825088862810457
0.0008825088862809398
0.0008825088862810255
0.0008825088862810686
0.0008825088862809881
0.0008825088862810353
0.0008825088862810475
0.0008825088862809365
0.0008825088862810248
0.0008825088862810702
0.0008825088862809779
0.0008825088862810164
0.0008825088862810374
0.0008825088862809152
0.0008825088862809698
0.0008825088862810445
0.0008825088862810323
0.0008825088862809866
0.0008825088862809778
0.0008825088862809945
0.0008825088862809889
0.0008825088862809931
0.0008825088862810219
0.0008825088862810209
0.0008825088862809173
0.0008825088862809884
0.0008825088862810211
0.0008825088862809005
0.0008825088862809336
0.0008825088862809561
0.000882508886280956
0.000882508886280877
0.0008825088862809659
0.0008825088862810075
0.0008825088862809001
0.001048118030727527
0.001048118030727667
0.001048118030727634
0.001048118030727605
0.001048118030727608
0.001048118030727598
0.001048118030727593
0.001048118030727531
0.001048118030727546
0.00104811803072742
0.001048118030727538
0.001048118030727644
0.001048118030727673
0.001048118030727629
0.001048118030727629
0.001048118030727556
0.00104811803072756
0.001048118030727434
0.001048118030727578
0.001048118030727638
0.001048118030727645
0.001048118030727555
0.00104811803072761
0.001048118030727628
0.001048118030727517
0.001048118030727611
0.001048118030727657
0.001048118030727585
0.001048118030727626
0.00104811803072763
0.001048118030727515
0.001048118030727613
0.00104811803072766
0.001048118030727575
0.001048118030727602
0.001048118030727613
0.001048118030727482
0.001048118030727557
0.001048118030727625
0.001048118030727616
0.001048118030727552
0.001048118030727554
0.001048118030727577
0.001048118030727535
0.001048118030727563
0.001048118030727595
0.001048118030727598
0.00104811803072749
0.00104811803072757
0.0010481180307276
0.001048118030727469
0.001048118030727508
0.001048118030727533
0.001048118030727533
0.001048118030727444
0.001048118030727549
0.001048118030727589
0.001048118030727495
0.001219702341362073
0.001219702341362184
0.001219702341362177
0.001219702341362139
0.001219702341362156
0.001219702341362131
0.001219702341362129
0.001219702341362056
0.001219702341362073
0.001219702341361916
0.001219702341362049
0.001219702341362173
0.001219702341362212
0.00121970234136215
0.001219702341362162
0.001219702341362099
0.001219702341362091
0.001219702341361934
0.001219702341362103
0.001219702341362189
0.001219702341362191
0.001219702341362098
0.001219702341362148
0.001219702341362155
0.001219702341362041
0.001219702341362142
0.00121970234136219
0.001219702341362122
0.001219702341362145
0.001219702341362151
0.001219702341362042
0.001219702341362146
0.00121970234136219
0.001219702341362113
0.001219702341362119
0.001219702341362127
0.001219702341362
0.001219702341362086
0.001219702341362145
0.00121970234136214
0.001219702341362071
0.001219702341362101
0.00121970234136212
0.001219702341362039
0.001219702341362087
0.001219702341362103
0.001219702341362112
0.001219702341362007
0.001219702341362096
0.001219702341362125
0.001219702341361988
0.001219702341362032
0.001219702341362063
0.001219702341362061
0.001219702341361961
0.001219702341362079
0.001219702341362115
0.001219702341362049
0.001401903582899141
0.001401903582899252
0.00140190358289927
0.001401903582899219
0.00140190358289923
0.001401903582899187
0.001401903582899187
0.001401903582899108
0.001401903582899126
0.00140190358289894
0.001401903582899082
0.001401903582899224
0.001401903582899274
0.001401903582899201
0.00140190358289922
0.001401903582899154
0.001401903582899142
0.001401903582898963
0.001401903582899151
0.001401903582899249
0.001401903582899254
0.001401903582899165
0.001401903582899209
0.001401903582899208
0.001401903582899096
0.001401903582899199
0.001401903582899248
0.001401903582899178
0.001401903582899199
0.001401903582899206
0.001401903582899095
0.001401903582899201
0.001401903582899241
0.001401903582899156
0.001401903582899175
0.001401903582899178
0.001401903582899053
0.001401903582899138
0.001401903582899187
0.001401903582899183
0.001401903582899119
0.001401903582899161
0.001401903582899179
0.001401903582899075
0.001401903582899135
0.001401903582899144
0.001401903582899159
0.001401903582899053
0.001401903582899147
0.001401903582899179
0.001401903582899041
0.001401903582899086
0.001401903582899095
0.001401903582899105
0.001401903582899007
0.001401903582899133
0.001401903582899157
0.001401903582899146
0.001602152471311594
0.001602152471311707
0.001602152471311756
0.001602152471311682
0.001602152471311694
0.001602152471311634
0.00160215247131164
0.001602152471311567
0.001602152471311582
0.001602152471311369
0.001602152471311518
0.001602152471311678
0.001602152471311737
0.001602152471311657
0.001602152471311682
0.001602152471311609
0.001602152471311594
0.001602152471311399
0.001602152471311599
0.001602152471311705
0.001602152471311716
0.001602152471311618
0.001602152471311661
0.001602152471311666
0.001602152471311563
0.001602152471311661
0.001602152471311706
0.001602152471311636
0.00160215247131166
0.001602152471311666
0.001602152471311553
0.001602152471311655
0.001602152471311691
0.00160215247131162
0.001602152471311638
0.001602152471311632
0.001602152471311524
0.001602152471311588
0.001602152471311625
0.001602152471311624
0.001602152471311567
0.001602152471311613
0.001602152471311633
0.00160215247131152
0.001602152471311578
0.001602152471311591
0.001602152471311611
0.001602152471311506
0.001602152471311604
0.001602152471311638
0.001602152471311511
0.001602152471311548
0.001602152471311538
0.001602152471311556
0.001602152471311452
0.001602152471311579
0.001602152471311629
0.001602152471311642
0.001831042072889449
0.001831042072889568
0.001831042072889641
0.001831042072889533
0.001831042072889553
0.001831042072889473
0.001831042072889487
0.001831042072889448
0.001831042072889448
0.001831042072889206
0.001831042072889358
0.001831042072889536
0.001831042072889607
0.001831042072889522
0.001831042072889547
0.001831042072889468
0.001831042072889451
0.001831042072889241
0.001831042072889447
0.001831042072889561
0.00183104207288958
0.001831042072889484
0.001831042072889527
0.001831042072889534
0.001831042072889446
0.001831042072889528
0.001831042072889566
0.001831042072889498
0.001831042072889535
0.001831042072889531
0.00183104207288942
0.00183104207288951
0.001831042072889542
0.001831042072889473
0.001831042072889499
0.001831042072889489
0.001831042072889398
0.001831042072889458
0.001831042072889472
0.001831042072889462
0.001831042072889427
0.001831042072889469
0.001831042072889483
0.001831042072889379
0.001831042072889409
0.001831042072889449
0.001831042072889473
0.001831042072889365
0.001831042072889465
0.001831042072889503
0.00183104207288941
0.001831042072889413
0.001831042072889382
0.001831042072889416
0.001831042072889304
0.001831042072889429
0.001831042072889504
0.001831042072889532
0.002101650995233316
0.00210165099523345
0.002101650995233532
0.002101650995233385
0.002101650995233407
0.002101650995233293
0.00210165099523332
0.002101650995233327
0.002101650995233327
0.002101650995233061
0.002101650995233208
0.0021016509952334
0.002101650995233486
0.002101650995233398
0.002101650995233418
0.002101650995233334
0.002101650995233316
0.002101650995233099
0.002101650995233299
0.002101650995233421
0.002101650995233452
0.00210165099523336
0.002101650995233386
0.002101650995233409
0.002101650995233361
0.002101650995233408
0.002101650995233427
0.002101650995233367
0.002101650995233388
0.002101650995233391
0.002101650995233303
0.002101650995233366
0.002101650995233397
0.002101650995233321
0.002101650995233355
0.002101650995233355
0.002101650995233247
0.002101650995233354
0.002101650995233389
0.002101650995233324
0.002101650995233321
0.002101650995233322
0.002101650995233322
0.00210165099523326
0.002101650995233263
0.002101650995233306
0.002101650995233336
0.002101650995233231
0.002101650995233331
0.002101650995233372
0.002101650995233308
0.002101650995233305
0.002101650995233246
0.00210165099523329
0.002101650995233175
0.002101650995233298
0.002101650995233401
0.002101650995233427
0.002427481011141883
0.002427481011142044
0.002427481011142119
0.002427481011141905
0.002427481011141964
0.002427481011141876
0.002427481011141857
0.002427481011141906
0.002427481011141924
0.002427481011141637
0.002427481011141768
0.002427481011141974
0.002427481011142062
0.002427481011141964
0.002427481011141985
0.002427481011141899
0.002427481011141884
0.002427481011141674
0.002427481011141853
0.002427481011141982
0.002427481011142024
0.002427481011141931
0.00242748101114197
0.002427481011142001
0.002427481011141989
0.002427481011141978
0.002427481011141974
0.002427481011141939
0.002427481011141902
0.002427481011141933
0.002427481011141898
0.00242748101114191
0.002427481011141948
0.002427481011141888
0.002427481011141919
0.002427481011141921
0.002427481011141791
0.002427481011141934
0.002427481011141994
0.002427481011141894
0.002427481011141891
0.00242748101114185
0.002427481011141837
0.002427481011141863
0.00242748101114187
0.002427481011141867
0.002427481011141897
0.002427481011141792
0.002427481011141886
0.002427481011141943
0.0024274810111419
0.002427481011141913
0.002427481011141874
0.00242748101114188
0.002427481011141773
0.002427481011141857
0.002427481011141984
0.002427481011142017
0.002819127776871306
0.002819127776871489
0.002819127776871562
0.002819127776871296
0.002819127776871372
0.002819127776871292
0.002819127776871246
0.002819127776871356
0.00281912777687139
0.002819127776871103
0.002819127776871209
0.002819127776871399
0.002819127776871484
0.00281912777687137
0.002819127776871395
0.002819127776871316
0.002819127776871308
0.002819127776871129
0.002819127776871271
0.002819127776871397
0.002819127776871452
0.002819127776871351
0.002819127776871455
0.002819127776871474
0.002819127776871463
0.002819127776871465
0.002819127776871395
0.002819127776871323
0.002819127776871266
0.002819127776871325
0.002819127776871314
0.002819127776871355
0.002819127776871386
0.002819127776871376
0.002819127776871359
0.002819127776871347
0.002819127776871211
0.00281912777687138
0.002819127776871448
0.002819127776871301
0.002819127776871357
0.002819127776871348
0.002819127776871189
0.00281912777687128
0.002819127776871303
0.002819127776871288
0.002819127776871326
0.002819127776871237
0.002819127776871303
0.002819127776871361
0.002819127776871335
0.00281912777687135
0.002819127776871322
0.002819127776871313
0.002819127776871238
0.002819127776871296
0.002819127776871425
0.002819127776871464
0.003280537820185899
0.003280537820186099
0.003280537820186179
0.00328053782018589
0.003280537820185953
0.003280537820185886
0.003280537820185835
0.003280537820185973
0.003280537820186039
0.003280537820185777
0.003280537820185836
0.003280537820186006
0.003280537820186053
0.003280537820185887
0.003280537820185946
0.003280537820185916
0.003280537820185896
0.003280537820185783
0.003280537820185879
0.003280537820185969
0.003280537820186034
0.003280537820185896
0.003280537820186057
0.003280537820186111
0.003280537820186092
0.003280537820186098
0.003280537820185999
0.003280537820185906
0.003280537820185837
0.003280537820185904
0.003280537820185895
0.003280537820185901
0.003280537820185973
0.003280537820185996
0.003280537820185968
0.003280537820185949
0.003280537820185816
0.003280537820186002
0.003280537820186073
0.003280537820185887
0.003280537820185973
0.003280537820185988
0.003280537820185751
0.00328053782018586
0.003280537820185858
0.003280537820185855
0.003280537820185911
0.003280537820185915
0.003280537820185891
0.003280537820185958
0.00328053782018594
0.003280537820185927
0.003280537820185914
0.003280537820185889
0.003280537820185864
0.003280537820185923
0.003280537820186014
0.003280537820186071
0.003806359543700765
0.003806359543700981
0.003806359543701076
0.003806359543700804
0.003806359543700839
0.003806359543700782
0.003806359543700732
0.003806359543700853
0.003806359543700956
0.003806359543700752
0.00380635954370074
0.003806359543700889
0.003806359543700899
0.00380635954370076
0.003806359543700803
0.003806359543700799
0.003806359543700711
0.003806359543700738
0.003806359543700852
0.003806359543700828
0.003806359543700863
0.003806359543700688
0.003806359543700902
0.003806359543701003
0.00380635954370097
0.00380635954370099
0.003806359543700897
0.003806359543700762
0.003806359543700687
0.003806359543700753
0.003806359543700759
0.00380635954370079
0.00380635954370084
0.003806359543700859
0.003806359543700846
0.003806359543700828
0.003806359543700693
0.003806359543700877
0.003806359543700965
0.003806359543700759
0.003806359543700838
0.00380635954370088
0.003806359543700636
0.003806359543700728
0.003806359543700742
0.003806359543700762
0.003806359543700796
0.003806359543700778
0.003806359543700711
0.003806359543700797
0.003806359543700772
0.003806359543700687
0.003806359543700735
0.003806359543700667
0.003806359543700811
0.003806359543700859
0.003806359543700814
0.003806359543700904
0.004381912010510025
0.00438191201051024
0.004381912010510351
0.004381912010510166
0.004381912010510165
0.004381912010510081
0.004381912010510051
0.004381912010510116
0.00438191201051023
0.004381912010510111
0.004381912010510078
0.004381912010510138
0.004381912010510141
0.004381912010509974
0.004381912010509973
0.004381912010510018
0.004381912010509977
0.004381912010510016
0.004381912010510114
0.004381912010510046
0.004381912010510068
0.004381912010509923
0.004381912010510114
0.004381912010510233
0.004381912010510172
0.004381912010510238
0.004381912010510164
0.004381912010509975
0.004381912010509938
0.00438191201050999
0.004381912010509961
0.004381912010509934
0.004381912010510052
0.004381912010510083
0.0043819120105101
0.004381912010510111
0.004381912010509996
0.004381912010510121
0.004381912010510229
0.004381912010510053
0.004381912010510077
0.004381912010510132
0.004381912010509939
0.004381912010509991
0.004381912010510024
0.00438191201051
0.004381912010509999
0.004381912010509952
0.004381912010509914
0.004381912010510044
0.004381912010510088
0.004381912010510003
0.004381912010510026
0.004381912010509915
0.004381912010510086
0.004381912010510137
0.004381912010510029
0.004381912010510129
0.004986232186148561
0.004986232186148763
0.004986232186148853
0.004986232186148699
0.004986232186148726
0.004986232186148663
0.004986232186148687
0.004986232186148686
0.004986232186148715
0.004986232186148607
0.004986232186148579
0.004986232186148636
0.004986232186148662
0.004986232186148518
0.004986232186148498
0.00498623218614852
0.004986232186148546
0.004986232186148558
0.004986232186148563
0.004986232186148471
0.0049862321861485
0.004986232186148449
0.004986232186148599
0.004986232186148679
0.004986232186148578
0.004986232186148716
0.004986232186148722
0.004986232186148525
0.004986232186148479
0.00498623218614853
0.004986232186148533
0.004986232186148544
0.004986232186148589
0.00498623218614851
0.004986232186148577
0.004986232186148678
0.004986232186148604
0.004986232186148637
0.004986232186148715
0.004986232186148644
0.004986232186148613
0.004986232186148621
0.004986232186148532
0.004986232186148533
0.004986232186148581
0.004986232186148583
0.004986232186148505
0.004986232186148512
0.004986232186148586
0.004986232186148616
0.00498623218614861
0.004986232186148487
0.004986232186148525
0.004986232186148448
0.004986232186148607
0.004986232186148664
0.004986232186148534
0.004986232186148619
0.005596925555325902
0.005596925555326093
0.005596925555326168
0.005596925555326021
0.005596925555326047
0.005596925555326
0.005596925555326033
0.005596925555326003
0.005596925555326003
0.005596925555325879
0.00559692555532588
0.005596925555325959
0.005596925555326013
0.005596925555325915
0.005596925555325861
0.005596925555325877
0.005596925555325878
0.005596925555325847
0.005596925555325817
0.005596925555325831
0.00559692555532583
0.00559692555532584
0.005596925555325954
0.005596925555325947
0.005596925555325893
0.005596925555326074
0.00559692555532611
0.005596925555325975
0.005596925555325969
0.005596925555325989
0.005596925555325935
0.005596925555325913
0.005596925555325927
0.005596925555325848
0.0055969255553259
0.005596925555326078
0.005596925555326092
0.005596925555326034
0.005596925555326119
0.00559692555532609
0.005596925555325964
0.005596925555325987
0.005596925555325992
0.005596925555325888
0.005596925555325995
0.005596925555326029
0.005596925555325902
0.005596925555325898
0.005596925555325963
0.005596925555325987
0.005596925555325955
0.005596925555325842
0.005596925555325908
0.005596925555325837
0.005596925555325956
0.005596925555326035
0.005596925555325922
0.005596925555325948
0.006194548569339937
0.006194548569340113
0.006194548569340179
0.006194548569340004
0.006194548569340025
0.006194548569340004
0.006194548569340043
0.006194548569340002
0.006194548569340003
0.00619454856933997
0.006194548569340032
0.006194548569339981
0.006194548569340013
0.006194548569340023
0.006194548569339967
0.006194548569340008
0.006194548569340005
0.006194548569339945
0.006194548569339906
0.006194548569339884
0.006194548569339937
0.006194548569339948
0.006194548569339974
0.006194548569339911
0.00619454856933993
0.006194548569340147
0.006194548569340169
0.006194548569340028
0.00619454856934011
0.006194548569340133
0.006194548569340005
0.006194548569340041
0.006194548569340068
0.006194548569339963
0.006194548569339996
0.006194548569340183
0.006194548569340212
0.006194548569340139
0.006194548569340213
0.006194548569340195
0.006194548569340012
0.006194548569340076
0.006194548569340128
0.00619454856933997
0.006194548569340099
0.00619454856934016
0.006194548569340024
0.006194548569339972
0.006194548569340043
0.00619454856934008
0.006194548569340044
0.006194548569339949
0.006194548569340012
0.00619454856933995
0.00619454856934002
0.006194548569340069
0.006194548569340038
0.006194548569340047
0.006764916508566153
0.006764916508566302
0.006764916508566367
0.006764916508566211
0.00676491650856623
0.006764916508566218
0.006764916508566241
0.006764916508566179
0.006764916508566156
0.006764916508566184
0.006764916508566269
0.006764916508566202
0.006764916508566216
0.00676491650856624
0.006764916508566244
0.006764916508566278
0.006764916508566247
0.006764916508566201
0.006764916508566178
0.006764916508566205
0.006764916508566223
0.006764916508566173
0.006764916508566175
0.006764916508566144
0.006764916508566195
0.006764916508566384
0.006764916508566392
0.006764916508566261
0.006764916508566365
0.006764916508566396
0.006764916508566243
0.006764916508566295
0.006764916508566358
0.006764916508566266
0.006764916508566286
0.006764916508566454
0.006764916508566482
0.006764916508566425
0.006764916508566473
0.006764916508566452
0.00676491650856628
0.006764916508566356
0.006764916508566408
0.00676491650856625
0.006764916508566369
0.006764916508566421
0.006764916508566314
0.006764916508566267
0.006764916508566315
0.006764916508566363
0.006764916508566316
0.006764916508566239
0.006764916508566289
0.006764916508566258
0.006764916508566273
0.006764916508566227
0.006764916508566259
0.006764916508566295
0.007299239028511526
0.007299239028511637
0.007299239028511696
0.007299239028511571
0.007299239028511594
0.007299239028511589
0.007299239028511604
0.007299239028511542
0.007299239028511522
0.00729923902851156
0.007299239028511637
0.007299239028511602
0.007299239028511603
0.007299239028511603
0.007299239028511624
0.007299239028511686
0.007299239028511669
0.007299239028511613
0.00729923902851159
0.007299239028511617
0.007299239028511617
0.007299239028511584
0.007299239028511564
0.00729923902851154
0.0072992390285116
0.007299239028511749
0.007299239028511761
0.007299239028511655
0.007299239028511751
0.007299239028511779
0.007299239028511653
0.007299239028511683
0.007299239028511754
0.007299239028511705
0.007299239028511745
0.007299239028511864
0.007299239028511882
0.007299239028511846
0.007299239028511846
0.007299239028511822
0.007299239028511708
0.007299239028511772
0.007299239028511813
0.007299239028511681
0.00729923902851178
0.007299239028511821
0.00729923902851173
0.007299239028511699
0.007299239028511743
0.00729923902851175
0.007299239028511694
0.007299239028511658
0.007299239028511683
0.007299239028511627
0.00729923902851163
0.007299239028511584
0.007299239028511625
0.007299239028511658
0.007792964131245376
0.007792964131245445
0.007792964131245505
0.007792964131245422
0.007792964131245427
0.007792964131245438
0.007792964131245448
0.007792964131245394
0.007792964131245398
0.007792964131245427
0.007792964131245507
0.007792964131245501
0.007792964131245454
0.007792964131245472
0.007792964131245521
0.007792964131245545
0.007792964131245539
0.007792964131245505
0.007792964131245495
0.007792964131245506
0.007792964131245498
0.007792964131245484
0.007792964131245465
0.007792964131245453
0.007792964131245489
0.007792964131245595
0.007792964131245608
0.007792964131245533
0.007792964131245612
0.007792964131245638
0.007792964131245559
0.007792964131245544
0.007792964131245583
0.007792964131245607
0.007792964131245662
0.007792964131245735
0.007792964131245751
0.00779296413124573
0.007792964131245715
0.007792964131245693
0.00779296413124562
0.007792964131245667
0.007792964131245693
0.007792964131245593
0.007792964131245666
0.007792964131245698
0.00779296413124563
0.007792964131245619
0.007792964131245632
0.007792964131245611
0.007792964131245569
0.007792964131245545
0.007792964131245549
0.007792964131245491
0.007792964131245483
0.007792964131245442
0.007792964131245461
0.007792964131245482
0.008244285741256095
0.008244285741256128
0.00824428574125618
0.008244285741256121
0.008244285741256113
0.008244285741256133
0.008244285741256158
0.00824428574125614
0.008244285741256135
0.008244285741256159
0.008244285741256239
0.008244285741256237
0.008244285741256199
0.008244285741256241
0.008244285741256291
0.008244285741256279
0.008244285741256279
0.008244285741256277
0.008244285741256265
0.008244285741256255
0.008244285741256244
0.008244285741256243
0.008244285741256234
0.008244285741256229
0.00824428574125625
0.008244285741256321
0.008244285741256338
0.008244285741256298
0.008244285741256361
0.00824428574125638
0.008244285741256329
0.008244285741256312
0.008244285741256357
0.008244285741256399
0.008244285741256428
0.008244285741256482
0.008244285741256498
0.008244285741256486
0.008244285741256473
0.008244285741256453
0.008244285741256407
0.008244285741256432
0.008244285741256447