/*--------------------------------*- C++ -*----------------------------------*\
| =========                 |                                                 |
| \\      /  F ield         | OpenFOAM: The Open Source CFD Toolbox           |
|  \\    /   O peration     | Version:  v1812                                 |
|   \\  /    A nd           | Web:      www.OpenFOAM.com                      |
|    \\/     M anipulation  |                                                 |
\*---------------------------------------------------------------------------*/
FoamFile
{
    version     2.0;
    format      ascii;
    class       volScalarField;
    location    "20000";
    object      nuTilda_0;
}
// * * * * * * * * * * * * * * * * * * * * * * * * * * * * * * * * * * * * * //

dimensions      [0 2 -1 0 0 0 0];


internalField   nonuniform List<scalar> 
3770
(
0.0004778600585592505
0.0004778600585592503
0.0004778600585592502
0.0004778600585592505
0.0004778600585592506
0.0004778600585592501
0.00047786005855925
0.0004778600585592506
0.0004778600585592505
0.0004778600585592507
0.0004778600585592504
0.0004778600585592509
0.0004778600585592506
0.0004778600585592507
0.0004778600585592506
0.0004778600585592505
0.0004778600585592511
0.0004778600585592501
0.0004778600585592511
0.0004778600585592501
0.0004778600585592499
0.0004778600585592509
0.0004778600585592503
0.0004778600585592504
0.0004778600585592506
0.0004778600585592505
0.0004778600585592504
0.0004778600585592506
0.0004778600585592505
0.0004778600585592507
0.00047786005855925
0.0004778600585592509
0.0004778600585592504
0.0004778600585592509
0.0004778600585592504
0.0004778600585592501
0.0004778600585592505
0.0004778600585592512
0.0004778600585592505
0.0004778600585592503
0.0004778600585592498
0.0004778600585592503
0.0004778600585592504
0.0004778600585592505
0.0004778600585592504
0.0004778600585592505
0.0004778600585592505
0.0004778600585592512
0.0004778600585592499
0.0004778600585592502
0.0004778600585592506
0.0004778600585592499
0.0004778600585592506
0.0004778600585592516
0.0004778600585592507
0.00047786005855925
0.0004778600585592498
0.0004778600585592519
0.00027720415285988
0.0002772041528598994
0.0002772041528598863
0.0002772041528598918
0.000277204152859887
0.0002772041528598844
0.0002772041528598771
0.000277204152859881
0.0002772041528598831
0.0002772041528598799
0.0002772041528598856
0.0002772041528598957
0.0002772041528598932
0.0002772041528598898
0.0002772041528598893
0.0002772041528598918
0.00027720415285989
0.0002772041528598793
0.000277204152859886
0.0002772041528598885
0.0002772041528598892
0.0002772041528598826
0.0002772041528598879
0.0002772041528598949
0.0002772041528598813
0.0002772041528598886
0.0002772041528598938
0.0002772041528598824
0.0002772041528598882
0.0002772041528598941
0.0002772041528598802
0.0002772041528598888
0.0002772041528598949
0.0002772041528598823
0.0002772041528598865
0.0002772041528598883
0.0002772041528598826
0.0002772041528598811
0.0002772041528598882
0.0002772041528598917
0.0002772041528598827
0.000277204152859877
0.0002772041528598848
0.0002772041528598821
0.0002772041528598796
0.0002772041528598898
0.0002772041528598909
0.0002772041528598789
0.000277204152859884
0.0002772041528598864
0.0002772041528598802
0.0002772041528598788
0.0002772041528598844
0.0002772041528598885
0.0002772041528598761
0.0002772041528598824
0.0002772041528598882
0.0002772041528598778
0.0003858558868208207
0.0003858558868208922
0.0003858558868208496
0.0003858558868208721
0.0003858558868208459
0.0003858558868208449
0.0003858558868208193
0.0003858558868208431
0.0003858558868208425
0.0003858558868208294
0.0003858558868208428
0.0003858558868208816
0.000385855886820874
0.0003858558868208734
0.0003858558868208691
0.0003858558868208704
0.0003858558868208599
0.0003858558868208285
0.0003858558868208448
0.0003858558868208576
0.0003858558868208598
0.0003858558868208393
0.0003858558868208511
0.0003858558868208763
0.0003858558868208343
0.0003858558868208543
0.0003858558868208721
0.0003858558868208407
0.0003858558868208519
0.0003858558868208732
0.0003858558868208307
0.0003858558868208538
0.0003858558868208754
0.0003858558868208398
0.0003858558868208472
0.000385855886820863
0.000385855886820835
0.0003858558868208314
0.0003858558868208546
0.0003858558868208685
0.0003858558868208485
0.0003858558868208265
0.0003858558868208445
0.0003858558868208369
0.0003858558868208312
0.0003858558868208616
0.0003858558868208635
0.0003858558868208259
0.0003858558868208384
0.0003858558868208548
0.0003858558868208287
0.0003858558868208259
0.000385855886820838
0.0003858558868208496
0.0003858558868208142
0.0003858558868208312
0.0003858558868208486
0.0003858558868208198
0.0005571099818919014
0.0005571099818920377
0.0005571099818919655
0.0005571099818919886
0.0005571099818919625
0.0005571099818919587
0.0005571099818919574
0.000557109981891969
0.0005571099818919609
0.0005571099818919076
0.0005571099818919559
0.000557109981892012
0.0005571099818920055
0.0005571099818919842
0.0005571099818919875
0.0005571099818919841
0.0005571099818919748
0.0005571099818919107
0.0005571099818919595
0.0005571099818920014
0.0005571099818920017
0.0005571099818919409
0.0005571099818919756
0.0005571099818920127
0.0005571099818919364
0.00055710998189198
0.000557109981892015
0.0005571099818919472
0.0005571099818919797
0.0005571099818920087
0.0005571099818919298
0.0005571099818919815
0.0005571099818920207
0.0005571099818919466
0.0005571099818919771
0.0005571099818920066
0.0005571099818919282
0.000557109981891933
0.0005571099818919966
0.0005571099818920012
0.0005571099818919509
0.0005571099818919233
0.0005571099818919593
0.0005571099818919559
0.0005571099818919516
0.0005571099818919961
0.000557109981891996
0.0005571099818919204
0.0005571099818919587
0.0005571099818919924
0.0005571099818919169
0.00055710998189193
0.0005571099818919658
0.0005571099818919642
0.000557109981891896
0.0005571099818919401
0.0005571099818919751
0.0005571099818918918
0.0007199395680827364
0.0007199395680828894
0.0007199395680828084
0.0007199395680828329
0.0007199395680828051
0.0007199395680828089
0.0007199395680828218
0.0007199395680828097
0.0007199395680828004
0.0007199395680827181
0.0007199395680827956
0.0007199395680828635
0.0007199395680828527
0.0007199395680828222
0.0007199395680828378
0.0007199395680828202
0.0007199395680828123
0.0007199395680827242
0.000719939568082802
0.0007199395680828752
0.0007199395680828711
0.0007199395680827749
0.0007199395680828255
0.0007199395680828614
0.0007199395680827685
0.0007199395680828306
0.0007199395680828704
0.000719939568082786
0.0007199395680828332
0.00071993956808286
0.0007199395680827614
0.0007199395680828334
0.0007199395680828762
0.000719939568082786
0.0007199395680828291
0.0007199395680828579
0.0007199395680827542
0.000719939568082774
0.0007199395680828511
0.0007199395680828522
0.0007199395680827918
0.0007199395680827675
0.000719939568082803
0.0007199395680828162
0.0007199395680828007
0.0007199395680828372
0.0007199395680828417
0.0007199395680827458
0.0007199395680828033
0.0007199395680828388
0.0007199395680827385
0.0007199395680827627
0.0007199395680828016
0.0007199395680827954
0.000719939568082712
0.0007199395680827816
0.0007199395680828221
0.0007199395680827176
0.0008825088862820367
0.000882508886282188
0.0008825088862821134
0.0008825088862821324
0.0008825088862821238
0.0008825088862821041
0.0008825088862821164
0.0008825088862820959
0.0008825088862820882
0.0008825088862819779
0.0008825088862820803
0.0008825088862821643
0.0008825088862821756
0.0008825088862821427
0.0008825088862821472
0.0008825088862821039
0.0008825088862820994
0.000882508886281988
0.0008825088862820928
0.0008825088862821804
0.0008825088862821779
0.0008825088862820665
0.0008825088862821265
0.0008825088862821559
0.0008825088862820514
0.0008825088862821316
0.0008825088862821726
0.0008825088862820847
0.0008825088862821392
0.0008825088862821561
0.0008825088862820457
0.0008825088862821357
0.0008825088862821783
0.000882508886282083
0.0008825088862821305
0.0008825088862821512
0.0008825088862820295
0.0008825088862820666
0.0008825088862821456
0.0008825088862821495
0.0008825088862820992
0.0008825088862820917
0.0008825088862820975
0.0008825088862820992
0.0008825088862820887
0.0008825088862821267
0.0008825088862821315
0.000882508886282023
0.0008825088862820957
0.0008825088862821292
0.0008825088862820138
0.0008825088862820404
0.0008825088862820837
0.0008825088862820787
0.0008825088862819815
0.0008825088862820743
0.0008825088862821171
0.0008825088862820096
0.001048118030728783
0.001048118030728919
0.001048118030728877
0.001048118030728881
0.001048118030728863
0.001048118030728832
0.001048118030728857
0.001048118030728824
0.001048118030728817
0.00104811803072868
0.001048118030728804
0.001048118030728907
0.001048118030728931
0.001048118030728881
0.001048118030728887
0.001048118030728829
0.001048118030728828
0.001048118030728693
0.001048118030728823
0.001048118030728922
0.001048118030728921
0.001048118030728809
0.001048118030728868
0.001048118030728888
0.001048118030728778
0.001048118030728871
0.001048118030728912
0.00104811803072883
0.001048118030728887
0.001048118030728893
0.001048118030728775
0.001048118030728876
0.001048118030728919
0.001048118030728832
0.001048118030728872
0.00104811803072888
0.001048118030728747
0.001048118030728804
0.001048118030728877
0.001048118030728882
0.001048118030728835
0.001048118030728832
0.001048118030728819
0.001048118030728809
0.001048118030728816
0.001048118030728855
0.001048118030728861
0.001048118030728745
0.001048118030728827
0.001048118030728858
0.001048118030728736
0.001048118030728757
0.001048118030728804
0.001048118030728804
0.001048118030728695
0.001048118030728805
0.001048118030728851
0.001048118030728756
0.00121970234136347
0.00121970234136359
0.00121970234136358
0.001219702341363562
0.001219702341363559
0.001219702341363511
0.001219702341363538
0.001219702341363493
0.001219702341363485
0.001219702341363321
0.001219702341363457
0.00121970234136358
0.001219702341363615
0.001219702341363536
0.001219702341363556
0.001219702341363493
0.001219702341363493
0.001219702341363338
0.00121970234136349
0.001219702341363596
0.001219702341363599
0.001219702341363494
0.001219702341363546
0.001219702341363557
0.001219702341363445
0.001219702341363543
0.001219702341363588
0.00121970234136351
0.001219702341363569
0.001219702341363567
0.001219702341363442
0.001219702341363552
0.001219702341363594
0.001219702341363517
0.001219702341363542
0.001219702341363541
0.001219702341363405
0.00121970234136348
0.001219702341363542
0.001219702341363547
0.001219702341363496
0.001219702341363506
0.001219702341363512
0.001219702341363456
0.001219702341363481
0.001219702341363525
0.001219702341363524
0.001219702341363403
0.001219702341363493
0.001219702341363525
0.001219702341363399
0.001219702341363419
0.001219702341363466
0.001219702341363467
0.00121970234136335
0.001219702341363479
0.00121970234136352
0.001219702341363453
0.001401903582900675
0.001401903582900794
0.00140190358290081
0.001401903582900761
0.001401903582900769
0.00140190358290072
0.001401903582900738
0.001401903582900682
0.001401903582900675
0.001401903582900482
0.001401903582900627
0.001401903582900768
0.001401903582900814
0.001401903582900721
0.00140190358290075
0.001401903582900678
0.001401903582900679
0.001401903582900503
0.001401903582900674
0.001401903582900787
0.001401903582900796
0.001401903582900702
0.001401903582900742
0.001401903582900745
0.001401903582900635
0.00140190358290074
0.001401903582900783
0.001401903582900701
0.001401903582900767
0.001401903582900762
0.001401903582900631
0.001401903582900745
0.001401903582900784
0.001401903582900709
0.001401903582900709
0.001401903582900718
0.00140190358290059
0.001401903582900675
0.001401903582900721
0.001401903582900724
0.00140190358290067
0.001401903582900707
0.001401903582900719
0.00140190358290063
0.001401903582900671
0.001401903582900714
0.001401903582900707
0.001401903582900584
0.00140190358290068
0.001401903582900714
0.001401903582900585
0.001401903582900605
0.001401903582900652
0.001401903582900651
0.001401903582900526
0.001401903582900672
0.001401903582900701
0.001401903582900687
0.001602152471313263
0.001602152471313388
0.001602152471313433
0.001602152471313356
0.00160215247131337
0.001602152471313302
0.001602152471313322
0.00160215247131327
0.001602152471313264
0.001602152471313046
0.001602152471313194
0.001602152471313355
0.001602152471313411
0.001602152471313308
0.001602152471313344
0.001602152471313263
0.001602152471313267
0.001602152471313074
0.001602152471313259
0.001602152471313377
0.001602152471313391
0.001602152471313299
0.001602152471313324
0.001602152471313332
0.001602152471313231
0.001602152471313337
0.001602152471313377
0.00160215247131329
0.00160215247131336
0.001602152471313357
0.00160215247131322
0.001602152471313334
0.00160215247131337
0.001602152471313296
0.001602152471313291
0.0016021524713133
0.001602152471313192
0.001602152471313267
0.001602152471313291
0.001602152471313297
0.00160215247131325
0.001602152471313296
0.001602152471313313
0.001602152471313213
0.001602152471313253
0.001602152471313293
0.00160215247131329
0.001602152471313173
0.001602152471313272
0.001602152471313306
0.001602152471313182
0.001602152471313208
0.001602152471313242
0.001602152471313237
0.001602152471313097
0.001602152471313269
0.001602152471313305
0.001602152471313314
0.001831042072891254
0.001831042072891391
0.001831042072891451
0.001831042072891332
0.001831042072891367
0.001831042072891284
0.001831042072891298
0.00183104207289124
0.001831042072891254
0.001831042072891017
0.001831042072891167
0.00183104207289135
0.001831042072891415
0.001831042072891305
0.001831042072891345
0.001831042072891254
0.001831042072891261
0.001831042072891052
0.001831042072891246
0.001831042072891369
0.001831042072891389
0.001831042072891284
0.001831042072891333
0.001831042072891338
0.00183104207289124
0.001831042072891338
0.001831042072891372
0.001831042072891281
0.001831042072891352
0.001831042072891353
0.001831042072891214
0.001831042072891324
0.001831042072891351
0.001831042072891278
0.001831042072891293
0.001831042072891293
0.001831042072891191
0.001831042072891285
0.001831042072891282
0.001831042072891264
0.001831042072891248
0.001831042072891282
0.001831042072891302
0.001831042072891214
0.001831042072891226
0.001831042072891268
0.001831042072891278
0.001831042072891173
0.001831042072891273
0.001831042072891304
0.001831042072891193
0.001831042072891243
0.001831042072891242
0.001831042072891233
0.001831042072891081
0.001831042072891273
0.001831042072891321
0.00183104207289134
0.002101650995235258
0.002101650995235415
0.002101650995235487
0.002101650995235337
0.00210165099523537
0.002101650995235275
0.002101650995235259
0.002101650995235239
0.002101650995235266
0.002101650995235009
0.002101650995235159
0.002101650995235351
0.002101650995235433
0.002101650995235335
0.002101650995235359
0.002101650995235258
0.002101650995235264
0.002101650995235048
0.002101650995235238
0.002101650995235368
0.002101650995235395
0.002101650995235288
0.002101650995235366
0.002101650995235358
0.00210165099523528
0.002101650995235359
0.002101650995235372
0.002101650995235291
0.00210165099523535
0.002101650995235355
0.002101650995235226
0.00210165099523532
0.002101650995235339
0.002101650995235251
0.002101650995235287
0.002101650995235295
0.00210165099523518
0.002101650995235299
0.002101650995235325
0.002101650995235238
0.002101650995235259
0.002101650995235258
0.002101650995235278
0.002101650995235241
0.002101650995235246
0.002101650995235247
0.002101650995235274
0.002101650995235179
0.002101650995235282
0.002101650995235312
0.002101650995235221
0.002101650995235272
0.002101650995235247
0.002101650995235241
0.002101650995235091
0.002101650995235292
0.002101650995235362
0.002101650995235376
0.002427481011143963
0.002427481011144138
0.002427481011144231
0.002427481011144073
0.00242748101114406
0.002427481011143956
0.002427481011143953
0.00242748101114399
0.002427481011144002
0.00242748101114372
0.002427481011143863
0.002427481011144054
0.002427481011144142
0.002427481011144031
0.00242748101114406
0.002427481011143957
0.002427481011143965
0.002427481011143761
0.002427481011143933
0.002427481011144067
0.002427481011144101
0.002427481011143977
0.002427481011144085
0.002427481011144082
0.002427481011144037
0.002427481011144087
0.00242748101114406
0.002427481011144028
0.002427481011144056
0.002427481011144041
0.002427481011143961
0.002427481011144024
0.00242748101114402
0.002427481011143972
0.002427481011143979
0.002427481011143995
0.002427481011143864
0.002427481011144009
0.002427481011144063
0.002427481011143953
0.002427481011143955
0.002427481011143942
0.002427481011143938
0.002427481011143934
0.002427481011143934
0.0024274810111439
0.002427481011143959
0.002427481011143871
0.002427481011143978
0.002427481011144016
0.002427481011143952
0.002427481011143991
0.002427481011143948
0.002427481011143953
0.002427481011143815
0.002427481011144013
0.002427481011144057
0.002427481011144091
0.002819127776873507
0.002819127776873704
0.002819127776873809
0.002819127776873613
0.002819127776873578
0.00281912777687347
0.002819127776873469
0.002819127776873551
0.002819127776873591
0.002819127776873311
0.002819127776873433
0.002819127776873607
0.002819127776873687
0.002819127776873567
0.002819127776873589
0.00281912777687347
0.002819127776873502
0.002819127776873342
0.00281912777687348
0.002819127776873609
0.002819127776873648
0.002819127776873512
0.002819127776873646
0.002819127776873648
0.002819127776873627
0.002819127776873656
0.002819127776873556
0.002819127776873591
0.002819127776873571
0.002819127776873522
0.002819127776873455
0.002819127776873552
0.002819127776873548
0.002819127776873557
0.002819127776873508
0.002819127776873528
0.002819127776873404
0.002819127776873571
0.002819127776873637
0.002819127776873469
0.002819127776873538
0.002819127776873546
0.002819127776873431
0.002819127776873462
0.002819127776873491
0.002819127776873429
0.0028191277768735
0.00281912777687344
0.002819127776873492
0.002819127776873526
0.002819127776873486
0.002819127776873534
0.002819127776873489
0.002819127776873508
0.002819127776873401
0.002819127776873583
0.002819127776873614
0.002819127776873652
0.003280537820188191
0.003280537820188394
0.003280537820188521
0.003280537820188303
0.00328053782018826
0.00328053782018815
0.003280537820188134
0.003280537820188257
0.003280537820188328
0.003280537820188088
0.003280537820188178
0.003280537820188311
0.00328053782018837
0.003280537820188244
0.003280537820188214
0.003280537820188137
0.003280537820188178
0.003280537820188088
0.003280537820188196
0.003280537820188282
0.003280537820188322
0.003280537820188163
0.003280537820188331
0.003280537820188368
0.003280537820188328
0.003280537820188363
0.003280537820188221
0.003280537820188289
0.003280537820188271
0.003280537820188197
0.003280537820188125
0.003280537820188229
0.00328053782018824
0.003280537820188256
0.003280537820188193
0.003280537820188205
0.003280537820188084
0.003280537820188279
0.003280537820188345
0.003280537820188139
0.003280537820188253
0.00328053782018828
0.003280537820188054
0.003280537820188118
0.003280537820188187
0.003280537820188189
0.003280537820188195
0.003280537820188197
0.003280537820188121
0.00328053782018821
0.003280537820188206
0.00328053782018822
0.00328053782018817
0.003280537820188182
0.003280537820188156
0.003280537820188272
0.003280537820188337
0.003280537820188362
0.003806359543703089
0.003806359543703312
0.003806359543703436
0.003806359543703219
0.003806359543703191
0.003806359543703079
0.00380635954370306
0.003806359543703173
0.003806359543703277
0.00380635954370314
0.003806359543703165
0.00380635954370323
0.003806359543703283
0.003806359543703141
0.003806359543703079
0.003806359543703096
0.003806359543703046
0.003806359543703076
0.003806359543703151
0.003806359543703097
0.003806359543703168
0.003806359543703006
0.003806359543703206
0.003806359543703308
0.003806359543703254
0.003806359543703286
0.003806359543703168
0.003806359543703187
0.003806359543703175
0.00380635954370308
0.003806359543703021
0.003806359543703105
0.003806359543703095
0.003806359543703121
0.003806359543703094
0.003806359543703096
0.003806359543703001
0.003806359543703181
0.003806359543703273
0.003806359543703062
0.003806359543703164
0.003806359543703206
0.003806359543702962
0.003806359543703023
0.00380635954370312
0.003806359543703116
0.003806359543703085
0.003806359543703093
0.003806359543703012
0.003806359543703097
0.003806359543703122
0.003806359543703084
0.003806359543703023
0.00380635954370299
0.003806359543703152
0.003806359543703282
0.003806359543703281
0.003806359543703265
0.004381912010512302
0.004381912010512533
0.004381912010512642
0.004381912010512445
0.004381912010512464
0.004381912010512358
0.004381912010512327
0.004381912010512397
0.004381912010512503
0.004381912010512416
0.004381912010512473
0.004381912010512473
0.004381912010512505
0.004381912010512435
0.004381912010512374
0.004381912010512337
0.004381912010512276
0.004381912010512311
0.004381912010512381
0.004381912010512278
0.004381912010512339
0.004381912010512212
0.004381912010512385
0.004381912010512502
0.004381912010512404
0.004381912010512489
0.004381912010512492
0.004381912010512416
0.004381912010512385
0.004381912010512283
0.004381912010512239
0.004381912010512258
0.0043819120105123
0.004381912010512318
0.004381912010512306
0.004381912010512318
0.004381912010512265
0.004381912010512386
0.004381912010512511
0.004381912010512347
0.004381912010512365
0.004381912010512418
0.004381912010512233
0.004381912010512267
0.004381912010512367
0.004381912010512343
0.004381912010512243
0.004381912010512221
0.00438191201051223
0.004381912010512301
0.004381912010512347
0.004381912010512249
0.004381912010512279
0.004381912010512218
0.004381912010512386
0.004381912010512527
0.004381912010512492
0.004381912010512468
0.004986232186150715
0.004986232186150937
0.004986232186151014
0.004986232186150834
0.004986232186150887
0.00498623218615082
0.004986232186150849
0.004986232186150845
0.004986232186150873
0.004986232186150789
0.004986232186150848
0.004986232186150853
0.004986232186150895
0.004986232186150864
0.004986232186150853
0.004986232186150786
0.004986232186150723
0.004986232186150708
0.004986232186150783
0.004986232186150719
0.0049862321861507
0.004986232186150631
0.004986232186150753
0.00498623218615084
0.00498623218615072
0.00498623218615087
0.004986232186150928
0.004986232186150785
0.004986232186150756
0.004986232186150723
0.004986232186150673
0.004986232186150667
0.00498623218615072
0.004986232186150692
0.00498623218615074
0.004986232186150802
0.004986232186150799
0.004986232186150799
0.004986232186150913
0.004986232186150852
0.004986232186150729
0.004986232186150732
0.004986232186150726
0.00498623218615074
0.004986232186150794
0.004986232186150789
0.004986232186150684
0.004986232186150696
0.004986232186150743
0.004986232186150732
0.004986232186150805
0.004986232186150742
0.004986232186150725
0.004986232186150643
0.004986232186150792
0.00498623218615092
0.004986232186150868
0.004986232186150845
0.005596925555327883
0.00559692555532809
0.005596925555328156
0.005596925555327994
0.005596925555328032
0.00559692555532798
0.005596925555328016
0.005596925555327979
0.005596925555327985
0.005596925555327878
0.005596925555327945
0.005596925555327997
0.005596925555328046
0.005596925555328017
0.005596925555328015
0.005596925555327998
0.00559692555532799
0.005596925555327953
0.005596925555327916
0.00559692555532788
0.005596925555327832
0.005596925555327837
0.00559692555532792
0.00559692555532792
0.005596925555327863
0.005596925555328052
0.005596925555328115
0.005596925555327979
0.005596925555328045
0.005596925555328042
0.005596925555327898
0.005596925555327926
0.00559692555532792
0.005596925555327852
0.005596925555327908
0.005596925555328048
0.005596925555328081
0.005596925555327963
0.00559692555532809
0.005596925555328099
0.005596925555327923
0.005596925555327908
0.005596925555327964
0.005596925555327903
0.005596925555328011
0.005596925555328063
0.005596925555327961
0.005596925555327931
0.005596925555327923
0.00559692555532792
0.005596925555328008
0.005596925555327976
0.005596925555327949
0.005596925555327856
0.005596925555327959
0.00559692555532805
0.005596925555327968
0.005596925555327964
0.006194548569341707
0.006194548569341891
0.006194548569341965
0.006194548569341819
0.006194548569341803
0.006194548569341719
0.006194548569341776
0.006194548569341738
0.006194548569341753
0.006194548569341702
0.006194548569341814
0.006194548569341792
0.006194548569341803
0.006194548569341808
0.006194548569341786
0.006194548569341839
0.006194548569341868
0.006194548569341787
0.006194548569341732
0.006194548569341728
0.006194548569341721
0.006194548569341698
0.006194548569341708
0.006194548569341674
0.006194548569341682
0.006194548569341899
0.006194548569341938
0.006194548569341777
0.006194548569341894
0.006194548569341921
0.006194548569341768
0.006194548569341812
0.00619454856934182
0.006194548569341761
0.006194548569341785
0.006194548569341933
0.006194548569341967
0.006194548569341853
0.006194548569341963
0.006194548569341977
0.006194548569341787
0.006194548569341842
0.006194548569341899
0.006194548569341751
0.006194548569341873
0.006194548569341946
0.006194548569341847
0.006194548569341846
0.006194548569341816
0.006194548569341797
0.006194548569341873
0.006194548569341859
0.006194548569341827
0.006194548569341745
0.006194548569341796
0.006194548569341843
0.006194548569341801
0.006194548569341803
0.00676491650856767
0.006764916508567827
0.006764916508567916
0.0067649165085678
0.006764916508567764
0.006764916508567691
0.00676491650856772
0.006764916508567654
0.006764916508567682
0.006764916508567686
0.006764916508567802
0.006764916508567767
0.006764916508567757
0.006764916508567737
0.006764916508567735
0.006764916508567836
0.006764916508567835
0.006764916508567723
0.006764916508567684
0.006764916508567725
0.006764916508567737
0.006764916508567704
0.006764916508567699
0.006764916508567674
0.006764916508567696
0.00676491650856788
0.0067649165085679
0.006764916508567757
0.006764916508567879
0.006764916508567921
0.006764916508567769
0.006764916508567819
0.006764916508567867
0.006764916508567811
0.006764916508567816
0.006764916508567946
0.006764916508567978
0.006764916508567892
0.006764916508567977
0.006764916508567981
0.006764916508567804
0.006764916508567875
0.006764916508567923
0.006764916508567769
0.006764916508567881
0.006764916508567949
0.006764916508567836
0.006764916508567816
0.006764916508567855
0.006764916508567889
0.006764916508567895
0.006764916508567874
0.006764916508567846
0.00676491650856777
0.006764916508567781
0.006764916508567744
0.006764916508567779
0.006764916508567813
0.007299239028512764
0.007299239028512879
0.007299239028512967
0.007299239028512883
0.00729923902851285
0.007299239028512796
0.007299239028512824
0.007299239028512769
0.007299239028512785
0.007299239028512788
0.007299239028512891
0.007299239028512886
0.007299239028512854
0.007299239028512844
0.007299239028512848
0.007299239028512924
0.007299239028512932
0.007299239028512841
0.007299239028512821
0.007299239028512858
0.007299239028512873
0.007299239028512841
0.007299239028512805
0.007299239028512824
0.00729923902851284
0.007299239028512966
0.00729923902851299
0.007299239028512873
0.00729923902851298
0.007299239028513018
0.007299239028512889
0.007299239028512923
0.007299239028512997
0.00729923902851297
0.007299239028512996
0.007299239028513084
0.007299239028513097
0.007299239028513048
0.007299239028513103
0.007299239028513092
0.007299239028512951
0.00729923902851301
0.007299239028513049
0.007299239028512917
0.00729923902851301
0.007299239028513064
0.007299239028512956
0.007299239028512936
0.007299239028512994
0.00729923902851302
0.007299239028513007
0.007299239028512984
0.007299239028512958
0.007299239028512881
0.007299239028512876
0.007299239028512827
0.00729923902851287
0.007299239028512901
0.007792964131246322
0.00779296413124639
0.007792964131246465
0.007792964131246399
0.007792964131246387
0.007792964131246381
0.007792964131246393
0.007792964131246355
0.007792964131246354
0.007792964131246352
0.007792964131246445
0.007792964131246457
0.007792964131246403
0.007792964131246434
0.007792964131246482
0.007792964131246495
0.007792964131246502
0.007792964131246455
0.007792964131246439
0.007792964131246458
0.007792964131246465
0.007792964131246445
0.007792964131246408
0.007792964131246435
0.007792964131246445
0.007792964131246524
0.007792964131246543
0.007792964131246463
0.007792964131246549
0.007792964131246579
0.007792964131246493
0.00779296413124648
0.007792964131246535
0.007792964131246583
0.007792964131246628
0.00779296413124667
0.007792964131246677
0.007792964131246653
0.00779296413124667
0.007792964131246657
0.007792964131246569
0.007792964131246609
0.007792964131246634
0.007792964131246533
0.007792964131246603
0.007792964131246643
0.007792964131246558
0.007792964131246548
0.007792964131246589
0.007792964131246587
0.007792964131246555
0.007792964131246533
0.007792964131246516
0.007792964131246441
0.007792964131246432
0.007792964131246392
0.007792964131246414
0.007792964131246432
0.008244285741256744
0.008244285741256772
0.008244285741256827
0.008244285741256767
0.008244285741256753
0.008244285741256775
0.008244285741256806
0.008244285741256793
0.008244285741256779
0.008244285741256789
0.008244285741256874
0.008244285741256881
0.008244285741256839
0.008244285741256891
0.008244285741256943
0.008244285741256923
0.008244285741256945
0.008244285741256942
0.008244285741256911
0.008244285741256912
0.008244285741256911
0.008244285741256897
0.008244285741256885
0.008244285741256904
0.008244285741256907
0.008244285741256956
0.008244285741256975
0.008244285741256931
0.008244285741256992
0.008244285741257013
0.008244285741256961
0.008244285741256947
0.008244285741256997
0.008244285741257067
0.008244285741257093
0.008244285741257115
0.008244285741257127
0.008244285741257117
0.008244285741257124
0.00824428574125711
0.008244285741257055
0.00824428574125707
0.008244285741257087
0.008244285741257018