/*--------------------------------*- C++ -*----------------------------------*\
| =========                 |                                                 |
| \\      /  F ield         | OpenFOAM: The Open Source CFD Toolbox           |
|  \\    /   O peration     | Version:  v1812                                 |
|   \\  /    A nd           | Web:      www.OpenFOAM.com                      |
|    \\/     M anipulation  |                                                 |
\*---------------------------------------------------------------------------*/
FoamFile
{
    version     2.0;
    format      ascii;
    class       volScalarField;
    location    "20000";
    object      p;
}
// * * * * * * * * * * * * * * * * * * * * * * * * * * * * * * * * * * * * * //

dimensions      [0 2 -2 0 0 0 0];


internalField   nonuniform List<scalar> 
3770
(
-2.688169834237145e-18
-1.10190210002862e-15
3.653284124963735e-15
2.430888913328054e-15
5.197961202330714e-15
4.630321563076287e-15
6.37294557388766e-15
6.060844778736248e-15
7.404615765600356e-15
7.168044741908396e-15
8.024118336602988e-15
7.870281470076592e-15
8.522378737771773e-15
8.440463307580912e-15
9.049263020491041e-15
8.965777822274564e-15
9.409570123198736e-15
9.261305615580249e-15
9.714704619876255e-15
9.868313407774159e-15
1.01226569343702e-14
1.018675524013724e-14
1.034368137390862e-14
1.04616397823771e-14
1.057966440798911e-14
1.044324848016185e-14
1.069762966710495e-14
1.070266539947478e-14
1.084145867073379e-14
1.097423153321818e-14
1.111308897082385e-14
1.093232657103038e-14
1.112680929737387e-14
1.123183631426226e-14
1.133926536300764e-14
1.138563138935122e-14
1.141091762947647e-14
1.121600323505068e-14
1.117044038376306e-14
1.129238203332049e-14
1.128226844125475e-14
1.099665107731054e-14
1.081378202061837e-14
1.064119960899834e-14
1.06547790220187e-14
1.051202435207505e-14
1.024933835847048e-14
9.869696195728549e-15
9.57001456584198e-15
9.248800865138786e-15
9.011647306265358e-15
8.577637669740661e-15
8.184117685945692e-15
8.030836450805617e-15
7.771901991623482e-15
8.587962153892833e-15
7.678037782351776e-15
1.248099719842518e-14
-1.328039460488214e-18
-1.116714289847963e-15
3.655934425974239e-15
2.431702769738388e-15
5.196806844334723e-15
4.632020252019803e-15
6.372233534719218e-15
6.060042221739875e-15
7.40517084936185e-15
7.170034233633209e-15
8.022419414174257e-15
7.870156202613371e-15
8.523469071687039e-15
8.440806021194594e-15
9.049360550455603e-15
8.966272168686049e-15
9.408831721097111e-15
9.260650705190507e-15
9.714626936004799e-15
9.867563540996104e-15
1.012399836414337e-14
1.018610513073831e-14
1.034279342580548e-14
1.046326415007904e-14
1.058018427731046e-14
1.044183028404819e-14
1.069745287618612e-14
1.070334267694568e-14
1.084074204413726e-14
1.097382032286511e-14
1.111223347024333e-14
1.093390660493725e-14
1.112885562723395e-14
1.123028807259642e-14
1.133716767107934e-14
1.138655060557875e-14
1.141367913527171e-14
1.121454596530155e-14
1.116980719932585e-14
1.129424579046681e-14
1.128185384136083e-14
1.09965828692287e-14
1.081520755680783e-14
1.064027031278761e-14
1.065345704498791e-14
1.051251209409691e-14
1.024923248527165e-14
9.867259630591797e-15
9.57175029929947e-15
9.250637324385242e-15
9.010379543684714e-15
8.577044612189512e-15
8.184889063046024e-15
8.031348682100808e-15
7.769275693007213e-15
8.586940860449235e-15
7.677987458339741e-15
1.24929252318961e-14
1.419729175486847e-17
-1.130143042303314e-15
3.656571314197545e-15
2.432087320648088e-15
5.193283679015144e-15
4.6319596266276e-15
6.367934487297245e-15
6.057259378554141e-15
7.403595710335043e-15
7.171059684172727e-15
8.02473042310691e-15
7.872631306318727e-15
8.524649259641575e-15
8.440598365738707e-15
9.04901247475956e-15
8.966488871289746e-15
9.404516575530903e-15
9.257899240463318e-15
9.718167584061657e-15
9.870415709650441e-15
1.012357047028015e-14
1.018241978398427e-14
1.034658974526796e-14
1.046367314081459e-14
1.057797500612799e-14
1.044594057800419e-14
1.069623244123713e-14
1.070080541189549e-14
1.084479116551604e-14
1.097123711829241e-14
1.110684103096947e-14
1.094197359772381e-14
1.113133407565103e-14
1.122453010622483e-14
1.134026724531204e-14
1.13874322546603e-14
1.141074557433016e-14
1.121449824874948e-14
1.117561500684492e-14
1.129623958190311e-14
1.127710241811843e-14
1.099699504743865e-14
1.081786000427233e-14
1.063980282004189e-14
1.065442514949951e-14
1.051600948025258e-14
1.024491463690102e-14
9.861235011515732e-15
9.580153984693745e-15
9.251884697535706e-15
9.002672750179753e-15
8.576770216259566e-15
8.189345362782434e-15
8.029379473474446e-15
7.762501986422655e-15
8.588903136340635e-15
7.67033751401355e-15
1.250492246791081e-14
5.052647753439094e-17
-1.135703672366354e-15
3.649485461521069e-15
2.430391499578916e-15
5.18512585016318e-15
4.629907636832196e-15
6.360264484350275e-15
6.052232127521791e-15
7.395617861251027e-15
7.171598099696093e-15
8.037942699700985e-15
7.878872434687572e-15
8.525450745530465e-15
8.440208118052279e-15
9.046886993529396e-15
8.964749569418643e-15
9.393923820876398e-15
9.25256695057708e-15
9.734573653549413e-15
9.880778474552321e-15
1.011329424951334e-14
1.017414421805264e-14
1.035935362290483e-14
1.045910771298268e-14
1.057381529298441e-14
1.046043634137545e-14
1.069014609881144e-14
1.069442388746779e-14
1.085662270003605e-14
1.096194847906254e-14
1.109816345740427e-14
1.096105010359019e-14
1.113044803564383e-14
1.121494547105551e-14
1.135268208684281e-14
1.138077948025735e-14
1.140071976108009e-14
1.122524406807533e-14
1.118906349907852e-14
1.129195891383285e-14
1.126798390332872e-14
1.099919760684065e-14
1.082255578840625e-14
1.064025541489991e-14
1.066044779711575e-14
1.05230299769212e-14
1.023151132178206e-14
9.851808665013268e-15
9.59849812434217e-15
9.246770128084147e-15
8.986540373545459e-15
8.58394615280106e-15
8.197043516428266e-15
8.01935918987501e-15
7.752779009285792e-15
8.598979400216725e-15
7.650634407186645e-15
1.251089368384581e-14
8.812940414931953e-17
-1.13871894751608e-15
3.639570470971827e-15
2.424723956553724e-15
5.174298111593565e-15
4.626456981230348e-15
6.353892037679304e-15
6.045226651958563e-15
7.382572628037772e-15
7.17160536780394e-15
8.058011902708201e-15
7.886464967918839e-15
8.527359782472826e-15
8.441471779848308e-15
9.044400513123102e-15
8.960504893051659e-15
9.380862467571403e-15
9.247010785122199e-15
9.759628971760539e-15
9.89391645695457e-15
1.009636922750618e-14
1.016383048991919e-14
1.037595326687242e-14
1.045087641346704e-14
1.057138583638509e-14
1.047995988549602e-14
1.068106412088962e-14
1.068742828575909e-14
1.087087036666003e-14
1.094865922779646e-14
1.109087532362901e-14
1.09835105706658e-14
1.112681204708579e-14
1.120565709105646e-14
1.136808628535571e-14
1.136685427561995e-14
1.138883186479782e-14
1.124492420553473e-14
1.120490168210466e-14
1.128321643814373e-14
1.125731675157466e-14
1.100175157149814e-14
1.083126438974711e-14
1.064315844171567e-14
1.066655282770329e-14
1.053067983716232e-14
1.021453011673507e-14
9.841139287896719e-15
9.620807265573702e-15
9.237928753665255e-15
8.969067495599653e-15
8.594921624780851e-15
8.203410783679978e-15
8.004473614256704e-15
7.7461846544902e-15
8.615002742320591e-15
7.625050451226654e-15
1.251683402954356e-14
1.130690538553659e-16
-1.147623097826929e-15
3.631252342717091e-15
2.417670527063629e-15
5.16540679853419e-15
4.624219452354695e-15
6.349264439147271e-15
6.036758190545404e-15
7.369324699883916e-15
7.171584788101682e-15
8.078022460620183e-15
7.89357495996367e-15
8.530952357666276e-15
8.442620240729392e-15
9.039866430871072e-15
8.955909463347041e-15
9.369559525382004e-15
9.245103856549311e-15
9.784952431777917e-15
9.902517652929729e-15
1.007873050595325e-14
1.015697622550576e-14
1.038855557862544e-14
1.043992250616609e-14
1.057502471513601e-14
1.049907898637276e-14
1.067206313400234e-14
1.068307558947524e-14
1.088224550295084e-14
1.093555486216403e-14
1.108514742032185e-14
1.100120813329227e-14
1.112342701607268e-14
1.120152795167653e-14
1.137966309938383e-14
1.135060554977399e-14
1.138072760697246e-14
1.12644480981654e-14
1.121820177020564e-14
1.127569150710626e-14
1.124701925242474e-14
1.100362397100885e-14
1.084295876938155e-14
1.065043428126607e-14
1.06698129993229e-14
1.05343769183977e-14
1.019930783711185e-14
9.832896514407828e-15
9.639920682118232e-15
9.229742019844285e-15
8.956676258742886e-15
8.603044499813591e-15
8.204744063072695e-15
7.99081071840691e-15
7.744066773059711e-15
8.631844195312766e-15
7.601720350837865e-15
1.252970305749124e-14
1.238424644553494e-16
-1.157943518933402e-15
3.625883750684446e-15
2.411825486492825e-15
5.158691356048039e-15
4.62212679537218e-15
6.345151267670216e-15
6.029345102403834e-15
7.35655246397688e-15
7.170388938511145e-15
8.095396208072439e-15
7.900830289331365e-15
8.536186527967127e-15
8.442484775065418e-15
9.034441618519134e-15
8.950296386850043e-15
9.363931106576302e-15
9.245812968697794e-15
9.804788055559493e-15
9.909097663347013e-15
1.006412039567203e-14
1.015147731469042e-14
1.039666148917841e-14
1.042764068680953e-14
1.058224660875203e-14
1.051804179285614e-14
1.066516857146266e-14
1.068128054307466e-14
1.088858722228344e-14
1.09232753712933e-14
1.108216186427607e-14
1.101282475266218e-14
1.112299669838447e-14
1.119922306841837e-14
1.138607636027292e-14
1.13343211279445e-14
1.137713002033737e-14
1.12809820980091e-14
1.123207090027438e-14
1.126661510945385e-14
1.123999378870051e-14
1.100488713773763e-14
1.085434713353985e-14
1.065922202048477e-14
1.067199200379751e-14
1.053356809496259e-14
1.018902629234058e-14
9.828492845999095e-15
9.654487017661873e-15
9.224107493481194e-15
8.946832515511096e-15
8.606073334291612e-15
8.204753266808941e-15
7.981207574645374e-15
7.744235710974213e-15
8.644882114487675e-15
7.582838360197999e-15
1.254633696863727e-14
1.246058356403455e-16
-1.16520470229194e-15
3.624528999406e-15
2.404295564427219e-15
5.154899750940209e-15
4.617902376053775e-15
6.341969211788127e-15
6.021580245852768e-15
7.343748641928197e-15
7.168123914719e-15
8.111341259594606e-15
7.909564179374133e-15
8.54137231843608e-15
8.442446487274029e-15
9.030226476977409e-15
8.945254140471944e-15
9.358907370423959e-15
9.250688044170211e-15
9.821808496955573e-15
9.912238598100866e-15
1.005335821961923e-14
1.014607722795319e-14
1.040198060154227e-14
1.041502659445784e-14
1.059082917792503e-14
1.053801571888467e-14
1.066007531384691e-14
1.068177510255434e-14
1.08911841803993e-14
1.091108447262072e-14
1.107970450515092e-14
1.102276704947543e-14
1.112257508842695e-14
1.119837347348539e-14
1.138817106844478e-14
1.132022179939373e-14
1.137564828459017e-14
1.129525285679288e-14
1.124619746914176e-14
1.125811633651219e-14
1.123296915758678e-14
1.10078755911679e-14
1.086543672350694e-14
1.066764612649007e-14
1.067297473279196e-14
1.053091528774451e-14
1.018196996133356e-14
9.827581186607512e-15
9.666547442661929e-15
9.218813832360939e-15
8.938760923432247e-15
8.605459591607663e-15
8.206192748771585e-15
7.972767061747945e-15
7.744411817726285e-15
8.654308330673973e-15
7.570573787354174e-15
1.256132542773447e-14
1.196278219297036e-16
-1.167459550815339e-15
3.624298285772008e-15
2.39838927011287e-15
5.150308109798474e-15
4.61198818163165e-15
6.340005200926555e-15
6.014216431558769e-15
7.331546221833601e-15
7.164729774454205e-15
8.125767805542761e-15
7.919322498451146e-15
8.546344411932506e-15
8.442940797637107e-15
9.026068637801272e-15
8.940854063185413e-15
9.355045964124123e-15
9.257952792271581e-15
9.836155431334914e-15
9.913408537682387e-15
1.004710590324074e-14
1.014233058007587e-14
1.0401279498088e-14
1.040359750114284e-14
1.060035371681245e-14
1.055678658235534e-14
1.065770426768723e-14
1.068063109446088e-14
1.08943993442794e-14
1.0897559901604e-14
1.1076009264441e-14
1.103220973458581e-14
1.112302397292954e-14
1.119693060917622e-14
1.138909780567453e-14
1.130849837000949e-14
1.137782026491747e-14
1.130648880580148e-14
1.125880100436075e-14
1.124663581603264e-14
1.122776952476958e-14
1.101626676386041e-14
1.087518831586546e-14
1.067324911558667e-14
1.067571356871806e-14
1.052607400739647e-14
1.017688939182492e-14
9.830066547778781e-15
9.674842475119036e-15
9.214190920107978e-15
8.932274188401598e-15
8.603958189175768e-15
8.208722012218503e-15
7.964026411345523e-15
7.745986856422473e-15
8.657956819850788e-15
7.563463355314196e-15
1.257078477647181e-14
1.064206500235325e-16
-1.158293949749698e-15
3.623239218183681e-15
2.394442762258512e-15
5.144896362411335e-15
4.605743566293079e-15
6.339339183999579e-15
6.006183271515062e-15
7.318203497532125e-15
7.163124244816979e-15
8.139458223235996e-15
7.929444068374306e-15
8.551696399107536e-15
8.443053597812797e-15
9.021992349761897e-15
8.937740084557264e-15
9.351957053969832e-15
9.264417396948657e-15
9.849872808057961e-15
9.912673198211919e-15
1.004462440050777e-14
1.013994185201473e-14
1.039531468240584e-14
1.039262121180786e-14
1.061136961329715e-14
1.057617469196868e-14
1.06550698201695e-14
1.067977999364518e-14
1.08957252651844e-14
1.088533243171512e-14
1.107206144677486e-14
1.10402267196238e-14
1.112541147273385e-14
1.119458313002347e-14
1.138668932585213e-14
1.129843157195808e-14
1.138213096250883e-14
1.131942867332815e-14
1.126760578694452e-14
1.123544769328231e-14
1.122584575680245e-14
1.102850951848536e-14
1.088464145290889e-14
1.067511868579927e-14
1.067855920948838e-14
1.052153619322959e-14
1.017137153370211e-14
9.835259788571216e-15
9.682219069363737e-15
9.211775921486386e-15
8.927764505366739e-15
8.603572123723714e-15
8.207972238639451e-15
7.957311529777004e-15
7.746494500060645e-15
8.657943418663487e-15
7.561065007581765e-15
1.256951013725308e-14
8.790872312905658e-17
-1.133971579118202e-15
3.621599995226191e-15
2.390072170994198e-15
5.137898731271819e-15
4.599235365220948e-15
6.339233724435906e-15
6.000378907521334e-15
7.305208205211416e-15
7.160227880074028e-15
8.154568999736015e-15
7.940928983658169e-15
8.557282153583082e-15
8.442972251722853e-15
9.016123894614632e-15
8.93363106882526e-15
9.351912967531328e-15
9.270352830344275e-15
9.863036367357899e-15
9.910392912875067e-15
1.004638613880294e-14
1.01364970221083e-14
1.038685234052568e-14
1.038500475640802e-14
1.062194202203836e-14
1.059251568016453e-14
1.065404962241252e-14
1.067754238649177e-14
1.089715613642811e-14
1.087503539806394e-14
1.106846179600855e-14
1.104689588245468e-14
1.112850010869825e-14
1.119246461736683e-14
1.138237748871398e-14
1.128989472932521e-14
1.139074739058404e-14
1.133109606143235e-14
1.127135203517645e-14
1.122567921703394e-14
1.122511042303861e-14
1.104115336234482e-14
1.08964175189335e-14
1.067741397067769e-14
1.0678067603242e-14
1.051678192042405e-14
1.0169881835829e-14
9.842943077337693e-15
9.689214827841732e-15
9.210673495664371e-15
8.925179420276049e-15
8.600929903281933e-15
8.208276322503827e-15
7.951981557670592e-15
7.746444379244722e-15
8.656339743525647e-15
7.561861844966435e-15
1.254794704177429e-14
6.636870156999826e-17
-1.092425260122572e-15
3.616570422795377e-15
2.387144441464919e-15
5.129905967638747e-15
4.59265079023531e-15
6.338918572897983e-15
5.996844665968442e-15
7.293341870433521e-15
7.15807340660138e-15
8.170056811386692e-15
7.952234378787245e-15
8.564073502270014e-15
8.444202459132299e-15
9.007028004356799e-15
8.931635757249543e-15
9.349657981522291e-15
9.277658253622529e-15
9.87783781582566e-15
9.905655741914209e-15
1.004935319724275e-14
1.013226813676648e-14
1.037930857929024e-14
1.037902670353819e-14
1.063331592973294e-14
1.060360210783004e-14
1.065468433968537e-14
1.067779265970354e-14
1.089886558581064e-14
1.086711180664679e-14
1.106123610017149e-14
1.105274491854845e-14
1.113299045753376e-14
1.119062017292808e-14
1.137667319326399e-14
1.128156968132031e-14
1.140195944579447e-14
1.134227221496235e-14
1.127409715514318e-14
1.121787465001644e-14
1.122641356739487e-14
1.105274767704908e-14
1.090984752707839e-14
1.068072461329221e-14
1.06734511829317e-14
1.051564308025054e-14
1.016879026409464e-14
9.850107165399706e-15
9.698389394411771e-15
9.211085859497628e-15
8.923358912740758e-15
8.598176266764404e-15
8.206787376608378e-15
7.945535464023974e-15
7.747659487078332e-15
8.652581245949021e-15
7.564667979647862e-15
1.250016596136158e-14
4.339919273014561e-17
-1.024463666868711e-15
3.606537392269937e-15
2.387059605053763e-15
5.121775308664011e-15
4.584812114942586e-15
6.338311889506554e-15
6.000258785693864e-15
7.279761707344901e-15
7.154898387919125e-15
8.184303983288677e-15
7.963271085060735e-15
8.571589161669458e-15
8.445256377981485e-15
9.00038244016535e-15
8.929828206248861e-15
9.347511226670342e-15
9.287075041493749e-15
9.891631484448977e-15
9.900498053458149e-15
1.005085030898198e-14
1.012953507660116e-14
1.037406588136556e-14
1.037797967389981e-14
1.064340195768847e-14
1.060882284901952e-14
1.065398211423222e-14
1.068085428850034e-14
1.089876893283255e-14
1.086076806257625e-14
1.105571986686873e-14
1.105866123487526e-14
1.113828192267695e-14
1.118841295756876e-14
1.137029358854224e-14
1.12763874284268e-14
1.141361876627843e-14
1.135838224673967e-14
1.127479131895946e-14
1.121011814602249e-14
1.122875339453756e-14
1.105921358449037e-14
1.09253645796866e-14
1.068615125789632e-14
1.066979963683958e-14
1.05118640678451e-14
1.017188649220967e-14
9.859508857658861e-15
9.708249751705959e-15
9.213271697102459e-15
8.923629086456529e-15
8.596802412307196e-15
8.204031659114559e-15
7.938314111473838e-15
7.747858531570904e-15
8.641567909170355e-15
7.567080894474133e-15
1.24170664961208e-14
2.694114994018681e-17
-9.281380984643731e-16
3.587244000144976e-15
2.390798105189922e-15
5.110530210834555e-15
4.579491954228639e-15
6.338965705624191e-15
6.011612882035083e-15
7.266306607486428e-15
7.147320338938238e-15
8.197585679826869e-15
7.976374203860885e-15
8.57819280925075e-15
8.44545162851114e-15
8.996028643602272e-15
8.925588621521325e-15
9.349432738656727e-15
9.297047741625454e-15
9.903821073858947e-15
9.894540122527776e-15
1.005227622224096e-14
1.012833342579119e-14
1.037209650962274e-14
1.038435560333169e-14
1.06506930621031e-14
1.060445150105674e-14
1.065468202416005e-14
1.068820533820906e-14
1.089705731839065e-14
1.085538343031051e-14
1.104928719692231e-14
1.106250817484787e-14
1.114681512424029e-14
1.118640606213804e-14
1.136338751318437e-14
1.127538608122374e-14
1.142496646220478e-14
1.138019110528543e-14
1.127527101282677e-14
1.12033038964638e-14
1.123197309784329e-14
1.106225787735392e-14
1.093980801207309e-14
1.069539636184395e-14
1.066958457440228e-14
1.050828895731537e-14
1.017805489568791e-14
9.868790614023082e-15
9.718257278237372e-15
9.219967071633782e-15
8.928787822784449e-15
8.591866198025569e-15
8.197198705284269e-15
7.932107268131078e-15
7.746996369728422e-15
8.619623791996153e-15
7.564389156470378e-15
1.229077658415019e-14
2.702668190233088e-17
-8.166063829978633e-16
3.557574577598034e-15
2.400536293835696e-15
5.098874510309028e-15
4.57968744183168e-15
6.345436556042339e-15
6.033117337729894e-15
7.254908408330714e-15
7.143039063150256e-15
8.202754591109254e-15
7.986565874452523e-15
8.583459568214626e-15
8.442845524059068e-15
8.992065937698885e-15
8.925862146461304e-15
9.353904168026171e-15
9.31185642737381e-15
9.911843016381091e-15
9.886697997334175e-15
1.005262438621325e-14
1.01282724891461e-14
1.037587783577305e-14
1.03959414528945e-14
1.06538975743295e-14
1.059617313448241e-14
1.065699135945446e-14
1.069813030203368e-14
1.089040224004048e-14
1.085283057779644e-14
1.104523974846603e-14
1.106208385149769e-14
1.115784446546862e-14
1.119093950108662e-14
1.135357554413667e-14
1.1272670196782e-14
1.1441480191391e-14
1.139985928639783e-14
1.127225553954557e-14
1.120345608835396e-14
1.123480922568432e-14
1.106088544709275e-14
1.095291175594024e-14
1.071374384916074e-14
1.067477860106852e-14
1.050219873513947e-14
1.018416735263449e-14
9.879995179030277e-15
9.726002874574013e-15
9.235787794731703e-15
8.937748916454994e-15
8.579820917069759e-15
8.190655679995088e-15
7.929373016225484e-15
7.738772708134116e-15
8.582235185553437e-15
7.550979402778798e-15
1.21292666847297e-14
5.572200093327879e-17
-6.987659005686972e-16
3.522032926598127e-15
2.41972626871965e-15
5.083456269236853e-15
4.589695795710091e-15
6.355166424995272e-15
6.062966140681802e-15
7.254803736612475e-15
7.142693832068492e-15
8.193662810456133e-15
7.990673412347981e-15
8.590590811951048e-15
8.4398189096535e-15
8.985642914088979e-15
8.927485479007792e-15
9.365725107906977e-15
9.334184555863766e-15
9.907607952828884e-15
9.872109972222261e-15
1.00496472178085e-14
1.013384856358675e-14
1.038965047490141e-14
1.041020903202558e-14
1.0655854276574e-14
1.058030254202804e-14
1.065946323255827e-14
1.070836883845306e-14
1.088469183150826e-14
1.08536956718922e-14
1.104175336794988e-14
1.105831356694664e-14
1.116707145751365e-14
1.119768947940798e-14
1.134283387567661e-14
1.127419330439195e-14
1.146134620687849e-14
1.141904277702426e-14
1.126658108240238e-14
1.121004754198157e-14
1.124127491640683e-14
1.105537009897955e-14
1.096421749505751e-14
1.074045065404717e-14
1.068752281173694e-14
1.049727035858254e-14
1.018880419479312e-14
9.889832154109648e-15
9.733390679720835e-15
9.256246695327921e-15
8.947590920698477e-15
8.56519730845255e-15
8.184722615828262e-15
7.928332350786082e-15
7.723671547302541e-15
8.524453489420534e-15
7.515368775148704e-15
1.193560731187248e-14
1.174385929784505e-16
-5.869048972278708e-16
3.482002645693077e-15
2.452601531853405e-15
5.069603398325464e-15
4.605033814699135e-15
6.362750186540188e-15
6.098516477339711e-15
7.264361468323249e-15
7.149357690490741e-15
8.174576864599379e-15
7.986275534195769e-15
8.596397444722498e-15
8.442853205905464e-15
8.980850247750759e-15
8.924805830605644e-15
9.382331300585968e-15
9.363407007076467e-15
9.895004871110491e-15
9.848500048195779e-15
1.005048610589808e-14
1.013905430660313e-14
1.040629611008114e-14
1.042123955788032e-14
1.065517886864357e-14
1.057295802415454e-14
1.066716222221107e-14
1.071085676728736e-14
1.087327281618336e-14
1.086214681691253e-14
1.104181528159221e-14
1.105203176971643e-14
1.117337546065035e-14
1.120451755904066e-14
1.133234301453235e-14
1.128234058310112e-14
1.148123566211943e-14
1.14335993409791e-14
1.127058467103269e-14
1.121444910559571e-14
1.125104406408563e-14
1.105480342863004e-14
1.097600474576105e-14
1.076811965803113e-14
1.070229274036726e-14
1.04890554247057e-14
1.019494490402869e-14
9.904216946169041e-15
9.741913743159979e-15
9.27716109703622e-15
8.952085911318342e-15
8.554861038829719e-15
8.180047962931808e-15
7.920907114192062e-15
7.705754899528474e-15
8.446467446340715e-15
7.449448944261708e-15
1.172748880664467e-14
2.050160852941324e-16
-4.941297524482628e-16
3.450625394213452e-15
2.494800033401202e-15
5.063877675850082e-15
4.630320245865979e-15
6.368719471909865e-15
6.128893534631165e-15
7.270036607813339e-15
7.16772947423106e-15
8.155373444843297e-15
7.9798550533517e-15
8.601538136510125e-15
8.454749577663544e-15
8.974740878159846e-15
8.924475174524138e-15
9.392378404357124e-15
9.389408588765582e-15
9.878084180044565e-15
9.828761908465828e-15
1.005097910443835e-14
1.014616103381034e-14
1.041688663178703e-14
1.042937306477743e-14
1.065192740328881e-14
1.058534210663788e-14
1.067522598757782e-14
1.070611957360239e-14
1.086510866081222e-14
1.086648688548463e-14
1.104258314463969e-14
1.105118389180768e-14
1.117407714162385e-14
1.120997617054918e-14
1.133116806686809e-14
1.129718321234427e-14
1.149245651101699e-14
1.144363800257916e-14
1.128473282315551e-14
1.122018634442811e-14
1.125492579760436e-14
1.106023479823436e-14
1.099574645257398e-14
1.079449745910524e-14
1.071145173986276e-14
1.04832501093307e-14
1.020308302871789e-14
9.922143892826209e-15
9.748608597702044e-15
9.295523271708419e-15
8.960739584609142e-15
8.551086083631594e-15
8.17155537675277e-15
7.900519538589809e-15
7.669668054880708e-15
8.354758051209323e-15
7.364575879472483e-15
1.151070689383533e-14
3.101041682737256e-16
-4.161105271303129e-16
3.425142812432419e-15
2.543795040569946e-15
5.066486302587864e-15
4.658737925768146e-15
6.379863607716352e-15
6.153133697853987e-15
7.268308553801067e-15
7.184880524660145e-15
8.138767918811611e-15
7.980959517466657e-15
8.604577943868011e-15
8.470434349321e-15
8.977112137737915e-15
8.928756172477957e-15
9.39935080681954e-15
9.402736815182686e-15
9.860218732042137e-15
9.814478198276288e-15
1.005569170842174e-14
1.015889917671347e-14
1.041580004706248e-14
1.04277854157116e-14
1.065770371026481e-14
1.060182291595773e-14
1.068352641989741e-14
1.070283127198993e-14
1.086705005035279e-14
1.086533960286388e-14
1.104653031880648e-14
1.104766606400372e-14
1.117375220816171e-14
1.122082623690909e-14
1.13323354598681e-14
1.131551035834931e-14
1.149709650874757e-14
1.14472586464589e-14
1.13065570901265e-14
1.122731659969221e-14
1.125182684244667e-14
1.107112924031004e-14
1.101692568183882e-14
1.081345638785387e-14
1.073134851613784e-14
1.047887334572792e-14
1.021701923228383e-14
9.944005701823838e-15
9.757255463567658e-15
9.315917725157449e-15
8.967891838187273e-15
8.540591005892764e-15
8.163428793884573e-15
7.873034250658925e-15
7.620578602165209e-15
8.248060147111397e-15
7.251969388769757e-15
1.129585549377374e-14
4.379109539221419e-16
-3.591008761655536e-16
3.401168662935875e-15
2.600636661212502e-15
5.074825104619467e-15
4.700291159550617e-15
6.380915632474026e-15
6.178227843542913e-15
7.272971320642019e-15
7.206918242320098e-15
8.126643258540318e-15
7.99426897685189e-15
8.606452887024502e-15
8.477452127255021e-15
8.983300574718129e-15
8.945643222459578e-15
9.401622052988795e-15
9.405529349506045e-15
9.840885035931559e-15
9.805810828625679e-15
1.006999530442558e-14
1.016778542836837e-14
1.040543609434361e-14
1.042735457120411e-14
1.06659644333395e-14
1.061568565488652e-14
1.069293903197842e-14
1.070710558092366e-14
1.087373757924077e-14
1.086562342335754e-14
1.104342272959924e-14
1.104993890161664e-14
1.11709681387124e-14
1.123175910115516e-14
1.133288722014662e-14
1.133508293678674e-14
1.149577031131743e-14
1.144817335539022e-14
1.133050967286449e-14
1.123249435781983e-14
1.124740630195567e-14
1.108931590179804e-14
1.103769042588316e-14
1.082611240646754e-14
1.075716176301448e-14
1.048505602544076e-14
1.023400349610125e-14
9.963751989246284e-15
9.770739584786e-15
9.336903917188613e-15
8.973612981549414e-15
8.533868795503111e-15
8.150617505512029e-15
7.834797940756007e-15
7.554662024702182e-15
8.132634526207482e-15
7.10960542790425e-15
1.108201993599781e-14
5.629821890264273e-16
-3.066077369408851e-16
3.402742429211594e-15
2.65750981732912e-15
5.081270049854036e-15
4.74443782348445e-15
6.382147157235806e-15
6.204239174976722e-15
7.27911730864964e-15
7.229876865290958e-15
8.122471674134418e-15
8.00883990283224e-15
8.607672487717431e-15
8.487719245699857e-15
8.992196650448919e-15
8.969177093485214e-15
9.400750048516782e-15
9.396880403427749e-15
9.823214040606544e-15
9.809300682571255e-15
1.007863236129642e-14
1.017182050671936e-14
1.039843911383542e-14
1.043153639502504e-14
1.06669930656744e-14
1.062719381932237e-14
1.070216421990109e-14
1.071752501807776e-14
1.08811012348112e-14
1.08704619945732e-14
1.103567214968608e-14
1.105181711259927e-14
1.117238290059034e-14
1.123850208160957e-14
1.133971898406833e-14
1.134802327385877e-14
1.149389388530479e-14
1.145125102398955e-14
1.134582559458386e-14
1.123683069914869e-14
1.124933891828701e-14
1.11157226416063e-14
1.10479932285942e-14
1.083694528635053e-14
1.078770251364465e-14
1.050051762527368e-14
1.025462605151995e-14
9.990049980326471e-15
9.780539028043192e-15
9.357867421981252e-15
8.970732911892792e-15
8.530153346825398e-15
8.136781182860068e-15
7.788976473182404e-15
7.478894818556454e-15
8.006930211963425e-15
6.958890305209408e-15
1.08634729058517e-14
6.915115662160616e-16
-2.581495759413221e-16
3.407183098902531e-15
2.729031788707313e-15
5.088783659338709e-15
4.787036823138295e-15
6.38403190722709e-15
6.234858875504248e-15
7.289015194510158e-15
7.252764946597532e-15
8.116711948334251e-15
8.029933792473734e-15
8.603551701349666e-15
8.50513835562206e-15
9.003040616259112e-15
8.99392041984957e-15
9.390511606569494e-15
9.391782010464552e-15
9.810002732981572e-15
9.818003531219801e-15
1.008496063016468e-14
1.017897533658746e-14
1.03902276112728e-14
1.043244480753161e-14
1.066836826899727e-14
1.063600990257682e-14
1.071373019620057e-14
1.072783771955008e-14
1.088552702567239e-14
1.087454475738163e-14
1.103093844320301e-14
1.105591412050026e-14
1.117671991266217e-14
1.124547393888942e-14
1.13388004362264e-14
1.136281013184714e-14
1.148856086498256e-14
1.145620272317143e-14
1.13633147298139e-14
1.124501161756334e-14
1.1253017236483e-14
1.113453380525157e-14
1.105974979782916e-14
1.085305754369245e-14
1.081885494073307e-14
1.052069278412549e-14
1.027612471461492e-14
1.00128748956443e-14
9.794126363584646e-15
9.375054506327645e-15
8.976085531114548e-15
8.51912035700938e-15
8.116444111566497e-15
7.74661041744322e-15
7.395467516966881e-15
7.875051969456167e-15
6.793045549837063e-15
1.063319028630624e-14
8.155584624168846e-16
-1.912585853679867e-16
3.417041122311443e-15
2.803628250078966e-15
5.10831844350257e-15
4.830943411184534e-15
6.388439426801329e-15
6.269109060967745e-15
7.29917562202189e-15
7.278948522814414e-15
8.108769892657589e-15
8.046871261449399e-15
8.605964925547997e-15
8.525123175738362e-15
9.017609565555045e-15
9.010109397867319e-15
9.386739248289175e-15
9.385328623354719e-15
9.796971930204655e-15
9.824484258704458e-15
1.008700551984445e-14
1.019022638653175e-14
1.038863225366591e-14
1.042846481493997e-14
1.066124005230782e-14
1.063861329986928e-14
1.073145508426656e-14
1.073810742935728e-14
1.088775824916762e-14
1.087565642897222e-14
1.102539634891029e-14
1.106383636405334e-14
1.118519818973728e-14
1.125142620354109e-14
1.134175512716323e-14
1.137456036522121e-14
1.148181585742478e-14
1.146259870974099e-14
1.137425257548269e-14
1.125371093649669e-14
1.126250602670361e-14
1.114955075432858e-14
1.107062858090536e-14
1.086541798621943e-14
1.084684953591383e-14
1.054561314528646e-14
1.030487901083924e-14
1.003562120426766e-14
9.80813785225084e-15
9.386357741070681e-15
8.981690649175162e-15
8.517517708100496e-15
8.102419545170055e-15
7.690791381229772e-15