/*--------------------------------*- C++ -*----------------------------------*\
| =========                 |                                                 |
| \\      /  F ield         | OpenFOAM: The Open Source CFD Toolbox           |
|  \\    /   O peration     | Version:  v1812                                 |
|   \\  /    A nd           | Web:      www.OpenFOAM.com                      |
|    \\/     M anipulation  |                                                 |
\*---------------------------------------------------------------------------*/
FoamFile
{
    version     2.0;
    format      ascii;
    class       surfaceScalarField;
    location    "20000";
    object      phi;
}
// * * * * * * * * * * * * * * * * * * * * * * * * * * * * * * * * * * * * * //

dimensions      [0 3 -1 0 0 0 0];
oriented        oriented;


internalField   nonuniform List<scalar> 
7417
(
-0.0008680390893120053
1.01712163923781e-17
-0.000868039089312009
3.545930691827862e-18
-0.0008680390893120043
-4.70896493180443e-18
-0.0008680390893120073
2.843821537044902e-18
-0.0008680390893120051
-2.171024761411924e-18
-0.0008680390893120062
1.050326704516472e-18
-0.000868039089312005
-1.197896610805887e-18
-0.0008680390893120054
5.112445920509019e-19
-0.000868039089312004
-1.368389786016572e-18
-0.0008680390893120036
-4.813765257331655e-19
-0.0008680390893120035
-3.663765246152924e-21
-0.0008680390893120045
1.023781315433965e-18
-0.0008680390893120047
1.270138528693763e-19
-0.0008680390893120047
8.301841431773597e-20
-0.0008680390893120045
-2.693846270815547e-19
-0.0008680390893120042
-1.539395204862842e-19
-0.0008680390893120041
-2.495815314017404e-19
-0.0008680390893120029
-1.171142301894775e-18
-0.0008680390893120023
-6.902331030193386e-19
-0.0008680390893120031
8.339974320688535e-19
-0.0008680390893120035
3.339558642943235e-19
-0.000868039089312003
-3.5166369069012e-19
-0.0008680390893120034
3.553688133787852e-19
-0.0008680390893120041
7.563725891727761e-19
-0.0008680390893120038
-3.700098473684004e-19
-0.0008680390893120041
3.232329726303115e-19
-0.0008680390893120045
5.461688752013348e-19
-0.0008680390893120041
-4.214676282282731e-19
-0.0008680390893120044
3.350991817091708e-19
-0.0008680390893120049
3.935915736831896e-19
-0.0008680390893120041
-8.004054244983828e-19
-0.0008680390893120043
-1.312217021944488e-19
-0.0008680390893120051
1.103584308550011e-18
-0.0008680390893120048
-1.965726935398134e-19
-0.000868039089312005
2.368366039348882e-19
-0.0008680390893120054
4.818354193584702e-19
-0.0008680390893120048
-7.549384123327363e-19
-0.0008680390893120051
1.602273616938216e-19
-0.0008680390893120054
3.446459950409025e-19
-0.0008680390893120056
2.318524724595735e-19
-0.0008680390893120063
6.539666606404609e-19
-0.0008680390893120067
3.308084812759744e-19
-0.000868039089312007
3.646201415943218e-19
-0.0008680390893120067
-1.991389300248471e-19
-0.0008680390893120067
-5.75079632935015e-20
-0.0008680390893120073
5.650084107970267e-19
-0.000868039089312008
7.045409482592033e-19
-0.0008680390893120077
-1.290594914040216e-19
-0.000868039089312008
9.855570875394543e-20
-0.0008680390893120084
5.084681697302599e-19
-0.0008680390893120077
-7.648897089273977e-19
-0.0008680390893120076
-7.899122138321344e-20
-0.0008680390893120081
4.782413890235943e-19
-0.0008680390893120081
4.555094120059495e-20
-0.000868039089312008
-1.114056058643322e-19
-0.0008680390893120062
-1.892652495306448e-18
-0.0008680390893120052
-9.761407648973708e-19
-8.910592642953273e-18
-0.0007845493500986253
1.460149528791044e-17
-0.0007845493500986285
6.674215793936006e-18
-0.0007845493500986246
-8.778287782644104e-18
-0.0007845493500986273
5.474221655657142e-18
-0.0007845493500986262
-3.345790332300041e-18
-0.0007845493500986271
1.948398910345972e-18
-0.0007845493500986266
-1.745635451122728e-18
-0.0007845493500986266
6.204807448435929e-19
-0.0007845493500986252
-2.692175396619252e-18
-0.0007845493500986229
-2.795800189716361e-18
-0.0007845493500986218
-1.083813849705343e-18
-0.0007845493500986234
2.663450401377456e-18
-0.0007845493500986244
1.133251557605319e-18
-0.0007845493500986248
5.852499678560808e-19
-0.0007845493500986255
3.271238052571829e-19
-0.0007845493500986249
-5.350456955936976e-19
-0.0007845493500986249
-2.795412417621197e-19
-0.0007845493500986222
-3.849480066687558e-18
-0.0007845493500986202
-2.789213746316957e-18
-0.0007845493500986216
2.211470413054319e-18
-0.0007845493500986231
1.868434221299971e-18
-0.000784549350098622
-1.32433702409188e-18
-0.0007845493500986221
5.400613599408911e-19
-0.0007845493500986243
2.92221891014449e-18
-0.0007845493500986241
-6.415355904004405e-19
-0.0007845493500986234
-2.637489661908491e-19
-0.0007845493500986249
2.082607163817819e-18
-0.0007845493500986244
-9.29200870653065e-19
-0.0007845493500986241
5.18013972884632e-20
-0.0007845493500986255
1.849494916744373e-18
-0.0007845493500986243
-2.136594862471083e-18
-0.0007845493500986238
-8.806798894208444e-19
-0.0007845493500986264
3.90667443197009e-18
-0.0007845493500986256
-7.925106224093302e-19
-0.0007845493500986255
1.739901423605494e-19
-0.0007845493500986272
2.225149775290522e-18
-0.0007845493500986267
-1.375290370998205e-18
-0.0007845493500986259
-7.697628186633547e-19
-0.0007845493500986261
5.563329926519028e-19
-0.0007845493500986271
1.228345139563906e-18
-0.0007845493500986283
1.833437313434712e-18
-0.0007845493500986293
1.261623369519598e-18
-0.0007845493500986307
1.870962838003973e-18
-0.0007845493500986297
-1.095932631653674e-18
-0.000784549350098629
-8.572461155054013e-19
-0.00078454935009863
1.682809741472823e-18
-0.0007845493500986325
3.058924788169069e-18
-0.0007845493500986318
-6.152741248674057e-19
-0.0007845493500986317
-1.878697057740469e-19
-0.0007845493500986333
2.262772412366173e-18
-0.0007845493500986328
-1.385998833043238e-18
-0.0007845493500986319
-9.70149497270564e-19
-0.0007845493500986326
1.256987068581549e-18
-0.0007845493500986336
1.100752420002776e-18
-0.0007845493500986322
-1.471804589877328e-18
-0.0007845493500986296
-4.541543294194334e-18
-0.0007845493500986286
-1.975729170834718e-18
-1.653053793642367e-17
-0.0006782255249164591
1.397153090272865e-17
-0.0006782255249164619
9.369053004803049e-18
-0.0006782255249164591
-1.1621327026402e-17
-0.0006782255249164608
7.189236713875955e-18
-0.0006782255249164595
-4.690717725408877e-18
-0.00067822552491646
2.463141792101192e-18
-0.0006782255249164593
-2.468133083204925e-18
-0.0006782255249164593
6.642791759306319e-19
-0.0006782255249164585
-3.52301984213332e-18
-0.0006782255249164553
-5.946450862876033e-18
-0.000678225524916453
-3.25574917580367e-18
-0.0006782255249164545
4.0979770581864e-18
-0.0006782255249164554
2.093153700207316e-18
-0.0006782255249164562
1.349691064245468e-18
-0.0006782255249164573
1.359125104675239e-18
-0.0006782255249164575
-2.277590749447227e-19
-0.0006782255249164582
4.255835563625124e-19
-0.000678225524916455
-7.088041678930683e-18
-0.0006782255249164515
-6.255873781392838e-18
-0.0006782255249164526
3.276696943168974e-18
-0.0006782255249164553
4.557386747533001e-18
-0.0006782255249164542
-2.353223963451494e-18
-0.0006782255249164539
2.381658475107057e-19
-0.0006782255249164567
5.748716662603643e-18
-0.0006782255249164567
-6.869284845921659e-19
-0.0006782255249164558
-1.134672942112579e-18
-0.0006782255249164576
3.952977223630055e-18
-0.0006782255249164572
-1.350004633078084e-18
-0.0006782255249164566
-4.908507535002615e-19
-0.0006782255249164586
3.929261169793874e-18
-0.0006782255249164576
-3.316332029766295e-18
-0.0006782255249164564
-2.186073624532585e-18
-0.0006782255249164594
7.031361978893685e-18
-0.0006782255249164592
-9.561393409632389e-19
-0.000678225524916459
-7.806280623799608e-20
-0.0006782255249164616
4.831140026823113e-18
-0.0006782255249164608
-2.135096579772635e-18
-0.0006782255249164588
-2.975975873314104e-18
-0.0006782255249164593
1.082028020496523e-18
-0.0006782255249164608
2.74175103670286e-18
-0.0006782255249164623
3.268515580040131e-18
-0.0006782255249164632
2.215414253980716e-18
-0.0006782255249164644
3.001782586565415e-18
-0.0006782255249164641
-1.295438684632508e-18
-0.0006782255249164631
-1.902851115614117e-18
-0.0006782255249164642
2.831542752169374e-18
-0.0006782255249164682
6.891777051828385e-18
-0.0006782255249164671
-1.482540041449515e-18
-0.0006782255249164668
-7.153791329123188e-19
-0.0006782255249164695
5.065168917387693e-18
-0.0006782255249164688
-2.210139925463692e-18
-0.0006782255249164675
-2.259455651816322e-18
-0.0006782255249164688
2.591306232104636e-18
-0.0006782255249164702
2.559544734660729e-18
-0.0006782255249164684
-3.132247464128731e-18
-0.0006782255249164657
-7.3245632905472e-18
-0.0006782255249164662
-1.55268579557998e-18
-2.293277521085178e-17
-0.0006175861352655441
1.211668947319779e-17
-0.0006175861352655461
1.113081806360606e-17
-0.0006175861352655431
-1.467690822723028e-17
-0.000617586135265543
6.951829237647559e-18
-0.0006175861352655418
-5.853898843874734e-18
-0.0006175861352655413
1.97142205401829e-18
-0.0006175861352655407
-3.009276568771585e-18
-0.0006175861352655397
-3.441916524776804e-19
-0.0006175861352655387
-4.349458666757691e-18
-0.0006175861352655369
-7.834186457177277e-18
-0.0006175861352655363
-3.848211659641357e-18
-0.0006175861352655364
4.170648974414051e-18
-0.0006175861352655379
3.498820672630163e-18
-0.0006175861352655375
1.050161693212834e-18
-0.0006175861352655381
1.822197177921915e-18
-0.0006175861352655382
3.459407468446862e-20
-0.0006175861352655385
6.319233018838298e-19
-0.0006175861352655363
-9.210159574054436e-18
-0.0006175861352655357
-6.903580713897328e-18
-0.0006175861352655367
4.109174436404246e-18
-0.0006175861352655374
5.318554545206298e-18
-0.0006175861352655373
-2.400871465366245e-18
-0.0006175861352655379
8.290017616216409e-19
-0.0006175861352655382
6.111055973012132e-18
-0.0006175861352655389
9.634849705080622e-20
-0.0006175861352655396
-4.428319160606979e-19
-0.0006175861352655395
3.943403665046254e-18
-0.0006175861352655392
-1.646520734587987e-18
-0.0006175861352655401
4.876484978131803e-19
-0.0006175861352655404
4.132057863179993e-18
-0.0006175861352655399
-3.958531414480672e-18
-0.0006175861352655404
-1.810348864502783e-18
-0.0006175861352655413
8.248463998042216e-18
-0.0006175861352655414
-8.142585577448557e-19
-0.0006175861352655427
1.212090597016403e-18
-0.0006175861352655436
5.742216453889022e-18
-0.0006175861352655431
-2.795308455469878e-18
-0.0006175861352655433
-2.826770494807573e-18
-0.0006175861352655436
1.356791265724214e-18
-0.0006175861352655438
3.091147636127163e-18
-0.000617586135265545
4.369527909424958e-18
-0.0006175861352655454
2.728527902831536e-18
-0.0006175861352655456
3.146819959439326e-18
-0.0006175861352655463
-4.323777895262859e-19
-0.0006175861352655478
-4.285858377695189e-19
-0.0006175861352655488
3.750143261063024e-18
-0.0006175861352655497
7.781336831538275e-18
-0.0006175861352655492
-1.782852883866961e-18
-0.0006175861352655501
6.367380708082417e-20
-0.000617586135265551
6.030360165170131e-18
-0.0006175861352655501
-3.120923767650316e-18
-0.0006175861352655511
-1.33503477257006e-18
-0.0006175861352655518
3.414048589428629e-18
-0.0006175861352655516
2.367599857845082e-18
-0.0006175861352655505
-4.251608240850602e-18
-0.0006175861352655499
-8.057641874433291e-18
-0.0006175861352655489
-2.517188890337275e-18
-2.593642942337723e-17
-0.0005841513831564075
8.662815420846759e-18
-0.0005841513831564076
1.11224889557029e-17
-0.0005841513831564055
-1.673740884872526e-17
-0.0005841513831564039
5.443265654663525e-18
-0.0005841513831564022
-7.679479127908948e-18
-0.000584151383156401
7.715815139251599e-19
-0.0005841513831564007
-3.358932474006051e-18
-0.0005841513831563998
-1.280776619253999e-18
-0.0005841513831563987
-5.266307849261369e-18
-0.0005841513831563986
-8.090791495750627e-18
-0.0005841513831563985
-3.920992288016224e-18
-0.0005841513831563991
4.739339636069779e-18
-0.0005841513831563984
2.790030676501175e-18
-0.0005841513831563986
1.341842054340976e-18
-0.0005841513831563991
2.145715653228887e-18
-0.0005841513831563985
-4.097606231869872e-19
-0.0005841513831563986
6.441290390033299e-19
-0.0005841513831563982
-9.648200508114949e-18
-0.0005841513831563997
-5.404933391627433e-18
-0.0005841513831563996
4.001204161568052e-18
-0.0005841513831563985
4.185154324161152e-18
-0.0005841513831563993
-1.576595141625163e-18
-0.0005841513831563998
1.319484656021779e-18
-0.0005841513831563995
5.809233666385503e-18
-0.0005841513831564011
1.672694780369432e-18
-0.0005841513831564019
2.292646105257734e-19
-0.0005841513831564006
2.780153556655947e-18
-0.0005841513831564007
-1.440158069679083e-18
-0.000584151383156402
1.82250309468949e-18
-0.0005841513831564013
3.496926997431333e-18
-0.000584151383156402
-3.409300684048775e-18
-0.000584151383156403
-9.026524802632039e-19
-0.0005841513831564027
8.119850131649333e-18
-0.000584151383156403
-5.453560237053372e-19
-0.0005841513831564048
3.01904736406981e-18
-0.0005841513831564044
5.313985044357921e-18
-0.0005841513831564048
-2.296971913782146e-18
-0.0005841513831564057
-2.104926542808155e-18
-0.0005841513831564059
1.63766986105614e-18
-0.0005841513831564059
2.988525330720315e-18
-0.0005841513831564067
5.08076637078368e-18
-0.0005841513831564072
3.190278327936794e-18
-0.0005841513831564074
3.398740374916125e-18
-0.0005841513831564076
-7.637087031763193e-20
-0.0005841513831564093
1.282934662103252e-18
-0.000584151383156411
5.462240733272653e-18
-0.0005841513831564107
7.40336911945238e-18
-0.0005841513831564107
-1.80423451507829e-18
-0.0005841513831564121
1.451495003561234e-18
-0.0005841513831564119
5.725712521371813e-18
-0.0005841513831564113
-3.592030411602428e-18
-0.0005841513831564132
5.378308103125764e-19
-0.0005841513831564135
3.72527794088227e-18
-0.0005841513831564128
1.69388526986318e-18
-0.0005841513831564128
-4.240401085948092e-18
-0.0005841513831564132
-7.664918198363893e-18
-0.0005841513831564112
-4.60136471218077e-18
-2.608693577725676e-17
-0.0005650194979149596
2.945739860822808e-18
-0.0005650194979149582
9.549709127318122e-18
-0.0005650194979149558
-1.917410517096291e-17
-0.0005650194979149542
3.80208316029031e-18
-0.0005650194979149525
-9.454916594487483e-18
-0.0005650194979149513
-4.893682587862611e-19
-0.0005650194979149511
-3.604809790100207e-18
-0.0005650194979149499
-2.383246237768142e-18
-0.0005650194979149492
-5.91061343889971e-18
-0.000565019497914948
-9.219914271338262e-18
-0.0005650194979149497
-2.377877960251398e-18
-0.0005650194979149481
3.233910422039819e-18
-0.0005650194979149492
3.900758430231952e-18
-0.000565019497914949
1.177118702123769e-18
-0.000565019497914949
2.025300886703054e-18
-0.0005650194979149491
-2.87815324425903e-19
-0.0005650194979149483
-2.892381907920371e-19
-0.0005650194979149476
-1.030192131816414e-17
-0.0005650194979149499
-3.118489099589592e-18
-0.0005650194979149515
5.573492441301789e-18
-0.0005650194979149494
2.153570265979247e-18
-0.0005650194979149491
-1.84474073112254e-18
-0.0005650194979149505
2.759865909946128e-18
-0.0005650194979149504
5.778800379911279e-18
-0.0005650194979149509
2.120745006609142e-18
-0.0005650194979149526
1.970285489313461e-18
-0.0005650194979149513
1.523474809236997e-18
-0.0005650194979149514
-1.302727760441461e-18
-0.0005650194979149529
3.284367060188139e-18
-0.0005650194979149523
2.791312953074281e-18
-0.0005650194979149529
-2.844844387262597e-18
-0.0005650194979149538
-1.153735995115441e-19
-0.0005650194979149535
7.928281335346465e-18
-0.0005650194979149543
4.413625323336563e-19
-0.0005650194979149555
4.188566308276538e-18
-0.0005650194979149543
4.1384124619037e-18
-0.0005650194979149545
-2.102608323699102e-18
-0.0005650194979149572
4.366376869823029e-19
-0.0005650194979149565
8.985750360718217e-19
-0.000565019497914955
1.44294846141558e-18
-0.0005650194979149571
7.320444914019802e-18
-0.000565019497914958
4.08461315204291e-18
-0.0005650194979149567
2.157419924377432e-18
-0.0005650194979149582
1.523448514156623e-18
-0.0005650194979149603
3.295508398488837e-18
-0.0005650194979149608
6.086431751835974e-18
-0.0005650194979149609
7.528961307659914e-18
-0.0005650194979149612
-1.596934792591303e-18
-0.0005650194979149628
3.105198940428985e-18
-0.000565019497914962
4.841277057243162e-18
-0.0005650194979149622
-3.311274579836154e-18
-0.0005650194979149644
2.716985843034905e-18
-0.0005650194979149644
3.683398095872576e-18
-0.0005650194979149636
9.115863838180241e-19
-0.0005650194979149641
-3.684913334452514e-18
-0.0005650194979149653
-6.579134995022545e-18
-0.000565019497914963
-6.95712672427962e-18
-2.356831307706644e-17
-0.0005573347136795534
-4.061297633183876e-18
-0.0005573347136795499
5.878421776881303e-18
-0.0005573347136795489
-2.020531287853482e-17
-0.0005573347136795464
1.299095613006234e-18
-0.0005573347136795455
-1.030121052958067e-17
-0.0005573347136795446
-1.361796250936194e-18
-0.000557334713679544
-4.350621087890636e-18
-0.0005573347136795425
-3.90078245723198e-18
-0.0005573347136795415
-6.804185257479798e-18
-0.0005573347136795413
-9.357821675756551e-18
-0.0005573347136795431
-5.626959497338832e-19
-0.000557334713679541
1.033325097691122e-18
-0.0005573347136795417
4.63056080425994e-18
-0.0005573347136795415
9.677561031646818e-19
-0.0005573347136795416
2.020537840789723e-18
-0.00055733471367954
-1.935964657003832e-18
-0.0005573347136795407
3.982377804306381e-19
-0.0005573347136795404
-1.06201700809426e-17
-0.0005573347136795436
6.795276811908449e-20
-0.000557334713679543
5.038068650643106e-18
-0.0005573347136795417
8.622666827642435e-19
-0.0005573347136795423
-1.293826077228966e-18
-0.0005573347136795436
3.9947291037266e-18
-0.0005573347136795416
3.820449281334029e-18
-0.0005573347136795438
4.260873027057787e-18
-0.0005573347136795448
2.945422997975257e-18
-0.0005573347136795437
4.565075744981887e-19
-0.000557334713679543
-1.922454987239258e-18
-0.0005573347136795449
5.100100359945191e-18
-0.0005573347136795443
2.292674773104467e-18
-0.0005573347136795459
-1.32960651505053e-18
-0.0005573347136795469
8.17344710916356e-19
-0.0005573347136795461
7.135114209228465e-18
-0.0005573347136795465
9.114823034848028e-19
-0.000557334713679548
5.657481710221681e-18
-0.000557334713679547
3.188505006995461e-18
-0.0005573347136795477
-1.455935341586119e-18
-0.0005573347136795492
1.941456365415474e-18
-0.0005573347136795491
7.741966477461089e-19
-0.0005573347136795486
8.975522037308136e-19
-0.0005573347136795497
8.527621183264018e-18
-0.0005573347136795499
4.231336006480922e-18
-0.0005573347136795497
2.080168918926521e-18
-0.0005573347136795514
3.257354082162232e-18
-0.0005573347136795526
4.508025039666722e-18
-0.0005573347136795532
6.774101706996129e-18
-0.0005573347136795538
7.870917222425384e-18
-0.0005573347136795542
-1.097457681829733e-18
-0.0005573347136795553
4.232018791772382e-18
-0.0005573347136795549
4.43343856368127e-18
-0.0005573347136795556
-2.62389620696008e-18
-0.0005573347136795577
4.731753156227187e-18
-0.0005573347136795571
3.044793731840038e-18
-0.0005573347136795568
6.035319539110258e-19
-0.0005573347136795578
-2.598775883692366e-18
-0.0005573347136795585
-5.856106459830754e-18
-0.0005573347136795564
-9.050763091179467e-18
-1.939389596274212e-17
-0.0005634180185524293
-1.361629335651999e-17
-0.0005634180185524253
1.799712337565844e-18
-0.0005634180185524235
-2.200678907213119e-17
-0.0005634180185524216
-5.769004328968167e-19
-0.0005634180185524209
-1.107747767896457e-17
-0.000563418018552419
-3.196626221928447e-18
-0.0005634180185524188
-4.580273199851404e-18
-0.0005634180185524172
-5.476248275086687e-18
-0.0005634180185524166
-7.269174397755982e-18
-0.0005634180185524164
-9.5109565022465e-18
-0.0005634180185524183
1.287151374634714e-18
-0.000563418018552417
-2.363868932288378e-19
-0.000563418018552417
4.683309897414744e-18
-0.0005634180185524165
5.176160231278259e-19
-0.0005634180185524174
2.797975108883188e-18
-0.0005634180185524157
-3.623207150371308e-18
-0.0005634180185524157
3.55704881153647e-19
-0.0005634180185524159
-1.039919272957946e-17
-0.0005634180185524188
3.02430883057078e-18
-0.0005634180185524188
4.987824051395611e-18
-0.0005634180185524172
-7.880317565136469e-19
-0.0005634180185524176
-8.42311963169801e-19
-0.0005634180185524185
4.884924143929355e-18
-0.0005634180185524181
3.469595348762494e-18
-0.000563418018552419
5.249675033426747e-18
-0.00056341801855242
3.969879608140499e-18
-0.0005634180185524189
-5.647251844062226e-19
-0.0005634180185524202
-5.489026233936794e-19
-0.0005634180185524201
4.988467333785233e-18
-0.0005634180185524198
2.017566706636001e-18
-0.0005634180185524215
2.943591995984763e-19
-0.0005634180185524222
1.431291408613671e-18
-0.0005634180185524216
6.629954992752531e-18
-0.0005634180185524225
1.884077085219875e-18
-0.0005634180185524232
6.265081987081076e-18
-0.0005634180185524221
2.050387067351179e-18
-0.0005634180185524234
-2.502806068394718e-19
-0.0005634180185524249
3.391331027330436e-18
-0.0005634180185524247
5.291147335810769e-19
-0.0005634180185524241
3.420920234248607e-19
-0.0005634180185524255
9.94193250393705e-18
-0.0005634180185524255
4.189080887909809e-18
-0.0005634180185524254
1.995353163004387e-18
-0.0005634180185524265
4.450132294960576e-18
-0.000563418018552428
5.953576891527013e-18
-0.000563418018552429
7.823340046777404e-18
-0.0005634180185524293
8.010727780065141e-18
-0.0005634180185524299
-4.678066562621135e-19
-0.0005634180185524312
5.624182193273198e-18
-0.0005634180185524307
3.896269543126658e-18
-0.0005634180185524317
-1.532886822322581e-18
-0.000563418018552434
7.020749029267765e-18
-0.0005634180185524335
2.450114863440864e-18
-0.0005634180185524335
6.746393453725054e-19
-0.0005634180185524341
-1.881151570080537e-18
-0.0005634180185524362
-3.875277895468367e-18
-0.0005634180185524341
-1.115016315553008e-17
-1.473161783371662e-17
-0.0005889250598046751
-2.487484078993968e-17
-0.0005889250598046707
-2.687256399610408e-18
-0.0005889250598046707
-2.202741957276683e-17
-0.0005889250598046671
-4.175716813971209e-18
-0.0005889250598046664
-1.178407934990014e-17
-0.0005889250598046637
-5.948524287195164e-18
-0.0005889250598046637
-4.602087544398919e-18
-0.000588925059804662
-7.228178106722898e-18
-0.0005889250598046624
-6.713381384729036e-18
-0.0005889250598046618
-1.006267998858255e-17
-0.0005889250598046636
3.149275024175399e-18
-0.0005889250598046622
-1.598722071755755e-18
-0.0005889250598046621
4.578019304172427e-18
-0.0005889250598046613
-2.478485469386873e-19
-0.0005889250598046613
2.751862314866889e-18
-0.0005889250598046604
-4.622421806774013e-18
-0.0005889250598046605
4.548654958143513e-19
-0.0005889250598046619
-8.995194382384651e-18
-0.0005889250598046638
5.001772246727046e-18
-0.0005889250598046636
4.824255315980575e-18
-0.0005889250598046623
-2.14528747320424e-18
-0.0005889250598046628
-3.981781817712464e-19
-0.0005889250598046634
5.548641174103988e-18
-0.0005889250598046617
1.79085245443964e-18
-0.0005889250598046643
7.817045692184718e-18
-0.0005889250598046648
4.487419849771165e-18
-0.0005889250598046641
-1.227672007525941e-18
-0.000588925059804664
-6.470386681481137e-19
-0.0005889250598046655
6.495164961630313e-18
-0.000588925059804665
1.616948507308788e-18
-0.0005889250598046667
1.856427331771831e-18
-0.0005889250598046674
2.198459599173723e-18
-0.000588925059804667
6.2474161663349e-18
-0.0005889250598046679
2.867961826847605e-18
-0.0005889250598046685
6.870517665979245e-18
-0.0005889250598046676
1.220688396826026e-18
-0.000588925059804669
1.078104859178527e-18
-0.0005889250598046701
4.412857245396911e-18
-0.0005889250598046701
4.812743556039384e-19
-0.0005889250598046697
-1.524526091051622e-19
-0.000588925059804671
1.126785486194329e-17
-0.000588925059804671
4.14492037015619e-18
-0.0005889250598046706
1.554969815535755e-18
-0.0005889250598046725
6.464145597587927e-18
-0.0005889250598046741
7.546003637424728e-18
-0.0005889250598046747
8.439600509864766e-18
-0.0005889250598046757
8.817218996756284e-18
-0.0005889250598046763
2.222732694207079e-19
-0.0005889250598046774
6.811183635612388e-18
-0.0005889250598046769
3.274220761220632e-18
-0.0005889250598046782
-1.811732949316545e-19
-0.0005889250598046799
8.709044892989043e-18
-0.0005889250598046804
2.951095885985095e-18
-0.0005889250598046804
6.903660847150325e-19
-0.0005889250598046821
-2.451339869400483e-19
-0.0005889250598046827
-3.26266051923522e-18
-0.0005889250598046804
-1.331940262464108e-17
-8.68365866790025e-18
-0.0006413039938172316
-3.797753904727741e-17
-0.0006413039938172269
-7.501783400627743e-18
-0.0006413039938172259
-2.307988816654425e-17
-0.0006413039938172227
-7.373162652391522e-18
-0.000641303993817222
-1.252624968898222e-17
-0.000641303993817219
-8.92864968632099e-18
-0.0006413039938172187
-4.826049807245994e-18
-0.0006413039938172164
-9.567882813206719e-18
-0.0006413039938172156
-7.525716097490492e-18
-0.000641303993817216
-9.573287011466465e-18
-0.0006413039938172178
4.9064166760518e-18
-0.0006413039938172164
-3.019752386286614e-18
-0.0006413039938172163
4.492668758824547e-18
-0.0006413039938172159
-7.15422788259654e-19
-0.0006413039938172154
2.243793408267857e-18
-0.0006413039938172151
-4.882226656545337e-18
-0.0006413039938172152
4.780513457226531e-19
-0.0006413039938172156
-8.73829285528345e-18
-0.0006413039938172189
8.398077168959129e-18
-0.0006413039938172183
4.167726240804156e-18
-0.0006413039938172174
-3.071112535028967e-18
-0.0006413039938172179
1.899822984027698e-19
-0.0006413039938172183
5.82489392763119e-18
-0.0006413039938172173
8.739053151497638e-19
-0.0006413039938172194
9.823495153407751e-18
-0.00064130399381722
5.105406698239607e-18
-0.0006413039938172194
-1.785719787123186e-18
-0.0006413039938172207
7.373211912262736e-19
-0.0006413039938172205
6.375847442914035e-18
-0.0006413039938172204
1.537350358102758e-18
-0.0006413039938172223
3.621952221156383e-18
-0.0006413039938172228
2.755035937281143e-18
-0.0006413039938172226
6.04528275549282e-18
-0.0006413039938172233
3.632463350317084e-18
-0.0006413039938172237
7.294463152782548e-18
-0.0006413039938172231
6.379307587252531e-19
-0.0006413039938172248
2.678226463213199e-18
-0.0006413039938172257
5.33781250212287e-18
-0.0006413039938172257
5.168244392334716e-19
-0.0006413039938172255
-3.49759521975829e-19
-0.000641303993817227
1.277755607014613e-17
-0.0006413039938172273
4.385122531882573e-18
-0.0006413039938172264
6.349085691692398e-19
-0.0006413039938172278
7.947758271861261e-18
-0.0006413039938172295
9.227040780801672e-18
-0.000641303993817231
9.880853687083557e-18
-0.0006413039938172311
8.843773063884862e-18
-0.0006413039938172321
1.245261958645371e-18
-0.0006413039938172332
7.890378154190225e-18
-0.0006413039938172337
3.651664986972879e-18
-0.0006413039938172355
1.774188751740527e-18
-0.000641303993817237
1.023780958519877e-17
-0.0006413039938172372
3.0774334005814e-18
-0.0006413039938172384
1.869716747187652e-18
-0.0006413039938172397
1.089967003759791e-18
-0.0006413039938172406
-2.504149753826996e-18
-0.000641303993817239
-1.490716793895858e-17
-2.847111790396339e-18
-0.0007272956754523389
-5.321366978453937e-17
-0.0007272956754523346
-1.186047304456599e-17
-0.0007272956754523332
-2.443248439736655e-17
-0.0007272956754523295
-1.10702046555791e-17
-0.0007272956754523285
-1.35689647615921e-17
-0.0007272956754523251
-1.218443844397379e-17
-0.0007272956754523244
-5.601604709696344e-18
-0.0007272956754523218
-1.22052049130863e-17
-0.0007272956754523219
-7.378177581476331e-18
-0.0007272956754523221
-9.323509640215806e-18
-0.000727295675452324
6.830619581960319e-18
-0.0007272956754523224
-4.541336446217373e-18
-0.0007272956754523223
4.293059245938987e-18
-0.000727295675452321
-1.967630415246543e-18
-0.0007272956754523213
2.424242443175003e-18
-0.0007272956754523203
-5.855968864619489e-18
-0.0007272956754523208
9.811710060180235e-19
-0.0007272956754523221
-7.395903720896866e-18
-0.0007272956754523246
1.085384606046111e-17
-0.0007272956754523237
3.345573317533312e-18
-0.0007272956754523234
-3.402298274277348e-18
-0.0007272956754523237
5.726966905795223e-19
-0.0007272956754523234
5.488201421053971e-18
-0.0007272956754523231
6.406974116101975e-19
-0.0007272956754523251
1.182737006238246e-17
-0.0007272956754523257
5.696931342780991e-18
-0.0007272956754523253
-2.004655461560704e-18
-0.0007272956754523258
1.18722459421134e-18
-0.0007272956754523264
6.965301462358387e-18
-0.0007272956754523265
1.665472251564078e-18
-0.0007272956754523286
5.550399550962039e-18
-0.000727295675452329
3.214254230378816e-18
-0.0007272956754523291
6.185283035499541e-18
-0.0007272956754523299
4.553788934182773e-18
-0.0007272956754523302
7.569301777545523e-18
-0.00072729567545233
4.358097939169151e-19
-0.0007272956754523316
4.252062800541136e-18
-0.0007272956754523323
5.947412290356762e-18
-0.0007272956754523323
4.804956162395584e-19
-0.0007272956754523325
-1.591378780610925e-19
-0.000727295675452334
1.424665687432679e-17
-0.0007272956754523343
4.65016756926979e-18
-0.0007272956754523343
6.651859602917678e-19
-0.000727295675452336
9.735101643258203e-18
-0.0007272956754523376
1.093345825943391e-17
-0.0007272956754523386
1.082165582636298e-17
-0.0007272956754523393
9.505917354223789e-18
-0.000727295675452341
2.839070080878684e-18
-0.0007272956754523419
8.857303920945834e-18
-0.0007272956754523424
3.999642817312873e-18
-0.0007272956754523449
4.333787618165353e-18
-0.0007272956754523467
1.2052983746455e-17
-0.0007272956754523475
3.811457276151601e-18
-0.0007272956754523485
2.959826340544402e-18
-0.0007272956754523498
2.412455964183262e-18
-0.0007272956754523508
-1.472171714432435e-18
-0.0007272956754523493
-1.637809241281517e-17
2.020126167239203e-18
-0.0008494815985422943
-7.007536103766842e-17
-0.0008494815985422904
-1.585982385471511e-17
-0.0008494815985422877
-2.710763521742539e-17
-0.0008494815985422838
-1.500975784222212e-17
-0.0008494815985422821
-1.524414435700117e-17
-0.0008494815985422784
-1.592013592249751e-17
-0.0008494815985422772
-6.79839288062435e-18
-0.0008494815985422739
-1.543179885667034e-17
-0.0008494815985422745
-6.648916890680033e-18
-0.0008494815985422749
-8.912093304119198e-18
-0.000849481598542277
8.885608392750555e-18
-0.0008494815985422752