/*--------------------------------*- C++ -*----------------------------------*\
| =========                 |                                                 |
| \\      /  F ield         | OpenFOAM: The Open Source CFD Toolbox           |
|  \\    /   O peration     | Version:  v1812                                 |
|   \\  /    A nd           | Web:      www.OpenFOAM.com                      |
|    \\/     M anipulation  |                                                 |
\*---------------------------------------------------------------------------*/
FoamFile
{
    version     2.0;
    format      ascii;
    class       volVectorField;
    location    "20000";
    object      U;
}
// * * * * * * * * * * * * * * * * * * * * * * * * * * * * * * * * * * * * * //

dimensions      [0 1 -1 0 0 0 0];


internalField   nonuniform List<vector> 
3770
(
(-0.9161460656727373 3.020915665149148e-16 -1.066045684200486e-08)
(-0.9161460656727418 1.994867486701452e-17 -1.066043095125794e-08)
(-0.9161460656727434 -1.1357983077426e-16 -1.066032333796841e-08)
(-0.9161460656727382 7.84723704895298e-17 -1.066047046196263e-08)
(-0.9161460656727448 -7.018731964225203e-17 -1.066027756127731e-08)
(-0.9161460656727373 3.428566810437729e-17 -1.066049460057712e-08)
(-0.9161460656727441 -2.983634164425709e-17 -1.06602470428303e-08)
(-0.9161460656727367 2.138492183457986e-17 -1.066050320966846e-08)
(-0.9161460656727435 -3.929568412324269e-17 -1.066023077390192e-08)
(-0.9161460656727355 1.90396285765584e-17 -1.066049938570815e-08)
(-0.9161460656727415 8.941619516811972e-18 -1.06602246478246e-08)
(-0.9161460656727364 5.706501321997413e-18 -1.066048736430112e-08)
(-0.9161460656727426 -3.185668750199358e-18 -1.066022475117284e-08)
(-0.9161460656727372 8.407665077728411e-18 -1.066047056315887e-08)
(-0.9161460656727421 -1.450301876829369e-17 -1.066022820073809e-08)
(-0.9161460656727373 9.606805437346325e-18 -1.066045137608485e-08)
(-0.9161460656727412 -1.325761281680275e-17 -1.066023304946193e-08)
(-0.9161460656727373 -6.408926412208101e-18 -1.066043137599571e-08)
(-0.9161460656727382 -6.076522863809015e-18 -1.066023805798429e-08)
(-0.916146065672736 -1.317466541047464e-18 -1.066041154257917e-08)
(-0.9161460656727403 3.95776411186936e-18 -1.06602424874691e-08)
(-0.916146065672737 1.121724251663192e-17 -1.066039244473472e-08)
(-0.9161460656727393 -6.631167701649796e-18 -1.066024593962937e-08)
(-0.9161460656727378 2.384492616684664e-18 -1.066037437642538e-08)
(-0.9161460656727406 8.003306857228236e-18 -1.066024824266978e-08)
(-0.916146065672737 7.358098729736902e-18 -1.066035745687099e-08)
(-0.916146065672741 -3.976219367234577e-18 -1.066024936754022e-08)
(-0.9161460656727385 2.139589368257587e-18 -1.066034169805994e-08)
(-0.9161460656727399 3.890572968501005e-18 -1.066024936999704e-08)
(-0.9161460656727393 -8.362144290726114e-18 -1.066032705517438e-08)
(-0.9161460656727407 -8.581811696548745e-18 -1.06602483565215e-08)
(-0.9161460656727378 -9.754293286314145e-18 -1.066031345283542e-08)
(-0.9161460656727408 2.454941562065609e-17 -1.066024645678753e-08)
(-0.9161460656727395 9.528494796921919e-18 -1.066030081206866e-08)
(-0.91614606567274 -9.717360988516852e-18 -1.066024381484758e-08)
(-0.91614606567274 -1.247256489633361e-17 -1.066028905896594e-08)
(-0.916146065672741 3.633235269555315e-18 -1.066024058256889e-08)
(-0.9161460656727393 1.767101304729669e-17 -1.066027814382221e-08)
(-0.916146065672741 -9.922615365393968e-18 -1.066023692454357e-08)
(-0.9161460656727397 -8.531880748958386e-19 -1.066026805222102e-08)
(-0.9161460656727418 2.13878927057766e-17 -1.066023303425093e-08)
(-0.9161460656727409 7.59784761678977e-18 -1.066025883233928e-08)
(-0.9161460656727428 1.500057591763077e-18 -1.066022916440877e-08)
(-0.9161460656727416 -5.518626951149558e-18 -1.066025063524278e-08)
(-0.9161460656727426 -1.085912093654433e-17 -1.066022567987809e-08)
(-0.9161460656727416 3.514777753237904e-18 -1.066024378760062e-08)
(-0.9161460656727435 2.094451204670202e-17 -1.06602231548505e-08)
(-0.916146065672743 -7.332249336599495e-18 -1.066023890824208e-08)
(-0.9161460656727426 -7.432580901902256e-18 -1.066022251720683e-08)
(-0.9161460656727438 1.98829534173053e-17 -1.066023707622882e-08)
(-0.9161460656727435 -1.178082129173958e-17 -1.066022522193575e-08)
(-0.9161460656727426 -1.761574364370316e-18 -1.066023998985521e-08)
(-0.9161460656727434 1.47873589387683e-17 -1.066023350167036e-08)
(-0.9161460656727433 -1.190013426291346e-17 -1.066025027111312e-08)
(-0.9161460656727438 4.384297556148507e-18 -1.066024768249993e-08)
(-0.9161460656727418 -4.791727632495358e-17 -1.066025455633842e-08)
(-0.9161460656727426 1.525583826357324e-17 -1.066027524607174e-08)
(-0.9161460656727319 -2.029034527643558e-16 -1.066037493813273e-08)
(-0.8279274516858678 5.879570941593374e-16 -2.178299827379255e-08)
(-0.8279274516858623 1.820279296307395e-16 -2.178304492183186e-08)
(-0.827927451685873 -3.038718770167685e-16 -2.178275362891884e-08)
(-0.8279274516858591 1.666705478383196e-16 -2.178313567573489e-08)
(-0.8279274516858746 -1.235733649060364e-16 -2.178266599739471e-08)
(-0.8279274516858594 7.564367830639005e-17 -2.178317127029545e-08)
(-0.8279274516858747 -5.888256452458515e-17 -2.17826198516991e-08)
(-0.8279274516858599 1.723765692214266e-17 -2.178317344317033e-08)
(-0.8279274516858731 -9.318674342463749e-17 -2.178260022645278e-08)
(-0.8279274516858586 -4.819482853224662e-17 -2.178315445252553e-08)
(-0.8279274516858672 -5.752225020895034e-18 -2.178259678763368e-08)
(-0.8279274516858574 6.171301941627836e-17 -2.178312294593907e-08)
(-0.8279274516858701 3.098985433460655e-17 -2.178260236636989e-08)
(-0.8279274516858597 2.689396311582167e-17 -2.178308481564826e-08)
(-0.8279274516858703 2.091629667054603e-18 -2.178261216720872e-08)
(-0.8279274516858613 1.714386125341293e-18 -2.178304393919042e-08)
(-0.8279274516858691 -1.141823492378595e-17 -2.178262310158164e-08)
(-0.8279274516858616 -1.057090357915923e-16 -2.178300276580824e-08)
(-0.8279274516858628 -7.961919979001526e-17 -2.178263328056199e-08)
(-0.8279274516858574 4.450366394612494e-17 -2.178296275319751e-08)
(-0.827927451685866 4.29573079047348e-17 -2.178264164149496e-08)
(-0.8279274516858607 -8.228824800913194e-18 -2.178292469118225e-08)
(-0.8279274516858638 3.95950631057287e-18 -2.178264767010126e-08)
(-0.8279274516858608 5.752852951691324e-17 -2.178288893489307e-08)
(-0.8279274516858681 -2.184142029022136e-19 -2.178265120753324e-08)
(-0.8279274516858602 -5.51440232357501e-19 -2.17828555698849e-08)
(-0.8279274516858668 4.227099151312998e-17 -2.17826523107464e-08)
(-0.8279274516858641 -2.067172037462274e-17 -2.17828245267905e-08)
(-0.8279274516858653 -1.246981706678767e-19 -2.178265116064298e-08)
(-0.8279274516858635 4.704255632581089e-17 -2.178279565755382e-08)
(-0.8279274516858685 -6.334888605064364e-17 -2.17826480045417e-08)
(-0.8279274516858607 -5.080216723667205e-17 -2.178276878119949e-08)
(-0.8279274516858671 1.218093563796585e-16 -2.178264311774912e-08)
(-0.8279274516858661 4.244132838696373e-18 -2.178274371918851e-08)
(-0.827927451685866 -1.658583787506421e-17 -2.17826367850875e-08)
(-0.8279274516858656 2.105835364426741e-17 -2.178272031192655e-08)
(-0.8279274516858699 -2.101120599944219e-17 -2.178262929514595e-08)
(-0.8279274516858649 9.196048536503375e-18 -2.178269844030975e-08)
(-0.8279274516858676 -6.689346147750344e-19 -2.178262094488898e-08)
(-0.827927451685865 4.225732730928527e-17 -2.178267804390372e-08)
(-0.82792745168587 5.941004592520319e-17 -2.178261206101582e-08)
(-0.8279274516858675 2.690620771107301e-17 -2.1782659154695e-08)
(-0.8279274516858722 5.504081313549621e-17 -2.178260304563186e-08)
(-0.8279274516858702 -2.798091808850596e-17 -2.17826419546029e-08)
(-0.8279274516858707 -4.014255520485926e-17 -2.178259445273033e-08)
(-0.8279274516858686 2.548508486226343e-17 -2.17826268809964e-08)
(-0.827927451685873 9.839580575768899e-17 -2.178258713246135e-08)
(-0.8279274516858736 -2.829562405698024e-17 -2.178261480374158e-08)
(-0.8279274516858711 -1.344018553544874e-17 -2.178258246861416e-08)
(-0.8279274516858735 8.903150938964899e-17 -2.178260733076215e-08)
(-0.8279274516858747 -2.516873010734442e-17 -2.178258275857788e-08)
(-0.8279274516858725 -4.41989540096735e-17 -2.178260728619349e-08)
(-0.827927451685873 1.982926294530476e-17 -2.17825919380814e-08)
(-0.8279274516858733 2.32301799623541e-17 -2.178261974310597e-08)
(-0.8279274516858757 -1.312303645491908e-17 -2.178261409212171e-08)
(-0.8279274516858696 -1.503099899321373e-16 -2.178264548633768e-08)
(-0.8279274516858722 -6.76231068032931e-17 -2.178268498469039e-08)
(-0.8279274516858609 -5.108335913554085e-16 -2.178282911759102e-08)
(-0.7154311889949746 7.52776487190496e-16 -3.581241934972854e-08)
(-0.7154311889949578 3.840710896663974e-16 -3.581275173907207e-08)
(-0.715431188994979 -5.225034873844666e-16 -3.581196898165621e-08)
(-0.7154311889949567 2.513006239961263e-16 -3.581285817665966e-08)
(-0.7154311889949789 -2.044376249271378e-16 -3.58118839498448e-08)
(-0.7154311889949574 1.363028816931293e-16 -3.581285891010549e-08)
(-0.7154311889949778 -1.051806875059761e-16 -3.581185965249745e-08)
(-0.7154311889949576 9.680129750184014e-18 -3.581281956641725e-08)
(-0.7154311889949757 -1.530000009470568e-16 -3.581186257921624e-08)
(-0.7154311889949572 -2.156726746801251e-16 -3.581276089038167e-08)
(-0.715431188994968 -1.068975493048875e-16 -3.581187847926237e-08)
(-0.7154311889949534 1.797802556177209e-16 -3.581269326055516e-08)
(-0.7154311889949703 1.241757042000351e-16 -3.58118994971559e-08)
(-0.7154311889949568 4.537630969381137e-17 -3.581262272335568e-08)
(-0.7154311889949703 3.939957908556616e-17 -3.581192095120065e-08)
(-0.7154311889949596 3.167497988490708e-17 -3.581255288744961e-08)
(-0.7154311889949705 8.626017531459138e-18 -3.581194010396085e-08)
(-0.7154311889949613 -2.90378179869754e-16 -3.581248580071758e-08)
(-0.7154311889949632 -2.485324432571169e-16 -3.581195549312882e-08)
(-0.7154311889949544 1.102918970042736e-16 -3.581242248539012e-08)
(-0.7154311889949656 1.593299158988112e-16 -3.581196648865991e-08)
(-0.7154311889949602 -5.963840475067031e-17 -3.58123633180989e-08)
(-0.7154311889949639 1.903801462855376e-17 -3.581197297797426e-08)
(-0.7154311889949595 1.920401111732692e-16 -3.581230828294704e-08)
(-0.7154311889949692 -2.947831039961714e-17 -3.581197515907755e-08)
(-0.7154311889949594 -2.88694291655306e-17 -3.581225714981114e-08)
(-0.715431188994967 1.406807797743892e-16 -3.581197339427051e-08)
(-0.7154311889949636 -5.766716344145895e-17 -3.581220958809046e-08)
(-0.715431188994966 -1.444152239532109e-17 -3.581196812397971e-08)
(-0.7154311889949625 1.427082450664469e-16 -3.581216523517323e-08)
(-0.7154311889949702 -1.648304358579819e-16 -3.581195981467867e-08)
(-0.7154311889949601 -9.885478866980193e-17 -3.581212373911357e-08)
(-0.7154311889949679 3.103588468696585e-16 -3.581194892495973e-08)
(-0.7154311889949664 -3.693177773385603e-17 -3.581208478232766e-08)
(-0.7154311889949673 -2.018750499764285e-17 -3.581193589419294e-08)
(-0.715431188994966 1.532341169053372e-16 -3.58120480912706e-08)
(-0.7154311889949728 -1.064321657099191e-16 -3.581192113310472e-08)
(-0.7154311889949652 -7.678411253935257e-17 -3.58120134473647e-08)
(-0.7154311889949683 6.011127611576712e-17 -3.581190503328516e-08)
(-0.7154311889949657 1.34075171159198e-16 -3.581198069196764e-08)
(-0.7154311889949715 9.360128678716051e-17 -3.581188797258679e-08)
(-0.7154311889949688 5.380144181740653e-17 -3.581194974217683e-08)
(-0.7154311889949735 1.524941683960112e-16 -3.581187035186407e-08)
(-0.7154311889949712 -4.70044113128582e-17 -3.581192062295243e-08)
(-0.7154311889949732 -6.813390252066502e-17 -3.581185264159602e-08)
(-0.7154311889949699 9.972990440547632e-17 -3.581189353518728e-08)
(-0.7154311889949757 2.437095563753687e-16 -3.581183548941356e-08)
(-0.715431188994977 -1.109961777965021e-16 -3.581186898984235e-08)
(-0.7154311889949735 -6.752590365546373e-18 -3.581181992071477e-08)
(-0.7154311889949764 2.6083888969168e-16 -3.581184808913741e-08)
(-0.7154311889949794 -1.019410380664027e-16 -3.581180774761938e-08)
(-0.7154311889949746 -1.339249526207336e-16 -3.581183314282157e-08)
(-0.7154311889949767 1.000412282989696e-16 -3.581180262009281e-08)
(-0.7154311889949769 8.412474327623648e-17 -3.581182949335018e-08)
(-0.7154311889949803 -1.227359668936571e-16 -3.581181138086118e-08)
(-0.7154311889949724 -2.795516340818287e-16 -3.581184580725312e-08)
(-0.7154311889949768 -6.88846775961894e-17 -3.581187739343424e-08)
(-0.7154311889949667 -9.448492481723944e-16 -3.581205240471003e-08)
(-0.6506544080001407 6.881645701386989e-16 -4.378519384348547e-08)
(-0.650654408000118 5.24171938457715e-16 -4.378603306329532e-08)
(-0.6506544080001432 -6.764383925179133e-16 -4.378477096084964e-08)
(-0.6506544080001159 2.340537167976109e-16 -4.378606128967736e-08)
(-0.6506544080001402 -2.711912878286338e-16 -4.378474325254267e-08)
(-0.6506544080001146 1.431908060885217e-16 -4.378600587062095e-08)
(-0.6506544080001372 -1.187155072451227e-16 -4.378475628714524e-08)
(-0.6506544080001146 -1.428301368805753e-18 -4.378592576308925e-08)
(-0.6506544080001349 -1.875373417025027e-16 -4.378478434327724e-08)
(-0.6506544080001139 -3.431931626883903e-16 -4.378583617203355e-08)
(-0.6506544080001301 -1.916393925959744e-16 -4.378481709398315e-08)
(-0.6506544080001132 2.126941508625976e-16 -4.378574454914484e-08)
(-0.65065440800013 2.041255652672736e-16 -4.378484896742815e-08)
(-0.6506544080001159 7.394574152656132e-17 -4.378565506619668e-08)
(-0.6506544080001297 6.955292008430496e-17 -4.378487685412994e-08)
(-0.6506544080001172 2.612918363776477e-17 -4.378556997464726e-08)
(-0.6506544080001296 3.079699804673526e-17 -4.37848991854871e-08)
(-0.6506544080001182 -3.907953580887934e-16 -4.378549030076844e-08)
(-0.6506544080001246 -3.281137613715415e-16 -4.378491537896821e-08)
(-0.6506544080001173 1.522447080487768e-16 -4.378541630209773e-08)
(-0.6506544080001264 2.143995518030782e-16 -4.378492545484968e-08)
(-0.6506544080001184 -8.215947405173884e-17 -4.378534779403691e-08)
(-0.6506544080001258 4.150148481114139e-17 -4.378492977539507e-08)
(-0.6506544080001199 2.591104323710631e-16 -4.378528435597464e-08)
(-0.6506544080001273 -9.180586347975031e-18 -4.378492887648882e-08)
(-0.6506544080001212 -1.704149258435549e-17 -4.378522547194806e-08)
(-0.6506544080001284 1.667221529870425e-16 -4.378492336013192e-08)
(-0.6506544080001212 -6.627931487717722e-17 -4.378517061178028e-08)
(-0.6506544080001279 1.291006738083091e-18 -4.378491383631391e-08)
(-0.6506544080001232 1.751788175844697e-16 -4.378511927250907e-08)
(-0.6506544080001283 -1.949421230350184e-16 -4.378490089185267e-08)
(-0.6506544080001224 -1.140075783289235e-16 -4.378507100744156e-08)
(-0.6506544080001291 3.93802706513948e-16 -4.378488507022917e-08)
(-0.6506544080001245 -3.225224598661064e-17 -4.37850254304527e-08)
(-0.6506544080001292 2.418803019817424e-17 -4.378486687156394e-08)
(-0.6506544080001271 2.203265681409017e-16 -4.378498221862507e-08)
(-0.6506544080001312 -1.696252443911343e-16 -4.378484674532318e-08)
(-0.6506544080001262 -1.035595109357175e-16 -4.378494110838308e-08)
(-0.6506544080001307 1.093221265066728e-16 -4.378482509853303e-08)
(-0.6506544080001275 1.602810057198435e-16 -4.378490189031299e-08)
(-0.6506544080001315 1.463151967872887e-16 -4.378480229282502e-08)
(-0.6506544080001299 7.462945063304037e-17 -4.378486440257652e-08)
(-0.6506544080001324 2.087102977362749e-16 -4.378477866127968e-08)
(-0.6506544080001301 -5.978513301044931e-18 -4.378482853406136e-08)
(-0.6506544080001342 -6.322736003224553e-17 -4.378475451583498e-08)
(-0.6506544080001325 1.349832222850515e-16 -4.378479423882963e-08)
(-0.650654408000136 3.355396754038841e-16 -4.378473019477949e-08)
(-0.6506544080001353 -1.262110490552775e-16 -4.378476158491582e-08)
(-0.6506544080001352 5.059493451260589e-18 -4.378470614705172e-08)
(-0.650654408000137 3.238345773072019e-16 -4.378473088675215e-08)
(-0.650654408000137 -1.474379834894232e-16 -4.378468314637251e-08)
(-0.6506544080001354 -1.199901652844453e-16 -4.378470303744136e-08)
(-0.6506544080001387 1.480552829524255e-16 -4.378466289813155e-08)
(-0.6506544080001367 8.856789651010834e-17 -4.378468061599057e-08)
(-0.6506544080001387 -1.837889912747735e-16 -4.378464953523941e-08)
(-0.650654408000134 -3.331399935650791e-16 -4.378466818420397e-08)
(-0.6506544080001387 -9.306625740353176e-17 -4.378466154660851e-08)
(-0.6506544080001273 -1.182533999666259e-15 -4.378477733849603e-08)
(-0.6133206479508463 5.392373695104822e-16 -4.830843556568236e-08)
(-0.6133206479508176 5.305628333827146e-16 -4.830972554927126e-08)
(-0.6133206479508458 -7.817135664033404e-16 -4.830813282186696e-08)
(-0.6133206479508153 2.122049539459112e-16 -4.830966998327047e-08)
(-0.6133206479508406 -3.261444845191171e-16 -4.830815891223907e-08)
(-0.613320647950813 9.611320927363763e-17 -4.830956992764099e-08)
(-0.6133206479508372 -1.405543448720159e-16 -4.830820146185821e-08)
(-0.6133206479508132 -3.618545344603534e-17 -4.830946138546579e-08)
(-0.6133206479508344 -2.208641197003669e-16 -4.830824729907319e-08)
(-0.6133206479508122 -4.044642939363017e-16 -4.830935229834083e-08)
(-0.6133206479508321 -2.111192890126227e-16 -4.830829068768737e-08)
(-0.6133206479508138 1.831930955704548e-16 -4.830924695123518e-08)
(-0.6133206479508301 2.335349663188457e-16 -4.830832840423379e-08)
(-0.6133206479508155 8.496273752859791e-17 -4.830914765937277e-08)
(-0.6133206479508302 8.306976117014766e-17 -4.830835884908913e-08)
(-0.6133206479508164 4.9134756335261e-18 -4.830905540673269e-08)
(-0.613320647950829 4.820530417933331e-17 -4.830838151562313e-08)
(-0.6133206479508165 -4.315143872148115e-16 -4.83089703167868e-08)
(-0.6133206479508265 -3.050469984337935e-16 -4.830839657250187e-08)
(-0.6133206479508201 1.780414532827854e-16 -4.830889201510884e-08)
(-0.6133206479508276 2.027246967029628e-16 -4.830840455709841e-08)
(-0.613320647950818 -7.988828539866064e-17 -4.830881988191671e-08)
(-0.6133206479508276 8.243668552797653e-17 -4.830840618105118e-08)
(-0.6133206479508205 2.651939898058594e-16 -4.830875320715323e-08)
(-0.6133206479508267 3.257263797446946e-17 -4.830840220860521e-08)
(-0.6133206479508228 2.071831035626583e-17 -4.830869128614553e-08)
(-0.6133206479508295 1.414144850472841e-16 -4.830839338564883e-08)
(-0.6133206479508209 -6.012209916462046e-17 -4.83086334692672e-08)
(-0.6133206479508292 4.577888355665403e-17 -4.830838041296932e-08)
(-0.6133206479508237 1.626140009907668e-16 -4.830857917851651e-08)
(-0.6133206479508279 -1.764818646733175e-16 -4.83083639311841e-08)
(-0.6133206479508246 -9.453060960347424e-17 -4.830852792408628e-08)
(-0.6133206479508301 4.010035858585778e-16 -4.830834451357962e-08)
(-0.6133206479508241 -1.230704051263511e-17 -4.830847929260012e-08)
(-0.613320647950831 9.02016773462804e-17 -4.8308322677658e-08)
(-0.6133206479508279 2.387026541148478e-16 -4.830843294742383e-08)
(-0.61332064795083 -1.755755802833778e-16 -4.830829887651695e-08)
(-0.6133206479508279 -8.459121537655265e-17 -4.830838861128687e-08)
(-0.6133206479508326 1.090781264337837e-16 -4.830827351064171e-08)
(-0.6133206479508282 1.298372005800275e-16 -4.830834605888622e-08)
(-0.6133206479508314 2.233978848788994e-16 -4.83082469183706e-08)
(-0.6133206479508311 1.218738287786074e-16 -4.830830509155813e-08)
(-0.6133206479508324 2.105239198968026e-16 -4.830821937644275e-08)
(-0.6133206479508304 3.338141010926189e-17 -4.830826552543438e-08)
(-0.6133206479508345 -1.765291293442303e-17 -4.830819108777641e-08)
(-0.6133206479508339 1.716786446810885e-16 -4.830822716383894e-08)
(-0.6133206479508365 3.757485126181415e-16 -4.830816217690977e-08)
(-0.6133206479508343 -1.006767863533307e-16 -4.830818978538301e-08)
(-0.6133206479508364 3.711939196003503e-17 -4.83081326813085e-08)
(-0.6133206479508372 3.103105016730258e-16 -4.830815314366461e-08)
(-0.6133206479508357 -1.697191230334633e-16 -4.830810258991151e-08)
(-0.6133206479508363 -5.542368582966659e-17 -4.830811702214247e-08)
(-0.6133206479508398 1.72645340734297e-16 -4.830807198205022e-08)
(-0.613320647950837 7.471963598716932e-17 -4.830808154090025e-08)
(-0.6133206479508387 -1.941266261732389e-16 -4.830804150556467e-08)
(-0.6133206479508363 -3.454665468072791e-16 -4.830804660525783e-08)
(-0.6133206479508406 -1.66229716840006e-16 -4.830801440254412e-08)
(-0.6133206479508285 -1.223611900807862e-15 -4.830806967722184e-08)
(-0.5881689984785828 3.33566638335715e-16 -5.129838817797002e-08)
(-0.5881689984785478 4.673583298568921e-16 -5.130001249235139e-08)
(-0.5881689984785785 -8.745138901499984e-16 -5.129820001754557e-08)
(-0.5881689984785454 1.631785270566525e-16 -5.129988986619802e-08)
(-0.5881689984785728 -3.907220990036442e-16 -5.129826778941348e-08)
(-0.5881689984785438 1.77700102268174e-17 -5.129975665357443e-08)
(-0.5881689984785691 -1.509483429449802e-16 -5.129833221675726e-08)
(-0.5881689984785442 -8.598271844114876e-17 -5.129962800718016e-08)
(-0.5881689984785659 -2.611529363287339e-16 -5.129839052545477e-08)
(-0.588168998478543 -4.319223103632743e-16 -5.129950596908885e-08)
(-0.5881689984785646 -1.648208157230326e-16 -5.129844071151248e-08)
(-0.5881689984785459 1.371998369188951e-16 -5.129939222136876e-08)
(-0.5881689984785617 2.390777391711598e-16 -5.129848150798474e-08)
(-0.588168998478547 8.598062630759431e-17 -5.129928751496427e-08)
(-0.5881689984785614 8.831019564780688e-17 -5.129851259305959e-08)
(-0.5881689984785474 -2.827520778738557e-17 -5.129919176599779e-08)
(-0.5881689984785599 3.979887467950249e-17 -5.12985343449609e-08)
(-0.5881689984785472 -4.565712592731047e-16 -5.129910435449102e-08)
(-0.588168998478559 -1.987682210885312e-16 -5.129854753769509e-08)
(-0.5881689984785528 2.089741655197497e-16 -5.129902440567383e-08)
(-0.5881689984785594 1.43528242823275e-16 -5.129855311004902e-08)
(-0.5881689984785494 -7.190190156169794e-17 -5.1298950968709e-08)
(-0.5881689984785601 1.371643496230589e-16 -5.129855202900384e-08)
(-0.588168998478552 2.34284760236311e-16 -5.12988831245769e-08)
(-0.5881689984785581 8.444636786484948e-17 -5.129854521405722e-08)
(-0.5881689984785549 7.881048039170296e-17 -5.129882004229482e-08)
(-0.5881689984785606 9.32993700080699e-17 -5.129853350232298e-08)
(-0.5881689984785522 -5.769918695478589e-17 -5.12987609974166e-08)
(-0.5881689984785609 1.075415405216658e-16 -5.129851764053131e-08)
(-0.5881689984785552 1.287535807593729e-16 -5.129870537123375e-08)
(-0.5881689984785595 -1.36762518247981e-16 -5.129849829395611e-08)
(-0.5881689984785572 -4.042857995573682e-17 -5.129865265431361e-08)
(-0.5881689984785617 3.720603397029904e-16 -5.129847604087253e-08)
(-0.5881689984785556 7.729583698923789e-18 -5.129860242624756e-08)
(-0.5881689984785631 1.662325848488192e-16 -5.129845139804352e-08)
(-0.5881689984785592 2.08103870638746e-16 -5.129855434932038e-08)
(-0.5881689984785607 -1.557476203714511e-16 -5.129842480964594e-08)
(-0.5881689984785603 -1.495505874010633e-17 -5.129850814882152e-08)
(-0.5881689984785644 9.448740857552101e-17 -5.129839666464285e-08)
(-0.5881689984785599 8.297637285321695e-17 -5.12984635974719e-08)
(-0.5881689984785625 2.981733976377626e-16 -5.129836727963125e-08)
(-0.5881689984785626 1.572582844842938e-16 -5.129842048454817e-08)
(-0.5881689984785635 1.721175298992916e-16 -5.129833689345088e-08)
(-0.5881689984785622 7.636560749223347e-17 -5.12983785910981e-08)
(-0.5881689984785661 7.235114436398516e-17 -5.129830563920071e-08)
(-0.5881689984785656 2.246183214168389e-16 -5.129833763480283e-08)
(-0.588168998478568 3.703871069323738e-16 -5.129827350448321e-08)
(-0.5881689984785654 -7.487340857359656e-17 -5.129829721815463e-08)
(-0.5881689984785685 1.011016431835181e-16 -5.12982402584843e-08)
(-0.5881689984785683 2.64102425241868e-16 -5.129825672811035e-08)
(-0.5881689984785672 -1.818627233785033e-16 -5.129820535758249e-08)
(-0.588168998478569 5.428760695559517e-17 -5.129821518720014e-08)
(-0.5881689984785717 1.866062592117308e-16 -5.129816773413386e-08)
(-0.5881689984785685 3.549394751827528e-17 -5.129817096236488e-08)
(-0.5881689984785701 -1.835788862666357e-16 -5.129812532751318e-08)
(-0.5881689984785694 -3.162675164672098e-16 -5.12981202438073e-08)
(-0.5881689984785731 -2.729208558756212e-16 -5.129807294612988e-08)
(-0.5881689984785619 -1.154696879351294e-15 -5.129808683639717e-08)
(-0.5690636567312436 3.381616442104351e-17 -5.351868164737429e-08)
(-0.5690636567312035 3.4211343119944e-16 -5.352053879162922e-08)
(-0.5690636567312366 -9.488032640311813e-16 -5.351858149884387e-08)
(-0.5690636567312025 7.925877560629132e-17 -5.352036585944432e-08)
(-0.5690636567312308 -4.497671023687913e-16 -5.351868059527915e-08)
(-0.5690636567312011 -5.957970959239705e-17 -5.35202077773726e-08)
(-0.5690636567312269 -1.49856222985141e-16 -5.351876144351884e-08)
(-0.5690636567312015 -1.460849683344079e-16 -5.352006431983467e-08)
(-0.5690636567312237 -2.980643292614157e-16 -5.351882876088468e-08)
(-0.5690636567312003 -4.448610826801493e-16 -5.351993320882312e-08)
(-0.5690636567312226 -9.154989023459828e-17 -5.351888337373885e-08)
(-0.569063656731204 7.818688134296543e-17 -5.351981406509363e-08)
(-0.5690636567312197 2.368617778040578e-16 -5.351892562357632e-08)
(-0.5690636567312045 7.949478887005186e-17 -5.35197063221598e-08)
(-0.5690636567312188 8.893812821608212e-17 -5.351895627445326e-08)
(-0.5690636567312047 -6.50616252610231e-17 -5.351960898516042e-08)
(-0.5690636567312169 2.910718913264527e-17 -5.351897645780996e-08)
(-0.5690636567312048 -4.732166328687768e-16 -5.351952080950367e-08)
(-0.5690636567312166 -5.974108355334273e-17 -5.351898744584391e-08)
(-0.5690636567312108 2.315727060951431e-16 -5.351944051233142e-08)
(-0.5690636567312169 6.446297934528825e-17 -5.351899049765976e-08)
(-0.5690636567312074 -5.522945152301828e-17 -5.35193668832427e-08)
(-0.5690636567312181 1.824204968853698e-16 -5.351898677458475e-08)
(-0.5690636567312095 1.89203810568322e-16 -5.351929884637795e-08)
(-0.5690636567312156 1.583254403106965e-16 -5.351897730575569e-08)
(-0.5690636567312128 1.283956515760166e-16 -5.351923548394421e-08)
(-0.5690636567312178 3.872822438589028e-17 -5.351896298466204e-08)
(-0.5690636567312104 -4.713329365543758e-17 -5.351917602194653e-08)
(-0.5690636567312183 1.653531427219228e-16 -5.351894458281366e-08)
(-0.5690636567312126 9.749560086423359e-17 -5.351911982028079e-08)
(-0.5690636567312172 -8.752096109819129e-17 -5.351892277025961e-08)
(-0.5690636567312154 1.00399614079936e-17 -5.35190663638937e-08)
(-0.5690636567312191 3.465113202796387e-16 -5.351889811927966e-08)
(-0.5690636567312141 3.60272305384864e-17 -5.351901523369342e-08)
(-0.5690636567312206 2.260213080232077e-16 -5.351887113653785e-08)
(-0.5690636567312162 1.597271693042946e-16 -5.351896609847199e-08)
(-0.5690636567312183 -1.131082688987292e-16 -5.351884225216389e-08)
(-0.5690636567312183 6.379392851628658e-17 -5.351891869309995e-08)
(-0.5690636567312216 6.774799979577846e-17 -5.351881184112875e-08)
(-0.5690636567312175 4.172099355678836e-17 -5.351887279707804e-08)
(-0.5690636567312203 3.709751021872276e-16 -5.351878020221845e-08)
(-0.5690636567312206 1.770941507576294e-16 -5.351882819983995e-08)
(-0.5690636567312206 1.308698593166589e-16 -5.351874755016135e-08)
(-0.5690636567312197 1.317173710149696e-16 -5.351878467196468e-08)
(-0.5690636567312235 1.61153959143966e-16 -5.35187139733954e-08)
(-0.5690636567312231 2.809941222215089e-16 -5.35187418876022e-08)
(-0.5690636567312255 3.676235187197764e-16 -5.351867937695712e-08)
(-0.5690636567312231 -5.14347342046839e-17 -5.351869934694279e-08)
(-0.5690636567312265 1.635486356454536e-16 -5.351864336127036e-08)
(-0.5690636567312259 2.17917134043887e-16 -5.351865620898035e-08)
(-0.5690636567312251 -1.634460391939694e-16 -5.351860503476188e-08)
(-0.5690636567312273 1.658157107664374e-16 -5.351861100056289e-08)
(-0.5690636567312293 1.743583704565129e-16 -5.351856257025506e-08)
(-0.5690636567312267 7.347302488705968e-18 -5.351856092573341e-08)
(-0.5690636567312285 -1.480077405079447e-16 -5.351851207201558e-08)
(-0.5690636567312284 -2.687626633292417e-16 -5.351849957048496e-08)
(-0.5690636567312315 -3.873792278650393e-16 -5.351844342267977e-08)
(-0.5690636567312214 -9.951787644944799e-16 -5.351843119121997e-08)
(-0.5532508356097687 -3.611508030641417e-16 -5.530825619785949e-08)
(-0.5532508356097257 1.693243778383053e-16 -5.531026420279657e-08)
(-0.5532508356097603 -1.0056886034966e-15 -5.530821529075986e-08)
(-0.553250835609725 -2.289706086420775e-17 -5.53100547529487e-08)
(-0.5532508356097541 -4.922761068770107e-16 -5.530833769690007e-08)
(-0.5532508356097242 -1.435118058410051e-16 -5.530987776211658e-08)
(-0.5532508356097499 -1.519331578491546e-16 -5.530843105845372e-08)
(-0.5532508356097243 -2.145175159577745e-16 -5.530972306376087e-08)
(-0.5532508356097463 -3.284568440907096e-16 -5.530850499520157e-08)
(-0.5532508356097237 -4.556789890870137e-16 -5.530958541306116e-08)
(-0.5532508356097456 -4.943874164107299e-18 -5.530856242389194e-08)
(-0.5532508356097274 1.724071865909707e-17 -5.530946279435146e-08)
(-0.553250835609743 2.294664702149007e-16 -5.530860503108907e-08)
(-0.5532508356097275 6.19094000531687e-17 -5.530935350301455e-08)
(-0.5532508356097419 9.186158255689413e-17 -5.530863453370177e-08)
(-0.553250835609728 -1.065468030014832e-16 -5.530925574374909e-08)
(-0.5532508356097398 2.175947557840277e-17 -5.530865271819027e-08)
(-0.5532508356097279 -4.765683683575863e-16 -5.530916773282432e-08)
(-0.55325083560974 8.228928279928466e-17 -5.530866128215014e-08)
(-0.553250835609734 2.41497343718715e-16 -5.530908784401858e-08)
(-0.5532508356097399 -1.030994720062387e-17 -5.530866174552347e-08)
(-0.553250835609731 -3.386057087554318e-17 -5.53090146591067e-08)
(-0.5532508356097408 2.167890212176428e-16 -5.530865542153664e-08)
(-0.5532508356097325 1.385213381072701e-16 -5.530894698061185e-08)
(-0.5532508356097386 2.424046784358374e-16 -5.530864341719945e-08)
(-0.5532508356097359 1.758002796807793e-16 -5.530888382938446e-08)
(-0.5532508356097405 -1.237328957390857e-17 -5.530862666157278e-08)
(-0.553250835609734 -3.178441024687548e-17 -5.530882440099982e-08)