/*--------------------------------*- C++ -*----------------------------------*\
| =========                 |                                                 |
| \\      /  F ield         | OpenFOAM: The Open Source CFD Toolbox           |
|  \\    /   O peration     | Version:  v1812                                 |
|   \\  /    A nd           | Web:      www.OpenFOAM.com                      |
|    \\/     M anipulation  |                                                 |
\*---------------------------------------------------------------------------*/
FoamFile
{
    version     2.0;
    format      ascii;
    class       volVectorField;
    location    "20000";
    object      wallShearStress;
}
// * * * * * * * * * * * * * * * * * * * * * * * * * * * * * * * * * * * * * //

dimensions      [0 2 -2 0 0 0 0];


internalField   uniform (0 0 0);

boundaryField
{
    inlet
    {
        type            cyclic;
    }
    outlet
    {
        type            cyclic;
    }
    bottomWall
    {
        type            calculated;
        value           nonuniform List<vector> 
58
(
(-0.001585419210802325 -9.038185595254756e-18 2.015563516349956e-10)
(-0.001585419210802237 -1.28782553842805e-18 2.015558621208434e-10)
(-0.001585419210802209 3.345858006225463e-18 2.015538274855228e-10)
(-0.001585419210802308 -2.220991622200905e-18 2.015566091463798e-10)
(-0.001585419210802182 1.905053702455325e-18 2.015529619895142e-10)
(-0.001585419210802325 -7.352351190645827e-19 2.015570655331128e-10)
(-0.001585419210802194 8.247619377629771e-19 2.015523849798299e-10)
(-0.001585419210802335 -4.760221190482329e-19 2.01557228304471e-10)
(-0.001585419210802206 1.17633528354242e-18 2.015520773845833e-10)
(-0.001585419210802358 -1.866003649473058e-19 2.015571560051784e-10)
(-0.001585419210802245 -3.61097371931798e-19 2.0155196155936e-10)
(-0.001585419210802341 -3.015441505418649e-19 2.015569287174573e-10)
(-0.001585419210802224 -4.58419372514292e-20 2.015519635133565e-10)
(-0.001585419210802326 -1.173380594910575e-19 2.015566110596883e-10)
(-0.001585419210802231 3.375757572865896e-19 2.015520287339934e-10)
(-0.001585419210802325 -1.195334168042815e-19 2.015562482913103e-10)
(-0.001585419210802251 3.377175850570124e-19 2.015521204084031e-10)
(-0.001585419210802325 5.715520617111089e-19 2.015558701513245e-10)
(-0.001585419210802308 3.108721031264763e-19 2.015522151041098e-10)
(-0.001585419210802347 -2.190880195343922e-19 2.015554951626033e-10)
(-0.001585419210802267 -2.259223071207777e-19 2.015522988520027e-10)
(-0.001585419210802329 -1.566277730360255e-19 2.015551340812812e-10)
(-0.001585419210802287 7.255394437006252e-20 2.015523641217036e-10)
(-0.001585419210802314 -2.493364416306377e-19 2.015547924652917e-10)
(-0.001585419210802261 -1.071445022586243e-19 2.015524076650929e-10)
(-0.001585419210802329 -2.485670088843992e-19 2.015544725687147e-10)
(-0.001585419210802253 -9.249136011181559e-20 2.015524289329228e-10)
(-0.001585419210802301 1.037503229942331e-19 2.015541746182132e-10)
(-0.001585419210802274 -2.242284717432433e-19 2.015524289793736e-10)
(-0.001585419210802287 1.161905159554517e-19 2.015538977664204e-10)
(-0.001585419210802259 4.090695283771441e-19 2.015524098176777e-10)
(-0.001585419210802314 2.143605852872213e-19 2.015536405881535e-10)
(-0.001585419210802257 -8.396344030789351e-19 2.01552373899569e-10)
(-0.001585419210802283 -1.490968042509239e-19 2.015534015902506e-10)
(-0.001585419210802272 1.818920094941566e-19 2.015523239486349e-10)
(-0.001585419210802272 1.567359297464163e-19 2.015531793753359e-10)
(-0.001585419210802253 3.455913438568226e-20 2.015522628362163e-10)
(-0.001585419210802287 -4.419689506023142e-19 2.015529730036412e-10)
(-0.001585419210802253 1.870663131834343e-19 2.015521936742425e-10)
(-0.001585419210802278 -7.310441538566558e-20 2.015527822025949e-10)
(-0.001585419210802238 -7.283973367872878e-19 2.0155212012081e-10)
(-0.001585419210802255 -3.176859740738799e-19 2.015526078830743e-10)
(-0.001585419210802219 -1.008903627559575e-19 2.015520469540332e-10)
(-0.001585419210802242 1.671543150731076e-19 2.015524529012673e-10)
(-0.001585419210802224 2.737499681119594e-19 2.015519810723077e-10)
(-0.001585419210802242 -2.242909238308101e-19 2.015523234334789e-10)
(-0.001585419210802206 -7.357181319409989e-19 2.015519333318256e-10)
(-0.001585419210802215 2.889888645129504e-19 2.015522311798617e-10)
(-0.001585419210802224 8.322098783621516e-20 2.01551921275951e-10)
(-0.0015854192108022 -6.273839102648835e-19 2.015521965421424e-10)
(-0.001585419210802206 4.86210558700359e-19 2.015519724140309e-10)
(-0.001585419210802224 6.640949983079133e-20 2.015522516298291e-10)
(-0.001585419210802208 -4.578544501296752e-19 2.015521289582695e-10)
(-0.001585419210802211 2.369180221899698e-19 2.015524460166987e-10)
(-0.0015854192108022 7.870051986811055e-20 2.015523970740091e-10)
(-0.001585419210802239 1.36564486440542e-18 2.015525270370895e-10)
(-0.001585419210802224 9.935280390669198e-19 2.015529182161192e-10)
(-0.001585419210802425 5.840401217014888e-18 2.015548030854449e-10)
)
;
    }
    topWall
    {
        type            calculated;
        value           nonuniform List<vector> 
58
(
(0.003905419199670868 6.11070432358827e-18 2.614218036142489e-10)
(0.003905419199671213 -1.249160732625245e-17 2.614238077392411e-10)
(0.003905419199670787 5.580453009980408e-18 2.614259764566017e-10)
(0.003905419199670948 2.69484409593415e-18 2.614276262136493e-10)
(0.003905419199671114 -5.509069977428048e-18 2.614287294138501e-10)
(0.003905419199670836 3.982216049551718e-19 2.614293888685565e-10)
(0.003905419199670815 4.615348736781159e-18 2.614297209470857e-10)
(0.003905419199671072 -3.452625108859068e-18 2.614298218514481e-10)
(0.003905419199670912 1.153626173965064e-18 2.614297671408013e-10)
(0.003905419199671054 5.801372480829739e-19 2.614296091574685e-10)
(0.003905419199671265 -5.349395079657809e-18 2.614293883284123e-10)
(0.003905419199670868 -1.497262321186758e-18 2.614291278690959e-10)
(0.003905419199670975 6.040666263983127e-19 2.61428848978419e-10)
(0.003905419199671085 5.296419075291977e-18 2.614285591904403e-10)
(0.003905419199671064 2.457008596682476e-18 2.614282712931783e-10)
(0.003905419199670991 5.56834269054643e-19 2.614279837216978e-10)
(0.003905419199671186 2.659632792552484e-18 2.614277079520342e-10)
(0.003905419199671206 -2.086498972978356e-18 2.614274352168593e-10)
(0.003905419199671055 1.862157760832983e-18 2.614271793449066e-10)
(0.003905419199671142 1.894423679507203e-18 2.614269247984568e-10)
(0.003905419199671145 -3.397030982545356e-19 2.6142669169766e-10)
(0.003905419199671286 -5.551363952584023e-18 2.61426454865205e-10)
(0.003905419199671154 -1.747320373005373e-18 2.614262452231718e-10)
(0.003905419199671023 7.944143945034194e-19 2.614260236960087e-10)
(0.003905419199670979 5.264373634378115e-18 2.614258381346674e-10)
(0.003905419199670971 6.107216916536054e-18 2.614256279619435e-10)
(0.003905419199671489 -8.152790750243964e-18 2.614254677783956e-10)
(0.003905419199670877 3.77359861854683e-18 2.614252636645635e-10)
(0.003905419199670971 3.757565547715927e-18 2.614251318250841e-10)
(0.003905419199671153 3.945586897843013e-19 2.614249266604993e-10)
(0.00390541919967146 -2.855497838775058e-18 2.61424828757668e-10)
(0.00390541919967136 -8.406515398997875e-18 2.614246124048587e-10)
(0.003905419199670922 5.908630189911219e-18 2.614245581627277e-10)
(0.003905419199670928 1.087323277027515e-17 2.614243158002933e-10)
(0.003905419199671385 -5.217286288527151e-18 2.614243211290055e-10)
(0.003905419199671149 4.106658092483342e-20 2.614240305095096e-10)
(0.003905419199671148 3.364430704711234e-18 2.614241208583282e-10)
(0.003905419199671488 -8.956343337184288e-18 2.614237483468716e-10)
(0.003905419199671158 -1.224265179807375e-18 2.614239638469093e-10)
(0.003905419199671051 4.59131884192283e-18 2.614234577865204e-10)
(0.003905419199671222 1.515328212432474e-18 2.614238614057082e-10)
(0.003905419199671115 1.711070874097974e-18 2.614231427545542e-10)
(0.003905419199671289 -3.155438283394044e-18 2.614238321072659e-10)
(0.003905419199671393 -3.967679222192762e-18 2.614227790871817e-10)
(0.003905419199671177 2.659146729992145e-18 2.614239040804117e-10)
(0.00390541919967123 -5.730561304075006e-19 2.614223315181815e-10)
(0.003905419199671216 -3.658798211674092e-18 2.614241198177363e-10)
(0.003905419199671304 -6.644245949155233e-18 2.614217521392749e-10)
(0.003905419199671144 2.532784076376881e-18 2.614245356042742e-10)
(0.003905419199671267 2.323491807512728e-18 2.614209839869476e-10)
(0.003905419199671154 -2.108038302294398e-18 2.614252062880434e-10)
(0.003905419199671013 7.467817588213535e-18 2.614200001033972e-10)
(0.003905419199671254 -3.63872140045277e-18 2.614261108011038e-10)
(0.003905419199671095 -1.234287880748732e-18 2.614189458996642e-10)
(0.003905419199671105 9.214828942401481e-19 2.614270524088385e-10)
(0.003905419199671227 -6.503305911609525e-18 2.61418856084162e-10)
(0.003905419199670928 -3.844932062396571e-18 2.614257708999395e-10)
(0.003905419199670736 7.883395182386167e-18 2.61421743351967e-10)
)
;
    }
    left
    {
        type            cyclic;
    }
    right
    {
        type            cyclic;
    }
}


// ************************************************************************* //
