/*--------------------------------*- C++ -*----------------------------------*\
| =========                 |                                                 |
| \\      /  F ield         | OpenFOAM: The Open Source CFD Toolbox           |
|  \\    /   O peration     | Version:  v1812                                 |
|   \\  /    A nd           | Web:      www.OpenFOAM.com                      |
|    \\/     M anipulation  |                                                 |
\*---------------------------------------------------------------------------*/
FoamFile
{
    version     2.0;
    format      ascii;
    class       volScalarField;
    location    "0";
    object      p;
}
// * * * * * * * * * * * * * * * * * * * * * * * * * * * * * * * * * * * * * //

dimensions      [0 2 -2 0 0 0 0];


internalField   nonuniform List<scalar> 
5655
(
-1.487391054846085
-2.014541958399092
-2.087840364631339
-2.111183132654163
-2.133136017616172
-2.144873219968092
-2.153359839407836
-2.159164956521947
-2.164888624836443
-2.162691239670307
-2.15996161063911
-2.167679188918224
-2.17257016268563
-2.170849830807206
-2.163902555960304
-2.173258251126745
-2.176125652986339
-2.170893620663395
-2.177673211606052
-2.188917059752051
-2.185159117930034
-2.18578196504216
-2.193013766939105
-2.1932060879772
-2.19553478991795
-2.18951886340348
-2.184942494618556
-2.181208499415849
-2.185783974012037
-2.194476386206751
-2.200558028787632
-2.199053831724325
-2.190274174447768
-2.18958128937531
-2.177358910068913
-2.175682647653208
-2.187841753530606
-2.202204897309556
-2.192537638999403
-2.183217761388505
-2.192760212284608
-2.204010581190083
-2.193108926883041
-2.193461907929671
-2.196931626594011
-2.19244614183649
-2.193635067902855
-2.200480332046383
-2.197696295428169
-2.196243124655447
-2.197051724493634
-2.19220265275733
-2.175421353649342
-2.171848300804381
-2.172569114041381
-2.178170500320745
-2.186250331531249
-2.183301855243533
-2.184527262704904
-2.180741307246155
-2.174701706903918
-2.174290389318928
-2.176314845702859
-2.177498174891941
-2.177953445022259
-2.17639552300704
-2.177191590652447
-2.180723621908667
-2.178432023516005
-2.172565756768437
-2.1691977436926
-2.168373507874344
-2.166974906144274
-2.162249035312894
-2.16315151770452
-2.165878213831853
-2.16359801127996
-2.158096827894816
-2.159904243484438
-2.157866360674841
-2.152762391857407
-2.150391195411711
-2.148409071916073
-2.132281777409454
-2.113956766937593
-2.044880205590046
-1.950066291915421
-1.481680941933604
-2.014561607476935
-2.088090606052568
-2.111225315547324
-2.133128041703297
-2.144914661195179
-2.153380146495007
-2.159185057894604
-2.164928117924813
-2.162720534720909
-2.1599509712833
-2.167721059894933
-2.172606236355601
-2.170863712239508
-2.16387404375972
-2.173285716546139
-2.176122776241164
-2.170817154453212
-2.177672423657945
-2.188938134672133
-2.185143354379147
-2.185739769061886
-2.193045380464894
-2.193172644461407
-2.195582612671592
-2.18951094506438
-2.184885658703636
-2.181120903976392
-2.185754096518968
-2.194494122067584
-2.200610329698933
-2.199060717120479
-2.190196824879344
-2.189579751450073
-2.177333560484361
-2.175563162540432
-2.187770234299125
-2.202251266641539
-2.192562013355747
-2.183061113856512
-2.192771124059758
-2.204097718692822
-2.193079625236379
-2.193444620678137
-2.196970605005857
-2.192423760871994
-2.19362690766068
-2.200507697881701
-2.197721062381941
-2.196253780112535
-2.197137802854253
-2.192312132457979
-2.175429049339237
-2.171871871443132
-2.172552477347614
-2.178171019610342
-2.186295889804662
-2.183244834404897
-2.184532986830007
-2.180753416847604
-2.174657112275326
-2.174274806474499
-2.176312770333577
-2.177501388981573
-2.177954496444555
-2.176377798344213
-2.17716627357124
-2.180726758025679
-2.178432464082088
-2.172541721807015
-2.169178845445107
-2.16837931844082
-2.166989554722481
-2.162244005349574
-2.163142385303981
-2.165905148146927
-2.163596556166722
-2.158079682450556
-2.159916017259985
-2.157885054237613
-2.152742748727529
-2.150367154036408
-2.148402909352752
-2.132324632617988
-2.114067278073601
-2.045088549817622
-1.949069509395029
-1.486206511914928
-2.014899756160978
-2.088261002458586
-2.111274695711097
-2.13314981210006
-2.144908070086856
-2.153347310747445
-2.15919258513796
-2.16494001007256
-2.162735938618087
-2.159949618253515
-2.167694758240213
-2.172590345629465
-2.170887244061842
-2.163795354483388
-2.173291269695239
-2.176112906552996
-2.170747388082786
-2.177650689325257
-2.188950307759653
-2.185141737526259
-2.185756802171332
-2.193071054903731
-2.193174808152835
-2.19561575844666
-2.189494173364229
-2.184850255221277
-2.181054893752904
-2.185740114355959
-2.194506125670822
-2.200639164284022
-2.199078215692921
-2.190181924031529
-2.189600542427605
-2.177295529452059
-2.17545964830692
-2.187727554576267
-2.202280471811907
-2.192581526014099
-2.183038646273974
-2.19278178214027
-2.204130334440362
-2.193029859244986
-2.19345286711249
-2.196998178787624
-2.19243411193914
-2.193616942122678
-2.200553459312351
-2.197781421804805
-2.196264860252279
-2.197172157445491
-2.192356473427447
-2.175409896119713
-2.171874899987834
-2.172562038041209
-2.178151330367097
-2.186343018989609
-2.183215229807276
-2.184535933807107
-2.180795665243219
-2.174625516668437
-2.174253791728474
-2.176330311869568
-2.17751844899877
-2.177956870701072
-2.176383767780876
-2.177174130692667
-2.180736165784136
-2.178454578938199
-2.172546680759984
-2.169162387564984
-2.168381170369378
-2.166998429642047
-2.16223652801252
-2.163140976250073
-2.165923084558731
-2.163606072187589
-2.158050880968219
-2.159912932424251
-2.15789557380518
-2.152747141641801
-2.150363258551028
-2.148405771951746
-2.1323383010396
-2.114142199191869
-2.045138855235554
-1.949115316869692
-1.502252364325304
-2.015549692763089
-2.088367447534942
-2.111339242368054
-2.13320077683516
-2.144848724392312
-2.153253600349142
-2.159187491316186
-2.164923974562506
-2.162738365893125
-2.159957433623813
-2.167591720697616
-2.172516962184964
-2.170919992278124
-2.163651793827387
-2.173274445269972
-2.17609632927317
-2.170675284523802
-2.177603838380768
-2.188953438354948
-2.185154911395074
-2.185839464903415
-2.193090486602557
-2.193215148928492
-2.195637504575272
-2.189468914801143
-2.184833706372414
-2.181003600375315
-2.185742119555404
-2.194513319492272
-2.200646852478318
-2.199106009856899
-2.190232269709714
-2.189648295176363
-2.177245485226905
-2.175359363976177
-2.187710967940394
-2.202292271066719
-2.192598565995533
-2.183156794110348
-2.192792215543764
-2.204109226544822
-2.192950899952936
-2.193486466501771
-2.197017482006468
-2.192480444349967
-2.19360537586896
-2.200625079611466
-2.197887466278135
-2.196276159734241
-2.197155600431627
-2.192336309013876
-2.175364249434689
-2.171856070496664
-2.172600876598953
-2.178111847281805
-2.186398167446198
-2.18321114693821
-2.184536131647666
-2.180876017691571
-2.174603470693224
-2.174227697611329
-2.17637105844492
-2.177552578993063
-2.177960531998516
-2.176415842844711
-2.177218621026647
-2.180751732538359
-2.178503165745489
-2.172583070290258
-2.169148596157317
-2.168379089301563
-2.167002223405015
-2.162226705704935
-2.163147459925599
-2.16593387199521
-2.163626358928169
-2.158005692404292
-2.159893616308825
-2.15789783153536
-2.152777960515505
-2.150380457825224
-2.148417596581307
-2.132323236002927
-2.114188052250944
-2.045032008823043
-1.950276165481139
-1.714716543090089
-2.031496646313803
-2.091571183437424
-2.113115373782716
-2.134274410034465
-2.144930014025114
-2.152918145606236
-2.159895509143699
-2.165214732769519
-2.163021381967751
-2.160497544690582
-2.166795378632802
-2.172186036050006
-2.171658513618558
-2.162846787690674
-2.173515359859314
-2.176507487823617
-2.169690472022443
-2.176706573029769
-2.189629305389534
-2.185796754087002
-2.187111530260349
-2.194423855547632
-2.193591130896627
-2.196198080435059
-2.18873372349967
-2.184381031117983
-2.18040342269529
-2.18465420687573
-2.194733601825419
-2.201012299505646
-2.199495692382704
-2.190785054271225
-2.19077904664406
-2.177124868369694
-2.173959421663414
-2.187040033427269
-2.204068906052176
-2.194749079223876
-2.183941550776862
-2.193148951163538
-2.204141025363949
-2.192606293696252
-2.194124507815518
-2.197080240311476
-2.192658481805666
-2.193746900642803
-2.201485249453743
-2.199520818167547
-2.197279298132105
-2.198165357676549
-2.19320562093623
-2.175393218256118
-2.171750838419257
-2.173157794996297
-2.178118843903711
-2.186851469630837
-2.183443315263471
-2.184197581995482
-2.180861243888967
-2.174184972463538
-2.173504597494381
-2.176690483453172
-2.177801695091417
-2.178066808274951
-2.176681637914035
-2.177506873445889
-2.181110032968713
-2.179041435806337
-2.17284724844332
-2.168594754402883
-2.168440501933958
-2.167213061392128
-2.162308710737524
-2.163292927804999
-2.16611027267498
-2.163741712555579
-2.158030047860674
-2.160019993473221
-2.158485929658474
-2.153315022862045
-2.150448843165969
-2.148441463980982
-2.132741409548127
-2.115492258015105
-2.048951605562718
-1.964957001773195
-1.718825227255811
-2.031360396845653
-2.091783156582141
-2.113259559414558
-2.134267709591384
-2.144980703963459
-2.152935473504503
-2.159941602092029
-2.16524894918842
-2.163036370399678
-2.160518127504741
-2.166779392105731
-2.172194929254725
-2.171660975569586
-2.162876372007356
-2.173510108640042
-2.17652203880044
-2.169607109877998
-2.176691286458841
-2.189675410419385
-2.185870350776927
-2.187169223639984
-2.194480041922131
-2.193574856545551
-2.196235171192308
-2.188730278253155
-2.184314055895274
-2.180301520844672
-2.184600417551835
-2.194738216467663
-2.201075881683443
-2.199484470890868
-2.190761164622741
-2.190774170082283
-2.177170427258523
-2.173736192967304
-2.186977846146397
-2.204138398756103
-2.194959217362654
-2.183807570387791
-2.193180892410628
-2.20411357531396
-2.192509810520327
-2.194096124832284
-2.197064521774438
-2.19268291672463
-2.193758469982729
-2.2015163140967
-2.199645756241871
-2.197313515033716
-2.198326974073929
-2.193367602083732
-2.175450945692234
-2.171800765719134
-2.173198514010271
-2.178148887499346
-2.186944570100176
-2.183452731704751
-2.184177468658616
-2.180900992908146
-2.174131837035916
-2.173487403063559
-2.176684264477027
-2.177799350458201
-2.178069204223577
-2.176677183378854
-2.177486941905056
-2.181107784127777
-2.179049117672505
-2.172842945382483
-2.168573507194392
-2.168456502004893
-2.167230687188999
-2.162318307906987
-2.163283773180936
-2.166105963759494
-2.163724016004332
-2.15806315546741
-2.160046608605844
-2.158516309227899
-2.153349656504679
-2.150447704780774
-2.148423621838892
-2.132842196196883
-2.115602092964976
-2.049265235228773
-1.965481399931002
-1.724097590363258
-2.031462187680031
-2.09197801037113
-2.113383057106331
-2.1342859403459
-2.145046193310778
-2.152970833731647
-2.159968400382533
-2.165278349263313
-2.163053288801152
-2.160546801768919
-2.166784648095313
-2.172204484013899
-2.171664601487222
-2.162897589055738
-2.173499366264067
-2.176523937593496
-2.169561763494751
-2.176606449038698
-2.189721932165313
-2.18591965772244
-2.187219708830078
-2.19453444465455
-2.193579533845678
-2.196272396781314
-2.188712931701478
-2.184261151372128
-2.180242953457889
-2.18457112685042
-2.194757034988531
-2.201117723678481
-2.199481858034884
-2.190762723096948
-2.190801803648077
-2.17721415249641
-2.17358279566125
-2.186873088103381
-2.204172281263729
-2.195240372179552
-2.183777221825315
-2.193191317102523
-2.204105220426395
-2.192465041198926
-2.194097774231483
-2.197057748804032
-2.19272007247503
-2.193769051130535
-2.201536999413875
-2.19975005157776
-2.197350563395428
-2.198448749723948
-2.193467655777931
-2.175483678278984
-2.171813169892504
-2.173230741372139
-2.178163269134227
-2.187010592281118
-2.183495203822675
-2.184162810690294
-2.180914266126944
-2.174101183052497
-2.173469858914709
-2.176691410042805
-2.177821252504162
-2.178076770596727
-2.176679735360751
-2.177487504906101
-2.181115553380224
-2.179067739976874
-2.172857460794643
-2.168563175007394
-2.168466817346319
-2.1672384816584
-2.162325277032529
-2.163286892318822
-2.16610804786379
-2.163720148733333
-2.158097445784726
-2.16006773527536
-2.158538411542723
-2.153393758734794
-2.150473659669633
-2.148421444108647
-2.132895675252251
-2.115697709718124
-2.049471337809973
-1.966295209158723
-1.732318114473448
-2.031844243769543
-2.092151699325969
-2.113493937088875
-2.134333125292672
-2.145135482549798
-2.153033503046057
-2.159971945094751
-2.165301726060395
-2.163072073109165
-2.160584173426135
-2.16681565070446
-2.172210931230596
-2.171669614516869
-2.162904835542362
-2.173480607028354
-2.176511044353433
-2.169573477491983
-2.176407934445701
-2.189768340430761
-2.185939944997809
-2.187272771556255
-2.194585973982615
-2.193619809349233
-2.196310291030864
-2.188679532532046
-2.184227590427679
-2.18024936315777
-2.184571306576044
-2.19479522955765
-2.20112803558606
-2.199489570544488
-2.190815435073573
-2.190888668278054
-2.17725492505976
-2.173523299478809
-2.186700366399
-2.204163649110747
-2.195665503346154
-2.183922198650905
-2.193175851082113
-2.20411929604983
-2.192491684263477
-2.19413523821634
-2.197058260859329
-2.192781940701633
-2.193778136289485
-2.201543798332568
-2.199836227613252
-2.197390148160936
-2.198519221741195
-2.193476259045802
-2.175485785484184
-2.171768013927269
-2.173255298498225
-2.178158758286054
-2.187041041149898
-2.183595559663353
-2.184155144545167
-2.1808902279965
-2.17410215395
-2.17345230474049
-2.176720726308347
-2.177882523131919
-2.178090401376105
-2.17669472494657
-2.177522471018051
-2.181135322452199
-2.179106602466906
-2.172903387990873
-2.168565937294347
-2.168469076649816
-2.167231730328151
-2.162328837703429
-2.163308834655274
-2.166118414762786
-2.163732856751815
-2.158136684029831
-2.160081822909739
-2.158550365824119
-2.15346212564729
-2.150545101930796
-2.148438117082654
-2.132884865031551
-2.115772017465982
-2.049549232446921
-1.96776928224631
-1.744005750330697
-2.032512118554437
-2.092349785060829
-2.11361017838964
-2.134409964109958
-2.145263571100289
-2.153131888239209
-2.159951215726781
-2.165325613834129
-2.163097644514056
-2.160630397678287
-2.166877783974371
-2.172219552985936
-2.17167593657867
-2.162904497983593
-2.173451070059216
-2.176482759769105
-2.169630454083672
-2.176082088758874
-2.189813802635228
-2.185938537306066
-2.187331585963696
-2.194633629748565
-2.193693631835879
-2.19635779903439
-2.188629822341686
-2.184201270471642
-2.180305640891758
-2.184602160789476
-2.194858681589069
-2.201116747842772
-2.199507832745732
-2.190910173427176
-2.191033833286337
-2.17729207140777
-2.173526307146898
-2.186437017937555
-2.204110731585923
-2.196277244958875
-2.184219567762748
-2.193133886452256
-2.204157897518018
-2.19258230916327
-2.194209157452001
-2.197068611955419
-2.192873627815444
-2.193785661548512
-2.201540801035408
-2.199921417504962
-2.19743196385555
-2.198563228149467
-2.193418079873425
-2.175456429944679
-2.171669751505992
-2.173276727065315
-2.178134756323033
-2.187049127325388
-2.183758089207169
-2.184154611307377
-2.18083081172329
-2.174128317744316
-2.173434900477469
-2.176772323610765
-2.177986196646151
-2.178110080294633
-2.17672133463334
-2.177589133382526
-2.18116704877879
-2.17916749927761
-2.172981853067795
-2.168582281424705
-2.168465586768553
-2.167212353482306
-2.162328958496345
-2.163349932704852
-2.166138434129095
-2.163762500317262
-2.158187147557213
-2.160093357864873
-2.158551569533793
-2.153558496953547
-2.15066472853354
-2.148473920216427
-2.13281894761574
-2.115848999705733
-2.049490389911736
-1.969954810672416
-1.860504059349277
-2.048527229175488
-2.097216693261747
-2.11614210389477
-2.136210702113132
-2.147757019344074
-2.155426528551371
-2.16052631254505
-2.166094157463649
-2.163884350346723
-2.162678856242507
-2.168940576659591
-2.173037512290495
-2.171368309382748
-2.164290442666163
-2.172840668408102
-2.175654804421242
-2.170211141654141
-2.174051433927045
-2.19004942858062
-2.186526085343716
-2.187913171470877
-2.196338823281518
-2.194428098284875
-2.196833928348775
-2.188905408523895
-2.183671046979589
-2.180840453223678
-2.184553138536714
-2.195396129691894
-2.201593589240904
-2.199702956116432
-2.191739173465384
-2.192110402240857
-2.180462213293902
-2.173517845264968
-2.184193573488246
-2.204205798809038
-2.204027893346245
-2.186718709065618
-2.191861355857918
-2.20475054750665
-2.194240436595746
-2.195579760371574
-2.196956789762246
-2.193026290301078
-2.193635161447903
-2.201390177528194
-2.201030102627676
-2.199386991762728
-2.200696277875124
-2.194472227782332
-2.176336008152053
-2.17143012610376
-2.173050470333122
-2.178336729461151
-2.18773437811044
-2.185383958754701
-2.184560171195217
-2.180543676993965
-2.173931555711275
-2.17328348230419
-2.176737129880702
-2.178713273525402
-2.17886343658619
-2.176698258742244
-2.177818928578866
-2.182166203151317
-2.179915536796936
-2.173825224127729
-2.169353916701071
-2.168546686277508
-2.167004942715499
-2.162432498667308
-2.163569186284348
-2.166085570287694
-2.164282241273412
-2.159644086041439
-2.160905239721559
-2.159178086349865
-2.154766831139562
-2.152039951084999
-2.149098916260313
-2.133461245058736
-2.118069109466008
-2.057969867046201
-1.991477620870122
-1.866505347468623
-2.048841088823629
-2.097563332404122
-2.116338111088814
-2.13625219936643
-2.147990192782715
-2.155670854182826
-2.16056089274095
-2.166185697316795
-2.163949339144451
-2.162746032936932
-2.169123817065021
-2.173129195983383
-2.171335342057261
-2.164485648244386
-2.172802385960228
-2.175653808012893
-2.170325399234458
-2.173981198396856
-2.190018861310272
-2.186507285423539
-2.187901540331731
-2.196374629374963
-2.194500752825128
-2.196870517092794
-2.188922443489591
-2.183610474868108
-2.180869730762361
-2.184570071862883
-2.195523444510221
-2.201662102595046
-2.199709581657572
-2.191782869310747
-2.192192249715966
-2.180602483121322
-2.173599538903452
-2.184041500762162
-2.204154656828801
-2.204725862802024
-2.186934796052325
-2.191761699040706
-2.204760697747969
-2.194397954470928
-2.195620055074958
-2.196901828710971
-2.192956636027122
-2.193630969624083
-2.201350784693893
-2.201095629987675
-2.199455656150273
-2.200878435881642
-2.194556891543
-2.176401294183433
-2.171410775886824
-2.173028994598292
-2.178375011585207
-2.187744874587797
-2.185523286266195
-2.184565731032803
-2.180450761371388
-2.173934204402952
-2.173298212446124
-2.176725666221729
-2.178756759642348
-2.178896953332192
-2.176707021728061
-2.17782616482023
-2.18221149382833
-2.179978255882832
-2.173886450770074
-2.169387096412579
-2.168555021372958
-2.166994906960944
-2.162444584446135
-2.163597800458207
-2.166099531282004
-2.164292787217919
-2.159791695267048
-2.160991938915179
-2.159206862669461
-2.154847616180186
-2.15211484361127
-2.149120674377341
-2.133527658900098
-2.118251278036376
-2.058325485845167
-1.992823467135515
-1.875089859273238
-2.049650113969625
-2.097935463926063
-2.116563841086224
-2.13636011474294
-2.148179964810403
-2.155893193737939
-2.160571799897788
-2.166250537784344
-2.164015104864289
-2.162828588659602
-2.169210161948191
-2.173110171062898
-2.171310919089022
-2.164606225793093
-2.17273680895837
-2.175634417658671
-2.170451738772243
-2.174040411330165
-2.189938536318854
-2.186344103026747
-2.187903335470784
-2.196378664637006
-2.194742513216116
-2.196897029793019
-2.18892489166477
-2.183574584028875
-2.180955075642107
-2.184687395812634
-2.195801938220871
-2.201728432779479
-2.199739482833161
-2.191945515610343
-2.192414768940861
-2.180719607246497
-2.173936847663424
-2.183971662197709
-2.203951537242763
-2.205505980897676
-2.187819285709379
-2.191646175871545
-2.204758069744677
-2.1946288013779
-2.195718827451255
-2.196900840115676
-2.192871082303583
-2.193620781615936
-2.201335577497395
-2.201175979817263
-2.199523529815265
-2.200888150537074
-2.19442946176536
-2.176401946422073
-2.171348565302039
-2.172994780117474
-2.178377707779979
-2.187756490580739
-2.185685029868413
-2.184569659866921
-2.180421865094582
-2.173977778421591
-2.173317654220297
-2.176801127177666
-2.178844308836046
-2.178947675189747
-2.176824322128864
-2.177945682171808
-2.182290266515666
-2.180143261993603
-2.174022023467196
-2.169444039763059
-2.168545707278095
-2.166972250547473
-2.162456285921831
-2.163663738807775
-2.166157558027038
-2.164331711402323
-2.159910941037633
-2.161063159643543
-2.159225555317924
-2.154953846636317
-2.152210914850677
-2.14917858013353
-2.133530998529161
-2.118398505191741
-2.058482365498443
-1.994732640771114
-1.944377037497521
-2.066037812599724
-2.103781785766675
-2.1197506927635
-2.138015883343524
-2.150444173528963
-2.158576280776906
-2.161978091095504
-2.16758720089381
-2.165176428882483
-2.164604870197458
-2.170867955955741
-2.173266612936177
-2.170684020200816
-2.166496635669227
-2.17220334937936
-2.175137445654454
-2.172143389939541
-2.175609057201659
-2.187262486610504
-2.184556807404702
-2.187184110701665
-2.196452409197866
-2.19709413649943
-2.198149940663828
-2.189476998398107
-2.182122874320494
-2.18133123654893
-2.186159434733197
-2.198081179997358
-2.20285031366715
-2.20036810214354
-2.193579604760456
-2.19368908427966
-2.183688967607976
-2.177381805273373
-2.184507922929082
-2.202278892921208
-2.211073973031872
-2.19333328488736
-2.191045738674877
-2.203683080328164
-2.196386601305247
-2.19702645886185
-2.196597051083416
-2.191466251215306
-2.193021264769892
-2.200956413956202
-2.201483360080381
-2.20059314126262
-2.202035282979583
-2.195019947846752
-2.178413149950829
-2.172385094756379
-2.17317307442821
-2.179128351987139
-2.188380761408214
-2.186873642185863
-2.18512035250027
-2.180130334071989
-2.174243663959868
-2.174049558573616
-2.177046711703057
-2.179320939197936
-2.179839815930674
-2.177809409001798
-2.178607262422437
-2.183755715855018
-2.181700640867145
-2.175286637860908
-2.170491553553767
-2.168453890522551
-2.166709091540312
-2.162751872686347
-2.163796867184021
-2.166528653170555
-2.1650607482943
-2.162075566962709
-2.162637414172221
-2.160407536697272
-2.156162831853199
-2.152902100785297
-2.149933072757777
-2.134832467936882
-2.121381885318735
-2.06931910295036
-2.011926164365046
-1.952072577527364
-2.066999863989684
-2.104431143053203
-2.120154516917473
-2.138132456168743
-2.150570902216098
-2.158900967733154
-2.162067839353654
-2.167705980006111
-2.165291263100106
-2.164669309043854
-2.170853495714877
-2.173203824739854
-2.170640796363233
-2.16669905493566
-2.172201349671044
-2.175124166742727
-2.172356081619859
-2.175833426433224
-2.187050732168767
-2.184248826112137
-2.186948853939897
-2.196329252537164
-2.197421142515757
-2.198448437050501
-2.189455357546188
-2.181645452040124
-2.181276238344358
-2.186522744744835
-2.198558985114776
-2.20291527019701
-2.200377752196246
-2.193841971155365
-2.193835168448831
-2.183802127111961
-2.178034540650214
-2.184856439863985
-2.202110045756201
-2.210924906848233
-2.194299720996683
-2.191166285288321
-2.203355751455626
-2.196565847660595
-2.1971397914799
-2.196669626758125
-2.191202102156389
-2.192935136075091
-2.200947884204317
-2.201495582792104
-2.200574270824755
-2.2018595824351
-2.194820389601632
-2.178525749025971
-2.172564396860934
-2.173236294441803
-2.179151297051529
-2.188409071679733
-2.186998466308981
-2.185147318590199
-2.180144674773227
-2.17430977711546
-2.174099435048544
-2.17721785559444
-2.179457989242737
-2.179886402552681
-2.178034937048728
-2.178815236606447
-2.183868661604542
-2.181944194602296
-2.175461436524391
-2.170555731604789
-2.168416733033176
-2.166652700667463
-2.162755171278077
-2.163762439236546
-2.166472740052042
-2.16509045613529
-2.16237134002363
-2.162845218736636
-2.160458149481948
-2.156276601545474
-2.152951599224443
-2.149942216792866
-2.135041012657512
-2.121629919106935
-2.069813906592979
-2.014806046225427
-2.003784173526724
-2.082712328453767
-2.111088784698464
-2.12415299372796
-2.139763956928245
-2.151568063515042
-2.161367032546627
-2.164419938631183
-2.169255539125397
-2.166479884120893
-2.165043741775925
-2.170862829376424
-2.172761378363326
-2.170058757053501
-2.168536758589574
-2.172556505556791
-2.174891926892702
-2.173865560011902
-2.177053961359252
-2.184744513809464
-2.182659514638315
-2.185723115603672
-2.195128233221723
-2.199447104427567
-2.200168296581325
-2.189942321295923
-2.179091145943095
-2.178760113158558
-2.192071816597715
-2.202285055969461
-2.203556123336403
-2.200170145538166
-2.195798443506766
-2.194175049008959
-2.185582827449016
-2.181721583600745
-2.1878199139042
-2.201295164140429
-2.208237338010721
-2.197118545220405
-2.19312954363041
-2.200366692713537
-2.196658972179945
-2.199015467482273
-2.198236300073013
-2.190004103998796
-2.191129990823546
-2.200218673585743
-2.200662336607916
-2.199255785647956
-2.201109950012756
-2.194928462073175
-2.181548863056137
-2.175756527156843
-2.174324051648808
-2.180060308301249
-2.189085651087016
-2.187860090011388
-2.185672992498717
-2.180007574391532
-2.174614567174745
-2.174862397687682
-2.177859942005145
-2.180407834566268
-2.180655323771276
-2.179481209286252
-2.180105611623353
-2.185382123865079
-2.183614683538125
-2.176718675063527
-2.171239051322535
-2.168158220074905
-2.166527047982703
-2.163044620701178
-2.163562032530672
-2.16613298702594
-2.165781557195206
-2.165883595496131
-2.165409241137315
-2.161917072650813
-2.157388193174127
-2.153323600274337
-2.150073952109808
-2.137548384195592
-2.124523033877804
-2.083645985637597
-2.038955716440157
-2.048838479410105
-2.097645619751823
-2.11810161660955
-2.128791818356452
-2.141942677782125
-2.151865887987633
-2.162952500632409
-2.167628194978059
-2.171228721731567
-2.167934500916267
-2.164759118049817
-2.169504658488217
-2.171761014308109
-2.170054969087571
-2.169652963644156
-2.172940657874894
-2.175043217522419
-2.17519376005305
-2.178458048430976
-2.184864696834337
-2.182970525600853
-2.18729616750865
-2.19412975848316
-2.197597668348803
-2.200697695886617
-2.191620478963185
-2.17998704071394
-2.177328403332521
-2.198884722346972
-2.207794911155468
-2.205267154462135
-2.1983341346803
-2.196726318397542
-2.19472358280055
-2.187052791632302
-2.183952718173662
-2.189836707817411
-2.201992592398297
-2.204474706711291
-2.196643649430565
-2.195473685288178
-2.198808575112693
-2.196419082188576
-2.200715116455671
-2.203321889548756
-2.19400591754405
-2.190527305175577
-2.199415325747389
-2.199022356805712
-2.197360728349139
-2.19996469340731
-2.195105246739978
-2.184250110786225
-2.17884432183897
-2.175666646756652
-2.180492845979458
-2.189351802946478
-2.188679990217022
-2.185775054069396
-2.179943362081615
-2.174737100302067
-2.175307015107083
-2.178151570529035
-2.181838333502292
-2.181640097259978
-2.181054745552044
-2.181780653963632
-2.186929371235091
-2.185251641098884
-2.178092013285112
-2.172099982070224
-2.168197863673024
-2.167027290168749
-2.164244830151721
-2.16394081165494
-2.165664098849756
-2.166027033698517
-2.169925877131614
-2.168749396965279
-2.163986874463416
-2.15852295970581
-2.153511062987151
-2.1506934380242
-2.140878909986228
-2.128266304166406
-2.098783619048689
-2.069315521468766
-2.086055461492249
-2.11092596550089
-2.12500067711037
-2.133501239475478
-2.144709004527478
-2.152413085379117
-2.163815155093132
-2.171101551313573
-2.173255922175034
-2.169442707930644
-2.164555914707381
-2.167744231429494
-2.170759378269101
-2.170534613942214
-2.169483015342126
-2.172560598854872
-2.175115875251437
-2.176079928923381
-2.179851300169347
-2.186107476271773
-2.184364904891027
-2.189430014149629
-2.195559649447128
-2.195749441546127
-2.198376349603377
-2.192813454458782
-2.183007701980967
-2.179222516819002
-2.200892327426556
-2.211169641986519
-2.20838409399559
-2.197349165440431
-2.195861114433002
-2.195147254606614
-2.188428433318624
-2.184766039741518
-2.19006555482952
-2.202248512821909
-2.203606307421434
-2.196012696469719
-2.197051936183348
-2.199644931146809
-2.197915964853231
-2.201891375069718
-2.208961303250758
-2.203201317171309
-2.195234244294908
-2.198837278876355
-2.196345327797477
-2.194986050373242
-2.198232305025159
-2.194868430369245
-2.18585756725283
-2.18144515727001
-2.177169470160195
-2.180726277171562
-2.188958463157647
-2.1891913346551
-2.185747771557753
-2.179821633022538
-2.174640018688041
-2.175410878471903
-2.177766541690127
-2.182646599512907
-2.183074443092912
-2.182398094820763
-2.1836412587965
-2.188723552292105
-2.187459719492963
-2.179984058243015
-2.173706827380199
-2.168432675793784
-2.166987803752186
-2.16503102787541
-2.164191258008302
-2.164481850578757
-2.165300535271794
-2.173231551892064
-2.170878450014505
-2.165739710297074
-2.159917826513916
-2.154871690821819
-2.15260331167381
-2.144358901901672
-2.133907720140201
-2.114047188530947
-2.099338485635169
-2.115272456685245
-2.123066173935393
-2.131646888623902
-2.138029419333452
-2.14759533383305
-2.153603460345086
-2.164265045275572
-2.174144116378092
-2.175401396641004
-2.17067522516109
-2.16482751337346
-2.166674137129524
-2.169583563356038
-2.170638173128061
-2.168735456254965
-2.171506824062177
-2.174771845064685
-2.176237404919225
-2.180749466845157
-2.187969674020624
-2.186307732768603
-2.190943911672167
-2.196050029532847
-2.194764841891388
-2.196883250687358
-2.193201776419655
-2.185738673786582
-2.182620028223261
-2.198859034188766
-2.208869471577879
-2.208293310086741
-2.197111611549409
-2.194621027721488
-2.194677908983304
-2.18908657864523
-2.18493002649871
-2.188740936276885
-2.200329721771909
-2.204630805575106
-2.196166892773272
-2.197122814723119
-2.201133417881904
-2.200854879617392
-2.203405520141115
-2.210949627709142
-2.210435307613819
-2.201178901224258
-2.197411703747603
-2.192558394020483
-2.192016353106622
-2.195366279911056
-2.193499191940639
-2.186494285832709
-2.183143024904851
-2.178409711498275
-2.18057277748121
-2.188009867495934
-2.188934572059096
-2.185679000062739
-2.179419452918556
-2.174571073145943
-2.175144905665652
-2.176899699898244
-2.18211190629449
-2.183931404134377