/*--------------------------------*- C++ -*----------------------------------*\
| =========                 |                                                 |
| \\      /  F ield         | OpenFOAM: The Open Source CFD Toolbox           |
|  \\    /   O peration     | Version:  v1812                                 |
|   \\  /    A nd           | Web:      www.OpenFOAM.com                      |
|    \\/     M anipulation  |                                                 |
\*---------------------------------------------------------------------------*/
FoamFile
{
    version     2.0;
    format      ascii;
    class       volScalarField;
    location    "10000";
    object      nut;
}
// * * * * * * * * * * * * * * * * * * * * * * * * * * * * * * * * * * * * * //

dimensions      [0 2 -1 0 0 0 0];


internalField   nonuniform List<scalar> 
2838
(
0.0005056846276483251
0.0005056846276479725
0.0005056846276478823
0.0005056846276480009
0.0005056846276479163
0.0005056846276480308
0.0005056846276479647
0.0005056846276480722
0.0005056846276479948
0.0005056846276481231
0.0005056846276480306
0.000505684627648169
0.0005056846276480698
0.0005056846276482013
0.0005056846276480973
0.0005056846276482364
0.000505684627648125
0.0005056846276482684
0.0005056846276481397
0.0005056846276482894
0.0005056846276481568
0.0005056846276483117
0.0005056846276481538
0.0005056846276483235
0.0005056846276481566
0.0005056846276483185
0.0005056846276481462
0.0005056846276483485
0.0005056846276481462
0.0005056846276483312
0.0005056846276481314
0.0005056846276483296
0.000505684627648103
0.0005056846276483024
0.0005056846276480931
0.0005056846276483211
0.0005056846276480758
0.0005056846276483132
0.0005056846276480496
0.0005056846276482877
0.0005056846276480289
0.0005056846276482998
0.0005056846276480049
0.0005056846276482611
0.0005056846276479923
0.0005056846276482892
0.0005056846276479559
0.0005056846276482687
0.0005056846276479553
0.0005056846276483046
0.0005056846276479491
0.0005056846276483114
0.0005056846276479437
0.0005056846276483315
0.0005056846276479398
0.0005056846276483668
0.0005056846276479456
0.0005056846276483995
0.0005056846276479499
0.0005056846276484266
0.0005056846276479513
0.0005056846276484417
0.0005056846276479482
0.0005056846276484907
0.0005056846276480668
0.0005056846276486996
0.0002610668761255504
0.0002610668761256604
0.0002610668761258933
0.0002610668761258978
0.0002610668761258415
0.000261066876125967
0.0002610668761259864
0.0002610668761259691
0.0002610668761260344
0.0002610668761260552
0.0002610668761259779
0.0002610668761259745
0.0002610668761260463
0.0002610668761260492
0.0002610668761259386
0.0002610668761259304
0.0002610668761259811
0.0002610668761259772
0.0002610668761259295
0.0002610668761259748
0.0002610668761259105
0.0002610668761260569
0.000261066876125933
0.0002610668761259139
0.0002610668761258718
0.0002610668761259982
0.0002610668761259669
0.000261066876125961
0.0002610668761258674
0.0002610668761259223
0.00026106687612594
0.0002610668761260306
0.0002610668761259876
0.0002610668761259258
0.0002610668761258954
0.0002610668761260298
0.0002610668761258316
0.0002610668761257658
0.000261066876125706
0.0002610668761257549
0.0002610668761257093
0.0002610668761257551
0.000261066876125721
0.0002610668761257641
0.0002610668761257576
0.0002610668761257634
0.0002610668761256789
0.0002610668761257195
0.0002610668761256763
0.0002610668761256853
0.0002610668761255175
0.0002610668761255232
0.0002610668761254697
0.000261066876125543
0.000261066876125511
0.0002610668761255798
0.0002610668761255201
0.0002610668761255825
0.0002610668761255229
0.0002610668761255846
0.0002610668761255106
0.0002610668761256065
0.0002610668761255282
0.0002610668761256415
0.0002610668761255347
0.0002610668761256776
0.0003432361011372303
0.0003432361011376051
0.0003432361011383949
0.0003432361011387234
0.0003432361011390058
0.0003432361011390602
0.0003432361011390014
0.0003432361011390931
0.0003432361011394043
0.0003432361011394023
0.0003432361011394715
0.0003432361011392277
0.0003432361011391268
0.0003432361011390045
0.0003432361011390509
0.0003432361011388638
0.0003432361011388755
0.0003432361011385808
0.0003432361011386566
0.000343236101138635
0.0003432361011384469
0.0003432361011383312
0.0003432361011384113
0.0003432361011385738
0.0003432361011387469
0.0003432361011386785
0.0003432361011387186
0.0003432361011383458
0.0003432361011383312
0.0003432361011381878
0.0003432361011383976
0.0003432361011384708
0.0003432361011387733
0.0003432361011384344
0.0003432361011385177
0.0003432361011383796
0.0003432361011383124
0.0003432361011379416
0.0003432361011381112
0.0003432361011380996
0.0003432361011382039
0.0003432361011380257
0.0003432361011382285
0.0003432361011379126
0.0003432361011379953
0.0003432361011377157
0.0003432361011378791
0.0003432361011375517
0.0003432361011376977
0.0003432361011371409
0.000343236101137227
0.0003432361011368661
0.0003432361011371659
0.0003432361011369848
0.000343236101137374
0.0003432361011370959
0.000343236101137361
0.000343236101136998
0.0003432361011373472
0.0003432361011370058
0.0003432361011373271
0.000343236101137104
0.000343236101137398
0.0003432361011371963
0.0003432361011372221
0.0003432361011370166
0.0004712149922390997
0.0004712149922401185
0.0004712149922411188
0.0004712149922415946
0.0004712149922418053
0.0004712149922416029
0.0004712149922411183
0.0004712149922417204
0.0004712149922423497
0.0004712149922424892
0.0004712149922425567
0.0004712149922423908
0.0004712149922414461
0.0004712149922412315
0.0004712149922414654
0.0004712149922410035
0.0004712149922410017
0.0004712149922406604
0.0004712149922405597
0.0004712149922405281
0.0004712149922401568
0.0004712149922402267
0.0004712149922400309
0.0004712149922407269
0.000471214992240964
0.0004712149922409123
0.0004712149922409907
0.0004712149922402219
0.0004712149922401388
0.0004712149922398871
0.0004712149922406457
0.0004712149922405995
0.0004712149922410716
0.0004712149922403792
0.000471214992240509
0.0004712149922403892
0.0004712149922402806
0.000471214992239228
0.0004712149922398093
0.0004712149922399505
0.0004712149922399942
0.0004712149922397725
0.0004712149922402342
0.0004712149922396362
0.0004712149922396843
0.0004712149922391798
0.0004712149922394391
0.0004712149922390216
0.0004712149922388358
0.0004712149922377841
0.0004712149922380479
0.0004712149922372476
0.0004712149922378403
0.0004712149922377181
0.0004712149922383156
0.000471214992237835
0.0004712149922381402
0.0004712149922374959
0.0004712149922380808
0.0004712149922375959
0.0004712149922381855
0.0004712149922377746
0.0004712149922383102
0.0004712149922378573
0.0004712149922380547
0.0004712149922367639
0.0006168991382423661
0.000616899138244456
0.0006168991382451904
0.000616899138246046
0.0006168991382454988
0.0006168991382454026
0.0006168991382437122
0.0006168991382458529
0.0006168991382462044
0.0006168991382468534
0.0006168991382475598
0.0006168991382469398
0.0006168991382446685
0.0006168991382452689
0.0006168991382447998
0.0006168991382439299
0.0006168991382440011
0.0006168991382444418
0.0006168991382424076
0.0006168991382430664
0.0006168991382424095
0.0006168991382433883
0.0006168991382425427
0.0006168991382442047
0.0006168991382439628
0.0006168991382442566
0.0006168991382446522
0.0006168991382430993
0.0006168991382428213
0.0006168991382422101
0.0006168991382435102
0.0006168991382438437
0.0006168991382443813
0.0006168991382432504
0.0006168991382441333
0.0006168991382430801
0.0006168991382435491
0.000616899138241424
0.000616899138243148
0.0006168991382428693
0.0006168991382427149
0.000616899138242561
0.000616899138243489
0.0006168991382427485
0.0006168991382425042
0.000616899138241798
0.0006168991382422864
0.0006168991382412093
0.000616899138241283
0.0006168991382397057
0.0006168991382396439
0.0006168991382380594
0.0006168991382393521
0.0006168991382392539
0.0006168991382403434
0.0006168991382396031
0.0006168991382394798
0.000616899138238345
0.0006168991382394558
0.0006168991382389366
0.0006168991382398508
0.0006168991382394491
0.0006168991382395899
0.0006168991382390183
0.000616899138239325
0.0006168991382360519
0.000814334930838411
0.000814334930841747
0.0008143349308427734
0.0008143349308426417
0.0008143349308428347
0.000814334930842975
0.0008143349308384163
0.0008143349308446604
0.0008143349308461102
0.0008143349308446453
0.0008143349308489897
0.0008143349308451696
0.0008143349308415212
0.0008143349308438911
0.0008143349308416468
0.000814334930839985
0.0008143349308404894
0.0008143349308420453
0.0008143349308370594
0.0008143349308374365
0.0008143349308370249
0.0008143349308383898
0.0008143349308378592
0.0008143349308428202
0.0008143349308408778
0.0008143349308405995
0.0008143349308412627
0.0008143349308421534
0.0008143349308412729
0.0008143349308361168
0.0008143349308407904
0.0008143349308429087
0.0008143349308409716
0.0008143349308392341
0.0008143349308402902
0.0008143349308393993
0.0008143349308395871
0.0008143349308366146
0.0008143349308404232
0.0008143349308384437
0.0008143349308384809
0.0008143349308413867
0.0008143349308407939
0.0008143349308396447
0.0008143349308388604
0.0008143349308379514
0.000814334930838823
0.0008143349308386443
0.0008143349308349409
0.0008143349308383107
0.0008143349308344952
0.0008143349308306102
0.0008143349308354831
0.0008143349308332405
0.0008143349308375385
0.0008143349308370159
0.0008143349308316118
0.0008143349308302069
0.0008143349308328551
0.0008143349308323742
0.0008143349308341542
0.0008143349308362027
0.0008143349308319385
0.0008143349308326523
0.0008143349308353338
0.000814334930825993
0.001091509262400274
0.00109150926239717
0.001091509262403105
0.001091509262396396
0.001091509262404445
0.001091509262400055
0.001091509262392524
0.001091509262405239
0.001091509262402156
0.001091509262409989
0.001091509262408826
0.001091509262413581
0.001091509262395837
0.001091509262405029
0.001091509262398202
0.001091509262397329
0.001091509262405661
0.001091509262399566
0.001091509262392883
0.001091509262391033
0.001091509262389914
0.001091509262395929
0.001091509262391838
0.001091509262400037
0.00109150926240504
0.001091509262407743
0.001091509262398501
0.001091509262403037
0.001091509262404455
0.00109150926239059
0.001091509262394835
0.001091509262393243
0.001091509262396128
0.001091509262395354
0.001091509262404841
0.001091509262396389
0.00109150926240189
0.001091509262388562
0.001091509262399101
0.001091509262395547
0.001091509262394304
0.001091509262400354
0.001091509262399892
0.001091509262399934
0.0010915092623961
0.001091509262402439
0.001091509262393292
0.001091509262390714
0.00109150926239312
0.001091509262394159
0.00109150926239656
0.001091509262379328
0.001091509262386041
0.001091509262385992
0.001091509262391645
0.001091509262401157
0.001091509262386386
0.001091509262380831
0.001091509262387161
0.001091509262384404
0.001091509262396897
0.001091509262388661
0.001091509262383225
0.001091509262382787
0.001091509262383268
0.001091509262377667
0.001421302941188933
0.001421302941199571
0.001421302941167849
0.001421302941181474
0.001421302941178829
0.00142130294117775
0.001421302941171406
0.001421302941199813
0.001421302941185358
0.001421302941183872
0.001421302941192963
0.001421302941209526
0.001421302941174505
0.001421302941176034
0.001421302941175593
0.001421302941187786
0.001421302941186727
0.00142130294119028
0.001421302941175486
0.001421302941170329
0.001421302941166801
0.001421302941178779
0.001421302941174748
0.00142130294116899
0.001421302941183134
0.0014213029411822
0.001421302941185214
0.001421302941178968
0.001421302941185738
0.001421302941176544
0.001421302941181458
0.001421302941160534
0.001421302941194839
0.001421302941177955
0.001421302941171095
0.001421302941177245
0.001421302941167449
0.001421302941184462
0.001421302941188012
0.001421302941172202
0.00142130294117674
0.00142130294118723
0.001421302941202265
0.001421302941174976
0.001421302941183107
0.001421302941194504
0.001421302941166926
0.001421302941184836
0.001421302941179514
0.001421302941190342
0.001421302941187845
0.001421302941158452
0.001421302941160452
0.00142130294115873
0.001421302941160779
0.001421302941178216
0.001421302941178586
0.001421302941154048
0.001421302941157877
0.001421302941155165
0.001421302941159606
0.001421302941178303
0.001421302941149216
0.001421302941159115
0.001421302941177297
0.001421302941146407
0.001741969789616349
0.001741969789614533
0.001741969789606858
0.001741969789623869
0.001741969789649875
0.001741969789643889
0.001741969789590536
0.001741969789628478
0.001741969789641183
0.001741969789611427
0.001741969789645854
0.001741969789648304
0.001741969789608087
0.001741969789609387
0.001741969789607015
0.00174196978964548
0.001741969789631925
0.001741969789648645
0.00174196978960189
0.001741969789600051
0.001741969789596603
0.001741969789618759
0.001741969789645489
0.001741969789604812
0.001741969789658824
0.001741969789641775
0.001741969789670844
0.00174196978961186
0.001741969789630477
0.00174196978965165
0.001741969789646324
0.001741969789596318
0.001741969789634149
0.001741969789609501
0.001741969789601906
0.00174196978963081
0.00174196978958525
0.001741969789593387
0.001741969789598888
0.001741969789619525
0.001741969789653475
0.00174196978961051
0.001741969789624249
0.001741969789628398
0.001741969789618671
0.001741969789626024
0.00174196978961038
0.001741969789611083
0.001741969789641159
0.001741969789593186
0.001741969789622033
0.001741969789581541
0.00174196978959689
0.001741969789579427
0.001741969789568635
0.001741969789571721
0.001741969789577942
0.001741969789615842
0.001741969789602522
0.001741969789615887
0.001741969789563578
0.001741969789573116
0.001741969789568726
0.001741969789571765
0.001741969789606742
0.001741969789561332
0.00201423816544482
0.002014238165492851
0.002014238165422758
0.002014238165433792
0.002014238165433588
0.002014238165462149
0.002014238165456048
0.002014238165389667
0.00201423816541041
0.002014238165412265
0.002014238165472006
0.002014238165425283
0.002014238165466769
0.002014238165475227
0.00201423816540843
0.00201423816544481
0.002014238165498205
0.002014238165427935
0.002014238165443252
0.002014238165421007
0.00201423816541574
0.002014238165435388
0.002014238165440262
0.002014238165451813
0.002014238165424806
0.002014238165450297
0.002014238165503255
0.002014238165421523
0.00201423816544236
0.002014238165485714
0.002014238165416107
0.002014238165424231
0.002014238165427468
0.002014238165426474
0.002014238165426891
0.00201423816541432
0.002014238165410761
0.002014238165401829
0.002014238165467108
0.002014238165452753
0.002014238165499315
0.002014238165439096
0.002014238165424289
0.002014238165456893
0.002014238165435566
0.002014238165421257
0.002014238165423008
0.002014238165425431
0.002014238165479596
0.002014238165432693
0.002014238165403646
0.002014238165415072
0.002014238165443674
0.002014238165371518
0.002014238165425609
0.002014238165366508
0.002014238165379792
0.002014238165396128
0.002014238165412046
0.002014238165446082
0.002014238165367624
0.002014238165377576
0.002014238165369273
0.002014238165360404
0.002014238165389448
0.002014238165369555
0.00223089267870497
0.002230892678683183
0.002230892678658816
0.002230892678724569
0.002230892678654597
0.002230892678691709
0.002230892678691464
0.002230892678607728
0.002230892678644109
0.002230892678628144
0.002230892678616878
0.002230892678653839
0.002230892678644648
0.002230892678708592
0.002230892678639529
0.002230892678721465
0.002230892678700639
0.002230892678672062
0.002230892678666768
0.002230892678649975
0.00223089267873161
0.002230892678672597
0.002230892678638689
0.00223089267870139
0.002230892678615049
0.002230892678671756
0.002230892678745524
0.002230892678633997
0.002230892678642277
0.002230892678641663
0.002230892678710209
0.002230892678672494
0.0022308926786923
0.002230892678654282
0.002230892678640013
0.002230892678618296
0.002230892678616503
0.002230892678610512
0.002230892678684912
0.002230892678684676
0.002230892678732924
0.002230892678682557
0.002230892678644611
0.002230892678685385
0.00223089267866058
0.00223089267870621
0.002230892678624195
0.002230892678667181
0.002230892678725429
0.00223089267863958
0.002230892678615005
0.002230892678630099
0.002230892678688853
0.002230892678587899
0.00223089267860809
0.002230892678619326
0.002230892678584817
0.002230892678622014
0.002230892678626515
0.002230892678597659
0.002230892678624924
0.00223089267861773
0.002230892678586752
0.002230892678643265
0.002230892678620385
0.002230892678593125
0.002397831029656965
0.002397831029597203
0.002397831029563029
0.002397831029595389
0.002397831029653397
0.002397831029515923
0.002397831029595112
0.002397831029551158
0.002397831029522036
0.002397831029591682
0.002397831029493127
0.002397831029545361
0.002397831029630786
0.002397831029539101
0.002397831029636738
0.002397831029550352
0.002397831029612438
0.002397831029594361
0.002397831029611152
0.002397831029555575
0.002397831029626347
0.002397831029564831
0.002397831029520738
0.002397831029555105
0.002397831029544788
0.002397831029598586
0.002397831029658021
0.002397831029508629
0.002397831029516186
0.002397831029520956
0.002397831029568374
0.002397831029545547
0.002397831029574588
0.002397831029582017
0.002397831029622358
0.002397831029496565
0.002397831029533569
0.002397831029508197
0.002397831029572989
0.002397831029571146
0.002397831029640676
0.002397831029532914
0.002397831029589603
0.002397831029486933
0.002397831029571387
0.002397831029665654
0.002397831029576868
0.002397831029589796
0.002397831029592986
0.002397831029605248
0.002397831029472039
0.002397831029499841
0.002397831029520929
0.002397831029472199
0.002397831029513786
0.00239783102956404
0.002397831029449132
0.002397831029539941
0.002397831029499365
0.002397831029461265
0.002397831029490956
0.002397831029558298
0.002397831029462704
0.002397831029535399
0.002397831029519556
0.002397831029483719
0.002522354446869698
0.002522354446902823
0.00252235444677788
0.002522354446916719
0.002522354446838558
0.002522354446781782
0.002522354446802847
0.002522354446866227
0.002522354446728837
0.002522354446775388
0.002522354446851483
0.002522354446728986
0.002522354446748544
0.0025223544467487
0.002522354446852591
0.002522354446774833
0.002522354446861618
0.00252235444688432
0.002522354446788413
0.002522354446772764
0.002522354446861314
0.002522354446787479
0.002522354446733769
0.00252235444677022
0.002522354446764258
0.002522354446883189
0.002522354446817837
0.002522354446737977
0.002522354446806712
0.002522354446748991
0.002522354446819776
0.002522354446708833
0.002522354446738627
0.002522354446821413
0.002522354446829167
0.002522354446696115
0.002522354446830491
0.002522354446760407
0.002522354446755222
0.002522354446845719
0.002522354446753582
0.002522354446729248
0.00252235444672689
0.002522354446719665
0.002522354446764211
0.002522354446776567
0.002522354446786097
0.00252235444686548
0.002522354446742153
0.002522354446828335
0.00252235444667528
0.00252235444671933
0.002522354446793168
0.002522354446665523
0.00252235444677343
0.002522354446731199
0.002522354446674686
0.002522354446759371
0.00252235444671702
0.00252235444667256
0.002522354446761571
0.002522354446735791
0.00252235444669135
0.002522354446782704
0.002522354446739373
0.002522354446698084
0.002610630282690644
0.002610630282792179
0.002610630282654518
0.002610630282784223
0.00261063028271506
0.002610630282822646
0.002610630282679491
0.00261063028261173
0.00261063028267347
0.002610630282677025
0.002610630282715772
0.002610630282559191
0.002610630282580213
0.002610630282586041
0.002610630282700798
0.002610630282688194
0.002610630282756457
0.002610630282715241
0.002610630282699967
0.002610630282629678
0.002610630282602694
0.002610630282631149
0.00261063028257872
0.00261063028262148
0.002610630282617847
0.00261063028267755
0.002610630282737206
0.00261063028256133
0.002610630282569105
0.00261063028256695
0.002610630282684901
0.002610630282606736
0.002610630282619244
0.002610630282632345
0.002610630282586102
0.002610630282659336
0.002610630282554418
0.002610630282618909
0.002610630282607314
0.002610630282714909
0.00261063028262029
0.002610630282558352
0.002610630282599352
0.002610630282689653
0.002610630282569328
0.002610630282616309
0.002610630282622217
0.002610630282683626
0.002610630282647949
0.00261063028265591
0.002610630282561099
0.002610630282533064
0.002610630282520269
0.002610630282625117
0.002610630282577003
0.00261063028260285
0.002610630282521203
0.002610630282556878
0.0026106302826502
0.002610630282493431
0.002610630282557796
0.002610630282675569
0.002610630282522261
0.002610630282586022
0.002610630282664291
0.002610630282520518
0.002667816980697127
0.002667816980714425
0.00266781698083316
0.002667816980779821
0.002667816980735497
0.002667816980753264
0.002667816980739641
0.002667816980632766
0.002667816980605548
0.002667816980590804
0.002667816980619256
0.002667816980612695
0.00266781698061873
0.002667816980600623
0.002667816980694802
0.002667816980678387
0.002667816980642646
0.002667816980752786
0.002667816980699083
0.002667816980630967
0.002667816980704698
0.002667816980651648
0.002667816980594435
0.002667816980707561
0.002667816980657413
0.002667816980622147
0.002667816980727345
0.002667816980640256
0.002667816980582714
0.002667816980607833
0.002667816980721441
0.002667816980576275
0.002667816980591868
0.002667816980590763
0.00266781698060345
0.002667816980599273
0.002667816980659971
0.002667816980750141
0.002667816980733947
0.002667816980592369
0.002667816980642084
0.002667816980572003
0.002667816980718216
0.00266781698077993
0.002667816980647351
0.002667816980600981
0.002667816980736253
0.002667816980603109
0.002667816980749561
0.002667816980661108
0.002667816980574587
0.002667816980649918
0.002667816980501333
0.002667816980649582
0.002667816980599226
0.00266781698063634
0.002667816980546989
0.002667816980576668
0.002667816980655896
0.002667816980493275
0.002667816980564885
0.002667816980677603
0.002667816980548353
0.002667816980599483
0.002667816980723544
0.002667816980549917
0.002698437105944294
0.002698437105937237
0.002698437105997673
0.002698437106124653
0.00269843710596293
0.002698437105893058
0.002698437105902574
0.002698437105811914
0.002698437105802745
0.002698437105757812
0.002698437105868926
0.002698437105906013
0.002698437105745518
0.002698437105752256
0.002698437105901492
0.002698437105840144
0.002698437105792066
0.002698437105899647
0.002698437105865883
0.002698437105795823
0.002698437105920364
0.002698437105786669
0.00269843710576395
0.002698437105901883
0.002698437105847831
0.002698437105805447
0.002698437105919797
0.002698437105841168
0.00269843710576981
0.002698437105822572
0.00269843710577639
0.00269843710585811
0.002698437105897518
0.002698437105745083
0.002698437105813391
0.002698437105755389
0.002698437105933959
0.002698437105865425
0.002698437105828148
0.002698437105813886
0.002698437105921429
0.002698437105726963
0.002698437105766814
0.002698437105782259
0.002698437105791402
0.00269843710577343
0.002698437105914032
0.002698437105735062
0.002698437105842611
0.002698437105962373
0.002698437105748863
0.002698437105796914
0.002698437105887134
0.00269843710574882
0.002698437105814012
0.002698437105925887
0.002698437105724248
0.002698437105745379
0.002698437105779456
0.002698437105721558
0.002698437105847243
0.002698437105805878
0.002698437105755255
0.002698437105869853
0.002698437105825378
0.002698437105765032
0.002706688261308098
0.002706688261150353
0.002706688261196711
0.002706688261190286
0.002706688261305502
0.002706688261191103
0.002706688261128838
0.002706688261104992
0.002706688261121144
0.002706688261038996
0.002706688261115885
0.002706688261238973
0.002706688261036818
0.002706688261035745
0.002706688261113116
0.002706688261061674
0.002706688261044637
0.002706688261106104
0.002706688261248241
0.002706688261047825
0.00270668826123072
0.00270668826111306
0.002706688261058015
0.002706688261052076
0.002706688261231184
0.002706688261163065
0.002706688261148562
0.002706688261152605
0.002706688261063434
0.002706688261115519
0.002706688261202295
0.002706688261043645
0.0027066882611336
0.002706688261109129
0.002706688261134832
0.002706688261039923
0.00270668826111533
0.002706688261236218
0.002706688261050302
0.002706688261210125
0.002706688261159642
0.002706688261082715
0.002706688261198151
0.00270668826112577
0.002706688261075874
0.002706688261102441
0.00270668826123
0.002706688261048662
0.002706688261208034
0.002706688261148908
0.002706688261074934
0.002706688261077399
0.002706688261090987
0.002706688261224686
0.002706688261137656
0.002706688261297948
0.00270668826109728
0.002706688261018148
0.002706688261020361
0.002706688260999942
0.00270668826114865
0.002706688261062899
0.002706688261034938
0.002706688261167052
0.002706688261080493
0.002706688261040913
0.002696722115762975
0.002696722115696112
0.002696722115801258
0.002696722115581482
0.002696722115720081
0.002696722115599511
0.002696722115561816
0.002696722115587824
0.002696722115695759
0.002696722115488921
0.002696722115555504
0.002696722115687927
0.002696722115499059
0.002696722115547606
0.00269672211566309
0.002696722115468487
0.002696722115535664
0.002696722115547342
0.002696722115619665
0.002696722115670927
0.002696722115523058
0.00269672211550856
0.002696722115496111
0.002696722115550153
0.002696722115507794
0.002696722115573262
0.002696722115688462
0.002696722115515074
0.002696722115555268
0.00269672211549172
0.002696722115611101
0.002696722115530518
0.002696722115525584
0.002696722115585277
0.002696722115680843
0.002696722115470299
0.002696722115541607
0.00269672211566222
0.002696722115485968
0.002696722115567662
0.002696722115712415
0.002696722115530985
0.002696722115579948
0.002696722115694132
0.002696722115512949
0.002696722115571656
0.002696722115515829
0.002696722115615366
0.002696722115653306
0.002696722115507875
0.002696722115499589
0.002696722115546139
0.002696722115681988
0.002696722115526773
0.002696722115668154
0.002696722115530989
0.002696722115505935
0.002696722115536276
0.002696722115641047
0.002696722115440098
0.002696722115513804
0.002696722115646404
0.0026967221154574
0.00269672211553184
0.002696722115622765
0.002696722115445738
0.002672946443934797
0.002672946444040051
0.002672946444067963
0.00267294644387582
0.002672946444040015
0.002672946443959379
0.002672946444000136
0.002672946443822187
0.002672946443866716
0.002672946443840286
0.002672946443849217
0.002672946443862901
0.002672946443901666
0.002672946443836703
0.002672946443830861
0.002672946443921637
0.00267294644376482
0.002672946443907736
0.002672946443883569
0.002672946443848085
0.002672946443935993
0.002672946443865226
0.002672946443897919
0.002672946443927423
0.002672946443840023
0.002672946443960874
0.002672946443902556
0.002672946443925798
0.002672946443942619
0.002672946443841784
0.002672946443949384
0.002672946444081508
0.002672946443925667
0.002672946443991223
0.002672946443823225
0.002672946443815426
0.002672946443867218
0.002672946443837208
0.002672946443891394
0.002672946443883057
0.002672946443963906
0.00267294644404382
0.002672946444035123
0.002672946443845449
0.002672946443916257
0.002672946444025418
0.002672946443813366
0.002672946443881592
0.002672946443836928
0.002672946443938204
0.002672946443763222
0.00267294644394403
0.002672946443992591
0.002672946443847575
0.002672946443977486
0.002672946443878853
0.002672946443797301
0.002672946443910971
0.002672946443870871
0.002672946443805698
0.002672946443911639
0.002672946443873366
0.002672946443807839
0.002672946443920652
0.002672946443861727
0.002672946443802606
0.002640447783893531
0.002640447783894479
0.002640447783913266
0.002640447783894327
0.002640447783972957
0.002640447784068014
0.002640447783879127
0.002640447783856071
0.002640447783901103
0.002640447783848171
0.002640447783927892
0.002640447783889733
0.002640447783912406
0.002640447783836322
0.002640447783839481
0.002640447783824702
0.002640447783807936
0.002640447783813956
0.002640447783833607
0.002640447783820491
0.002640447783942149
0.002640447783779045
0.00264044778386974
0.002640447783999805
0.002640447783820883
0.002640447783848054
0.00264044778385422
0.002640447783996129
0.002640447783932052
0.002640447783852719
0.002640447783904225
0.002640447784014875
0.002640447783843471
0.002640447783860025
0.002640447783827193
0.002640447783852271
0.002640447783815807
0.00264044778388082
0.002640447784016822
0.002640447783889294
0.002640447783932217
0.002640447784033699
0.002640447784052269
0.002640447783858493
0.002640447784001646
0.00264044778394217
0.002640447783865715
0.002640447783912458
0.002640447783964489
0.002640447783964236
0.002640447783768029
0.002640447783854376
0.002640447783987035
0.002640447783824886
0.002640447783873411
0.002640447783934486
0.002640447783821847
0.002640447783868463
0.002640447783976531
0.002640447783788658
0.002640447783914527
0.002640447783819485
0.00264044778379472
0.002640447783916769
0.002640447783793746
0.002640447783791928
0.0026059199131858
0.002605919913177491
0.002605919913186087
0.002605919913171183
0.002605919913221091
0.002605919913317907
0.002605919913163337
0.002605919913207572
0.002605919913276305
0.002605919913135197
0.002605919913174287
0.002605919913220926
0.00260591991315505
0.002605919913162573
0.002605919913187956
0.002605919913142838
0.002605919913230911
0.002605919913170874
0.002605919913141105
0.002605919913172149
0.002605919913150633
0.002605919913129708
0.002605919913187098
0.002605919913292643
0.00260591991314557
0.002605919913152247
0.002605919913150915
0.002605919913267711
0.002605919913222854
0.002605919913165577
0.002605919913173671
0.002605919913179698
0.002605919913135896
0.002605919913157657
0.002605919913131557
0.002605919913123343
0.002605919913231991
0.002605919913211348
0.002605919913333793
0.002605919913261299
0.002605919913240848
0.002605919913269841
0.002605919913278027
0.002605919913200862
0.002605919913267373
0.002605919913225501
0.002605919913232938
0.002605919913239513
0.002605919913181987
0.002605919913204472
0.002605919913144023
0.002605919913248135
0.002605919913221495
0.002605919913178301
0.002605919913271277
0.002605919913223083