/*--------------------------------*- C++ -*----------------------------------*\
| =========                 |                                                 |
| \\      /  F ield         | OpenFOAM: The Open Source CFD Toolbox           |
|  \\    /   O peration     | Version:  v1812                                 |
|   \\  /    A nd           | Web:      www.OpenFOAM.com                      |
|    \\/     M anipulation  |                                                 |
\*---------------------------------------------------------------------------*/
FoamFile
{
    version     2.0;
    format      ascii;
    class       volScalarField;
    location    "10000";
    object      nuTilda_0;
}
// * * * * * * * * * * * * * * * * * * * * * * * * * * * * * * * * * * * * * //

dimensions      [0 2 -1 0 0 0 0];


internalField   nonuniform List<scalar> 
2838
(
0.0005060338786496364
0.0005060338786492774
0.0005060338786491717
0.0005060338786493041
0.000506033878649224
0.0005060338786493376
0.0005060338786492523
0.000506033878649388
0.000506033878649296
0.0005060338786494332
0.0005060338786493366
0.0005060338786494737
0.000506033878649372
0.0005060338786495154
0.0005060338786494085
0.000506033878649551
0.0005060338786494363
0.0005060338786495785
0.0005060338786494538
0.0005060338786495966
0.0005060338786494534
0.0005060338786496187
0.0005060338786494596
0.0005060338786496089
0.0005060338786494515
0.000506033878649642
0.0005060338786494586
0.0005060338786496206
0.0005060338786494397
0.0005060338786496265
0.0005060338786494073
0.000506033878649601
0.0005060338786494066
0.0005060338786496214
0.0005060338786493918
0.000506033878649611
0.0005060338786493766
0.0005060338786496023
0.0005060338786493469
0.0005060338786495979
0.0005060338786493201
0.0005060338786495771
0.0005060338786493218
0.0005060338786496181
0.0005060338786492927
0.0005060338786495743
0.0005060338786492817
0.0005060338786496146
0.000506033878649274
0.0005060338786496049
0.0005060338786492655
0.0005060338786496292
0.0005060338786492577
0.0005060338786496444
0.0005060338786492534
0.0005060338786496795
0.0005060338786492596
0.0005060338786497119
0.000506033878649262
0.000506033878649738
0.0005060338786492583
0.0005060338786497486
0.0005060338786492541
0.0005060338786497999
0.0005060338786493738
0.0005060338786500059
0.0002623606323710958
0.0002623606323712258
0.0002623606323713583
0.0002623606323713769
0.0002623606323713735
0.000262360632371516
0.0002623606323715247
0.0002623606323715733
0.0002623606323715629
0.0002623606323715439
0.0002623606323715572
0.0002623606323715465
0.0002623606323715858
0.0002623606323716058
0.0002623606323715044
0.0002623606323715089
0.0002623606323714743
0.000262360632371465
0.0002623606323714989
0.000262360632371631
0.0002623606323714757
0.0002623606323714456
0.0002623606323714052
0.0002623606323714434
0.0002623606323714204
0.0002623606323715324
0.0002623606323715506
0.000262360632371476
0.00026236063237138
0.0002623606323714943
0.0002623606323714971
0.000262360632371512
0.0002623606323715183
0.0002623606323715781
0.0002623606323714445
0.0002623606323713998
0.0002623606323713226
0.0002623606323713298
0.0002623606323712797
0.0002623606323713243
0.000262360632371281
0.0002623606323713564
0.0002623606323713459
0.000262360632371455
0.0002623606323712895
0.0002623606323712519
0.0002623606323712593
0.0002623606323713035
0.000262360632371113
0.0002623606323711018
0.0002623606323710295
0.0002623606323710758
0.0002623606323710336
0.00026236063237111
0.0002623606323710742
0.0002623606323711416
0.0002623606323710867
0.0002623606323711584
0.0002623606323710965
0.0002623606323711464
0.000262360632371073
0.0002623606323711709
0.0002623606323710885
0.0002623606323711861
0.0002623606323710756
0.0002623606323712192
0.0003439907576628052
0.0003439907576631989
0.0003439907576640194
0.000343990757664332
0.0003439907576644513
0.0003439907576647241
0.0003439907576646649
0.000343990757664721
0.000343990757665004
0.0003439907576649869
0.0003439907576650109
0.0003439907576648198
0.0003439907576647915
0.000343990757664702
0.000343990757664781
0.0003439907576646169
0.0003439907576646264
0.0003439907576642936
0.0003439907576642652
0.0003439907576643208
0.0003439907576641009
0.000343990757664195
0.0003439907576642449
0.0003439907576642856
0.00034399075766439
0.0003439907576643071
0.0003439907576643621
0.0003439907576639214
0.0003439907576639664
0.0003439907576638962
0.0003439907576641445
0.0003439907576643841
0.0003439907576644441
0.0003439907576641306
0.0003439907576642946
0.0003439907576638388
0.0003439907576638892
0.0003439907576636185
0.000343990757663764
0.0003439907576637096
0.0003439907576638521
0.0003439907576635779
0.0003439907576638875
0.0003439907576634566
0.0003439907576635187
0.000343990757663274
0.0003439907576634951
0.0003439907576631267
0.0003439907576630049
0.0003439907576626352
0.0003439907576627878
0.0003439907576625078
0.0003439907576628166
0.0003439907576626725
0.0003439907576630399
0.0003439907576627477
0.0003439907576630493
0.0003439907576627311
0.000343990757663082
0.0003439907576626579
0.0003439907576630077
0.0003439907576628049
0.0003439907576631095
0.0003439907576628052
0.00034399075766281
0.0003439907576626045
0.000471617012007344
0.0004716170120083226
0.0004716170120093894
0.00047161701200957
0.0004716170120098475
0.0004716170120097199
0.0004716170120095987
0.0004716170120099801
0.0004716170120104449
0.0004716170120105012
0.0004716170120105448
0.0004716170120099842
0.0004716170120097663
0.0004716170120097546
0.0004716170120098697
0.0004716170120095386
0.0004716170120095645
0.0004716170120089839
0.0004716170120091309
0.0004716170120091514
0.0004716170120085006
0.0004716170120087655
0.0004716170120088997
0.0004716170120092687
0.0004716170120093822
0.0004716170120092057
0.00047161701200924
0.0004716170120083032
0.0004716170120084455
0.0004716170120083109
0.0004716170120091362
0.0004716170120091428
0.0004716170120094654
0.0004716170120086314
0.0004716170120089828
0.0004716170120086608
0.0004716170120081519
0.000471617012007756
0.0004716170120082092
0.0004716170120082021
0.0004716170120083096
0.000471617012008053
0.0004716170120082431
0.0004716170120075705
0.0004716170120077407
0.0004716170120072359
0.0004716170120075048
0.000471617012007141
0.000471617012006589
0.0004716170120058603
0.0004716170120060433
0.00047161701200551
0.0004716170120060857
0.0004716170120059255
0.0004716170120066171
0.0004716170120061037
0.0004716170120065097
0.0004716170120059469
0.0004716170120065762
0.0004716170120058901
0.0004716170120065602
0.0004716170120061903
0.0004716170120068132
0.0004716170120060795
0.0004716170120063276
0.000471617012005028
0.0006171340324898902
0.0006171340324916387
0.000617134032492155
0.0006171340324925722
0.0006171340324929066
0.0006171340324915743
0.0006171340324913365
0.0006171340324931271
0.000617134032493995
0.0006171340324938152
0.0006171340324942709
0.0006171340324936486
0.0006171340324914544
0.0006171340324919876
0.0006171340324922114
0.0006171340324912231
0.0006171340324914729
0.0006171340324907628
0.0006171340324907591
0.000617134032491792
0.0006171340324896467
0.0006171340324903275
0.0006171340324907058
0.0006171340324917062
0.0006171340324917196
0.0006171340324921299
0.0006171340324916283
0.0006171340324901119
0.0006171340324901119
0.0006171340324898443
0.0006171340324919409
0.0006171340324913504
0.0006171340324917092
0.0006171340324903906
0.0006171340324906942
0.000617134032491073
0.00061713403249046
0.0006171340324887326
0.0006171340324902078
0.0006171340324907832
0.0006171340324897771
0.0006171340324899106
0.0006171340324907144
0.0006171340324893113
0.0006171340324893881
0.0006171340324886308
0.0006171340324888231
0.0006171340324885738
0.0006171340324876052
0.00061713403248629
0.0006171340324864409
0.0006171340324851283
0.0006171340324867993
0.0006171340324861472
0.0006171340324872571
0.0006171340324864494
0.0006171340324867829
0.000617134032485898
0.0006171340324869786
0.0006171340324863349
0.0006171340324871969
0.0006171340324865581
0.0006171340324873209
0.0006171340324863897
0.0006171340324865496
0.0006171340324836404
0.0008144698193072467
0.0008144698193093549
0.0008144698193106535
0.0008144698193136827
0.000814469819312705
0.0008144698193084462
0.0008144698193082399
0.0008144698193136284
0.000814469819314896
0.0008144698193167776
0.0008144698193151078
0.0008144698193149915
0.0008144698193086569
0.0008144698193108894
0.0008144698193126361
0.0008144698193074327
0.0008144698193091222
0.0008144698193083285
0.0008144698193062598
0.0008144698193080531
0.0008144698193062821
0.0008144698193074166
0.0008144698193074139
0.0008144698193118413
0.0008144698193127755
0.0008144698193095926
0.0008144698193109951
0.0008144698193077379
0.0008144698193072918
0.0008144698193067952
0.0008144698193090962
0.000814469819312106
0.0008144698193127911
0.0008144698193069259
0.0008144698193094341
0.0008144698193077017
0.0008144698193088885
0.0008144698193047286
0.0008144698193083199
0.000814469819309032
0.0008144698193072591
0.0008144698193086044
0.0008144698193117309
0.0008144698193066707
0.0008144698193071314
0.0008144698193060074
0.0008144698193084044
0.0008144698193040252
0.000814469819303828
0.0008144698193039177
0.0008144698193040128
0.0008144698192978379
0.0008144698193029324
0.0008144698193046945
0.0008144698193036532
0.0008144698193020966
0.0008144698193017669
0.0008144698193001321
0.0008144698193022334
0.0008144698193016807
0.0008144698193027631
0.0008144698193021278
0.0008144698193019753
0.0008144698193038365
0.0008144698193006889
0.0008144698192967559
0.001091584364553863
0.001091584364554722
0.001091584364557216
0.001091584364558616
0.001091584364555063
0.001091584364554315
0.001091584364552247
0.001091584364558748
0.001091584364560504
0.00109158436456588
0.00109158436457631
0.001091584364560951
0.001091584364554089
0.001091584364558217
0.001091584364563596
0.001091584364552655
0.001091584364557296
0.001091584364560982
0.001091584364546019
0.001091584364549202
0.001091584364548333
0.001091584364559594
0.001091584364547138
0.001091584364554478
0.001091584364557155
0.001091584364560254
0.001091584364561529
0.00109158436455258
0.001091584364551878
0.001091584364550648
0.001091584364559098
0.001091584364555308
0.001091584364558326
0.001091584364552861
0.001091584364558735
0.001091584364559894
0.001091584364552053
0.001091584364548506
0.001091584364554127
0.001091584364564183
0.001091584364552045
0.001091584364563951
0.001091584364558474
0.001091584364561739
0.001091584364550174
0.001091584364553205
0.001091584364558392
0.001091584364546725
0.001091584364549011
0.001091584364556338
0.001091584364540733
0.001091584364537115
0.001091584364550956
0.001091584364547677
0.001091584364557086
0.001091584364552601
0.00109158436455091
0.001091584364538929
0.001091584364553617
0.00109158436454427
0.001091584364551707
0.001091584364553016
0.001091584364539564
0.001091584364541461
0.001091584364541424
0.00109158436453594
0.00142134723911438
0.00142134723911626
0.001421347239119078
0.001421347239135766
0.001421347239112732
0.001421347239118574
0.001421347239108182
0.001421347239130388
0.001421347239138648
0.001421347239124612
0.001421347239142793
0.001421347239127662
0.001421347239114113
0.001421347239117608
0.001421347239115434
0.001421347239140287
0.001421347239124582
0.001421347239134407
0.001421347239103363
0.001421347239107027
0.001421347239103445
0.001421347239127881
0.001421347239109134
0.00142134723911241
0.001421347239135331
0.001421347239115705
0.001421347239125697
0.001421347239112469
0.001421347239128074
0.001421347239105909
0.001421347239106857
0.001421347239109625
0.001421347239127288
0.0014213472391317
0.001421347239104189
0.001421347239124365
0.001421347239100135
0.00142134723910893
0.001421347239111892
0.001421347239118105
0.001421347239117671
0.001421347239140686
0.001421347239121294
0.001421347239111927
0.001421347239130476
0.001421347239108661
0.001421347239107336
0.001421347239115044
0.001421347239132596
0.001421347239129521
0.001421347239120072
0.001421347239089419
0.001421347239102226
0.001421347239100083
0.001421347239108886
0.00142134723910091
0.00142134723909691
0.001421347239095999
0.001421347239097398
0.001421347239091594
0.001421347239107023
0.001421347239101237
0.001421347239091143
0.001421347239110815
0.001421347239098474
0.00142134723909005
0.001741999281027963
0.001741999280996748
0.001741999280998557
0.00174199928103683
0.001741999281009887
0.001741999280991074
0.001741999280982492
0.001741999281001499
0.001741999281008726
0.001741999281023902
0.001741999281011181
0.001741999281008764
0.00174199928100342
0.001741999281005931
0.001741999281000511
0.001741999281016456
0.001741999281045578
0.001741999281001676
0.001741999280991684
0.001741999280992044
0.001741999280985227
0.001741999281032872
0.001741999281004826
0.001741999280999515
0.001741999281042965
0.001741999281060605
0.0017419992810268
0.001741999281002386
0.001741999281042401
0.001741999281008424
0.001741999280997506
0.001741999280993713
0.001741999280995169
0.001741999280997972
0.001741999281007688
0.001741999280988454
0.001741999280979133
0.001741999280996475
0.001741999280991764
0.00174199928102915
0.001741999281015321
0.001741999281005557
0.001741999281031176
0.001741999281031035
0.001741999281004373
0.001741999281028452
0.001741999280990525
0.001741999281006169
0.001741999280996089
0.001741999280994351
0.001741999280980843
0.001741999280976994
0.001741999281004432
0.00174199928095982
0.001741999280962832
0.001741999280980647
0.001741999280973105
0.001741999280989396
0.001741999281019034
0.001741999280961652
0.001741999280957256
0.00174199928097436
0.001741999280957728
0.001741999280972835
0.001741999280964246
0.001741999280958282
0.002014260223391661
0.002014260223361122
0.002014260223342613
0.002014260223360048
0.002014260223357501
0.002014260223319863
0.002014260223312135
0.002014260223309024
0.002014260223343617
0.002014260223332411
0.002014260223354453
0.002014260223358392
0.002014260223339727
0.002014260223336494
0.00201426022333546
0.002014260223392624
0.002014260223367881
0.002014260223339506
0.002014260223376189
0.002014260223320323
0.002014260223320396
0.002014260223366747
0.002014260223362875
0.002014260223386099
0.002014260223319686
0.002014260223389568
0.002014260223369262
0.002014260223338627
0.002014260223380447
0.002014260223350123
0.002014260223328777
0.002014260223335262
0.002014260223361129
0.002014260223344206
0.002014260223351635
0.002014260223318136
0.002014260223332167
0.002014260223312091
0.002014260223360854
0.002014260223420018
0.002014260223371994
0.002014260223371237
0.002014260223328516
0.002014260223345053
0.002014260223384408
0.002014260223324245
0.002014260223350577
0.002014260223340423
0.002014260223355221
0.002014260223373947
0.00201426022329166
0.002014260223344426
0.002014260223297694
0.002014260223291335
0.002014260223295401
0.002014260223301714
0.002014260223332781
0.002014260223330456
0.002014260223347747
0.002014260223302879
0.002014260223283032
0.002014260223302602
0.002014260223277197
0.002014260223283585
0.002014260223331551
0.002014260223266513
0.002230910660518894
0.002230910660584829
0.002230910660508158
0.002230910660535336
0.002230910660538149
0.002230910660488189
0.002230910660480372
0.002230910660479338
0.002230910660552638
0.002230910660483906
0.002230910660491628
0.002230910660565237
0.002230910660494602
0.002230910660513459
0.002230910660522869
0.002230910660563839
0.00223091066060618
0.002230910660514602
0.002230910660524177
0.002230910660506431
0.002230910660558146
0.002230910660567581
0.00223091066047908
0.00223091066050368
0.002230910660511896
0.002230910660593679
0.002230910660548543
0.002230910660503581
0.002230910660525354
0.002230910660502619
0.0022309106605347
0.002230910660589259
0.00223091066058702
0.002230910660489334
0.00223091066048994
0.002230910660469176
0.002230910660480146
0.00223091066047296
0.002230910660508129
0.00223091066051942
0.002230910660547722
0.00223091066059729
0.002230910660480838
0.002230910660487279
0.002230910660493159
0.002230910660508254
0.002230910660513196
0.002230910660580136
0.002230910660524088
0.002230910660523527
0.002230910660467367
0.002230910660514414
0.002230910660491667
0.002230910660460389
0.002230910660487326
0.002230910660482055
0.002230910660461521
0.00223091066048075
0.002230910660537858
0.002230910660437209
0.00223091066046155
0.002230910660526024
0.002230910660432162
0.00223091066046741
0.002230910660534231
0.002230910660438265
0.002397846594979737
0.002397846595013671
0.002397846594915835
0.002397846594988727
0.002397846594931422
0.002397846594870175
0.002397846594906294
0.002397846594979498
0.002397846594878042
0.002397846594886287
0.002397846594892316
0.002397846594984947
0.002397846594949947
0.002397846594931983
0.002397846594959137
0.002397846594959334
0.002397846595060091
0.002397846594967862
0.002397846595017117
0.002397846594886503
0.002397846594931994
0.002397846594977129
0.002397846594861743
0.002397846594959045
0.002397846594925994
0.002397846595030235
0.002397846594933462
0.002397846594871638
0.002397846594905014
0.002397846594902232
0.00239784659499101
0.002397846594915746
0.002397846594983961
0.00239784659497693
0.002397846594942563
0.002397846594858307
0.002397846594945846
0.002397846594860044
0.002397846594906312
0.002397846595013612
0.00239784659493859
0.002397846594936997
0.002397846594878971
0.002397846594862967
0.002397846594904168
0.002397846594987457
0.00239784659498824
0.002397846594982859
0.002397846594983617
0.002397846594865817
0.002397846594850312
0.002397846594901332
0.002397846594891135
0.002397846594848749
0.002397846594934704
0.00239784659484556
0.002397846594833537
0.002397846594867045
0.002397846594921433
0.00239784659480332
0.002397846594893969
0.002397846594877443
0.002397846594839481
0.002397846594873351
0.002397846594950895
0.002397846594829114
0.002522368513356645
0.002522368513372372
0.002522368513373004
0.002522368513438727
0.002522368513439856
0.002522368513294718
0.00252236851339391
0.002522368513344365
0.002522368513308827
0.002522368513397013
0.002522368513345204
0.002522368513328461
0.002522368513335259
0.002522368513330256
0.002522368513341176
0.00252236851334695
0.002522368513367312
0.002522368513372768
0.002522368513383583
0.002522368513336998
0.002522368513362711
0.002522368513406133
0.002522368513265433
0.002522368513379633
0.002522368513342256
0.002522368513395369
0.002522368513428976
0.002522368513250225
0.002522368513304037
0.002522368513389588
0.002522368513296446
0.002522368513292295
0.00252236851333721
0.002522368513303803
0.002522368513286644
0.002522368513274936
0.002522368513361267
0.002522368513385732
0.002522368513323954
0.002522368513338891
0.002522368513348174
0.002522368513286525
0.002522368513288259
0.002522368513284988
0.002522368513386414
0.002522368513358505
0.002522368513379871
0.002522368513329915
0.002522368513323666
0.002522368513292494
0.002522368513246877
0.002522368513345756
0.002522368513275774
0.002522368513242398
0.002522368513286384
0.002522368513352618
0.002522368513206682
0.002522368513256895
0.00252236851335513
0.002522368513216482
0.002522368513269729
0.002522368513372276
0.002522368513236553
0.002522368513284755
0.002522368513379196
0.002522368513242394
0.002610643414200258
0.002610643414146316
0.002610643414121129
0.002610643414165864
0.002610643414238422
0.002610643414187583
0.002610643414172702
0.002610643414020183
0.002610643414028513
0.002610643414037889
0.002610643414055017
0.002610643414056477
0.002610643414073994
0.002610643414053977
0.002610643414075496
0.002610643414088655
0.002610643414120989
0.002610643414149245
0.002610643414230342
0.002610643414035863
0.002610643414041423
0.002610643414125619
0.002610643413995861
0.002610643414125098
0.002610643414079384
0.002610643414198018
0.00261064341406727
0.002610643413999573
0.002610643414033695
0.002610643414018047
0.002610643414064009
0.00261064341414545
0.002610643414144668
0.00261064341413936
0.002610643413999112
0.00261064341401446
0.002610643414016997
0.002610643414134863
0.00261064341406836
0.002610643414094197
0.002610643414124335
0.002610643413964266
0.002610643414097336
0.002610643414053216
0.002610643414043236
0.00261064341412815
0.002610643414093831
0.002610643414219567
0.002610643414093382
0.002610643414119125
0.002610643413948647
0.002610643413964832
0.00261064341396145
0.002610643414015818
0.002610643414094518
0.002610643414089263
0.002610643413915749
0.002610643414040708
0.002610643414004698
0.002610643413965269
0.002610643414069592
0.002610643414042828
0.00261064341399055
0.002610643414097173
0.002610643414003903
0.002610643413991034
0.002667829555322972
0.002667829555296234
0.00266782955534928
0.00266782955543732
0.002667829555297831
0.002667829555360467
0.002667829555347788
0.002667829555162273
0.002667829555172705
0.00266782955517073
0.002667829555243293
0.002667829555223265
0.002667829555252711
0.002667829555191716
0.002667829555239968
0.002667829555357219
0.00266782955520216
0.002667829555267757
0.002667829555379786
0.00266782955517642
0.002667829555222389
0.002667829555325638
0.00266782955515114
0.002667829555226363
0.002667829555340715
0.002667829555181183
0.002667829555222633
0.002667829555306611
0.002667829555137128
0.002667829555231852
0.002667829555214112
0.002667829555194249
0.002667829555205141
0.002667829555192399
0.002667829555220093
0.002667829555194338
0.00266782955533241
0.002667829555239079
0.002667829555195271
0.002667829555189881
0.002667829555285467
0.002667829555120949
0.002667829555253468
0.002667829555274451
0.002667829555303982
0.002667829555162667
0.002667829555243396
0.002667829555248961
0.00266782955527528
0.002667829555302149
0.002667829555103939
0.002667829555111949
0.00266782955511484
0.002667829555182937
0.002667829555270436
0.00266782955526768
0.002667829555075182
0.002667829555214625
0.002667829555110193
0.002667829555103748
0.002667829555230167
0.002667829555207338
0.002667829555151559
0.002667829555247435
0.002667829555209127
0.002667829555155388
0.002698449396901588
0.002698449396849249
0.002698449396951681
0.00269844939691155
0.002698449396904789
0.002698449396726127
0.002698449396808297
0.00269844939662547
0.002698449396693967
0.002698449396613062
0.002698449396647113
0.002698449396658299
0.002698449396660738
0.002698449396650824
0.002698449396708858
0.002698449396825501
0.002698449396650039
0.002698449396706953
0.002698449396833514
0.002698449396633374
0.002698449396697143
0.002698449396713042
0.00269844939663642
0.002698449396716144
0.002698449396829282
0.002698449396647826
0.002698449396699506
0.002698449396802266
0.002698449396601459
0.00269844939676753
0.002698449396603522
0.002698449396637691
0.002698449396653943
0.002698449396655435
0.002698449396767604
0.00269844939659548
0.002698449396755376
0.002698449396820476
0.002698449396691768
0.002698449396707759
0.00269844939666785
0.002698449396612176
0.002698449396675178
0.002698449396648766
0.00269844939669714
0.002698449396639079
0.00269844939667496
0.00269844939668986
0.002698449396835531
0.002698449396721766
0.002698449396623833
0.002698449396726785
0.002698449396659717
0.002698449396641303
0.00269844939676343
0.002698449396677253
0.00269844939660458
0.002698449396633637
0.002698449396750652
0.002698449396576744
0.002698449396655318
0.002698449396790092
0.002698449396612161
0.002698449396673425
0.00269844939679833
0.002698449396610603
0.002706700477286857
0.002706700477291975
0.002706700477332754
0.002706700477246452
0.002706700477281295
0.002706700477347087
0.002706700477162677
0.002706700477179237
0.002706700477169691
0.002706700477132854
0.002706700477274887
0.002706700477191328
0.002706700477138479
0.002706700477146214
0.002706700477269736
0.002706700477111319
0.002706700477137265
0.002706700477271735
0.002706700477206767
0.002706700477114157
0.002706700477237317
0.002706700477280389
0.002706700477112929
0.002706700477137116
0.002706700477263446
0.00270670047736677
0.002706700477226332
0.002706700477263594
0.002706700477070297
0.002706700477275336
0.002706700477161815
0.002706700477141219
0.002706700477314196
0.002706700477199164
0.002706700477248382
0.002706700477052267
0.002706700477264148
0.002706700477197654
0.002706700477150046
0.002706700477229137
0.002706700477330039
0.002706700477125203
0.002706700477189711
0.002706700477304684
0.002706700477130579
0.002706700477226965
0.00270670047719761
0.002706700477162543
0.002706700477227489
0.002706700477332466
0.002706700477116241
0.002706700477177708
0.002706700477177617
0.002706700477237439
0.002706700477308653
0.002706700477273345
0.002706700477243717
0.002706700477074826
0.002706700477096847
0.002706700477080441
0.002706700477141308
0.002706700477217711
0.002706700477112785
0.002706700477153742
0.002706700477237456
0.002706700477106061
0.002696734422249247
0.002696734422360418
0.002696734422215746
0.002696734422128162
0.002696734422151661
0.002696734422197995
0.002696734422077502
0.002696734422189035
0.002696734422109969
0.002696734422042373
0.002696734422173246
0.002696734422109026
0.002696734422053257
0.002696734422164352
0.002696734422081914
0.002696734422016073
0.002696734422181876
0.002696734422134466
0.002696734422233951
0.00269673442218181
0.002696734422014229
0.002696734422039294
0.002696734422023577
0.002696734422150832
0.002696734421996997
0.002696734422185722
0.002696734422108993
0.002696734422052312
0.002696734422137943
0.002696734421975927
0.002696734422040172
0.002696734422153371
0.002696734422057295
0.002696734422200136
0.002696734422089002
0.002696734422018794
0.002696734422155222
0.002696734422077918
0.002696734422042069
0.002696734422182053
0.002696734422141704
0.002696734422080904
0.002696734422166391
0.002696734422125412
0.002696734422065891
0.002696734422170578
0.002696734422002461
0.002696734422043158
0.002696734422061988
0.002696734422094745
0.002696734422059292
0.002696734422148991
0.002696734422125519
0.002696734422090543
0.002696734422103577
0.002696734422108906
0.002696734422037775
0.002696734422134006
0.002696734422056064
0.002696734421993682
0.00269673442212331
0.002696734422075382
0.002696734422018013
0.00269673442214366
0.002696734422023009
0.002696734422004803
0.002672958970363347
0.002672958970340065
0.002672958970326932
0.002672958970309334
0.002672958970374492
0.002672958970460365
0.002672958970259179
0.002672958970254441
0.00267295897031883
0.002672958970250007
0.002672958970287506
0.002672958970281024
0.002672958970376179
0.002672958970203283
0.002672958970231913
0.002672958970209552
0.002672958970200729
0.002672958970267845
0.002672958970408668
0.002672958970226633
0.002672958970275293
0.002672958970385026
0.002672958970370616
0.002672958970388779
0.002672958970198506
0.002672958970289975
0.002672958970405055
0.002672958970388885
0.002672958970394013
0.00267295897018516
0.002672958970277764
0.002672958970417303
0.002672958970420563
0.002672958970259834
0.002672958970243845
0.002672958970244628
0.002672958970352647
0.002672958970206728
0.002672958970376456
0.002672958970304786
0.002672958970460407
0.002672958970343712
0.002672958970297174
0.002672958970256614
0.002672958970427365
0.002672958970308188
0.002672958970222703
0.002672958970358057
0.002672958970198702
0.002672958970225681
0.002672958970228529
0.002672958970303873
0.002672958970305791
0.002672958970310102
0.002672958970270473
0.002672958970260251
0.002672958970224958
0.002672958970263584
0.002672958970352937
0.002672958970191964
0.002672958970252294
0.002672958970382029
0.002672958970189274
0.002672958970248649
0.002672958970371233
0.002672958970186566
0.002640460620495072
0.002640460620480665
0.002640460620532458
0.002640460620503576
0.002640460620661496
0.002640460620550007
0.002640460620479471
0.002640460620495717
0.002640460620593258
0.002640460620424976
0.00264046062047118
0.002640460620579862
0.002640460620570489
0.002640460620399987
0.002640460620464218
0.002640460620410707
0.002640460620414621
0.00264046062041446
0.002640460620468511
0.002640460620411191
0.002640460620430191
0.002640460620445853
0.002640460620577972
0.002640460620498723
0.002640460620439016
0.002640460620480353
0.002640460620472601
0.002640460620538156
0.002640460620618797
0.002640460620398643
0.002640460620569023
0.002640460620498555
0.00264046062045802
0.002640460620480096
0.0026404606204133
0.002640460620501623
0.002640460620382726
0.002640460620576188
0.002640460620544653
0.002640460620539352
0.002640460620592765
0.002640460620523647
0.002640460620505814
0.002640460620477093
0.002640460620544729
0.002640460620620409
0.0026404606204109
0.002640460620573289
0.002640460620445902
0.002640460620408502
0.002640460620375052
0.002640460620534677
0.002640460620483959
0.00264046062044595
0.002640460620515013
0.002640460620492537
0.002640460620425944
0.002640460620517926
0.002640460620465641
0.002640460620395782
0.002640460620425458
0.002640460620475502
0.002640460620384971
0.0026404606204158
0.002640460620430178
0.002640460620401194
0.002605933092111744
0.002605933092090535
0.00260593309212714
0.002605933092082396
0.002605933092190522
0.002605933092134373
0.002605933092085042
0.002605933092189871
0.002605933092087684
0.002605933092067297
0.002605933092131819
0.002605933092118408
0.002605933092075077
0.002605933092094228
0.002605933092180849
0.002605933092033187
0.002605933092079616
0.002605933092162465
0.002605933092037911
0.002605933092137875
0.002605933092049037
0.002605933092049776
0.002605933092172859
0.002605933092115382
0.002605933092071265
0.002605933092081338
0.00260593309207222
0.002605933092121603
0.002605933092213597
0.002605933092040686
0.002605933092107454
0.002605933092099024
0.002605933092054752
0.002605933092104778
0.002605933092035548
0.002605933092035823
0.002605933092084506
0.002605933092111213
0.002605933092187796
0.002605933092258065
0.002605933092154265
0.002605933092213458
0.002605933092208006
0.002605933092073046
0.002605933092112733
0.002605933092202765
0.002605933092176793
0.00260593309218168
0.002605933092041701
0.002605933092143062
0.002605933092024793
0.002605933092107811
0.002605933092214058
0.002605933092073243
0.002605933092118925
0.002605933092210425