/*--------------------------------*- C++ -*----------------------------------*\
| =========                 |                                                 |
| \\      /  F ield         | OpenFOAM: The Open Source CFD Toolbox           |
|  \\    /   O peration     | Version:  v1812                                 |
|   \\  /    A nd           | Web:      www.OpenFOAM.com                      |
|    \\/     M anipulation  |                                                 |
\*---------------------------------------------------------------------------*/
FoamFile
{
    version     2.0;
    format      ascii;
    class       volScalarField;
    location    "10000";
    object      nuTilda;
}
// * * * * * * * * * * * * * * * * * * * * * * * * * * * * * * * * * * * * * //

dimensions      [0 2 -1 0 0 0 0];


internalField   nonuniform List<scalar> 
2838
(
0.0005060338786541461
0.0005060338786537941
0.000506033878653704
0.0005060338786538224
0.0005060338786537379
0.0005060338786538522
0.0005060338786537863
0.0005060338786538936
0.0005060338786538163
0.0005060338786539443
0.0005060338786538521
0.0005060338786539902
0.0005060338786538911
0.0005060338786540224
0.0005060338786539186
0.0005060338786540575
0.0005060338786539463
0.0005060338786540895
0.0005060338786539609
0.0005060338786541104
0.0005060338786539781
0.0005060338786541328
0.000506033878653975
0.0005060338786541445
0.0005060338786539778
0.0005060338786541395
0.0005060338786539674
0.0005060338786541695
0.0005060338786539675
0.0005060338786541522
0.0005060338786539528
0.0005060338786541508
0.0005060338786539244
0.0005060338786541234
0.0005060338786539144
0.0005060338786541421
0.0005060338786538972
0.0005060338786541343
0.000506033878653871
0.0005060338786541087
0.0005060338786538503
0.0005060338786541209
0.0005060338786538264
0.0005060338786540821
0.0005060338786538138
0.0005060338786541103
0.0005060338786537774
0.0005060338786540897
0.0005060338786537767
0.0005060338786541256
0.0005060338786537705
0.0005060338786541324
0.0005060338786537651
0.0005060338786541525
0.0005060338786537613
0.0005060338786541877
0.0005060338786537671
0.0005060338786542204
0.0005060338786537714
0.0005060338786542475
0.0005060338786537727
0.0005060338786542625
0.0005060338786537698
0.0005060338786543116
0.0005060338786538882
0.00050603387865452
0.0002623606323730163
0.0002623606323731249
0.000262360632373357
0.0002623606323733613
0.0002623606323733047
0.0002623606323734287
0.000262360632373448
0.00026236063237343
0.0002623606323734957
0.0002623606323735169
0.000262360632373439
0.0002623606323734357
0.0002623606323735073
0.0002623606323735099
0.0002623606323734003
0.0002623606323733921
0.0002623606323734435
0.0002623606323734397
0.0002623606323733912
0.0002623606323734348
0.0002623606323733726
0.0002623606323735201
0.0002623606323733962
0.0002623606323733764
0.0002623606323733345
0.0002623606323734598
0.0002623606323734281
0.0002623606323734233
0.0002623606323733306
0.0002623606323733841
0.0002623606323734019
0.0002623606323734927
0.0002623606323734494
0.0002623606323733864
0.0002623606323733578
0.0002623606323734935
0.0002623606323732954
0.0002623606323732293
0.0002623606323731699
0.0002623606323732184
0.0002623606323731732
0.0002623606323732181
0.000262360632373184
0.0002623606323732257
0.0002623606323732217
0.000262360632373228
0.000262360632373143
0.0002623606323731831
0.0002623606323731425
0.0002623606323731517
0.0002623606323729842
0.0002623606323729893
0.000262360632372936
0.0002623606323730086
0.000262360632372977
0.0002623606323730451
0.000262360632372986
0.0002623606323730475
0.0002623606323729886
0.0002623606323730499
0.0002623606323729766
0.0002623606323730716
0.0002623606323729941
0.0002623606323731065
0.0002623606323730008
0.0002623606323731423
0.0003439907576637184
0.0003439907576640915
0.0003439907576648776
0.0003439907576652048
0.0003439907576654871
0.0003439907576655398
0.0003439907576654812
0.0003439907576655727
0.0003439907576658827
0.0003439907576658808
0.0003439907576659501
0.0003439907576657069
0.0003439907576656061
0.0003439907576654841
0.0003439907576655301
0.0003439907576653437
0.0003439907576653553
0.0003439907576650621
0.0003439907576651382
0.0003439907576651163
0.0003439907576649291
0.0003439907576648126
0.0003439907576648926
0.0003439907576650552
0.0003439907576652279
0.0003439907576651599
0.0003439907576651997
0.0003439907576648291
0.0003439907576648142
0.0003439907576646709
0.0003439907576648795
0.0003439907576649513
0.000343990757665254
0.0003439907576649164
0.0003439907576649989
0.0003439907576648634
0.0003439907576647958
0.000343990757664426
0.000343990757664595
0.0003439907576645837
0.0003439907576646873
0.0003439907576645105
0.0003439907576647117
0.000343990757664398
0.0003439907576644804
0.0003439907576642019
0.0003439907576643641
0.0003439907576640385
0.0003439907576641855
0.0003439907576636299
0.0003439907576637152
0.0003439907576633554
0.0003439907576636538
0.0003439907576634733
0.000343990757663861
0.0003439907576635842
0.0003439907576638478
0.0003439907576634861
0.0003439907576638338
0.0003439907576634945
0.0003439907576638141
0.0003439907576635918
0.0003439907576638846
0.0003439907576636844
0.0003439907576637102
0.0003439907576635056
0.0004716170120054273
0.0004716170120064445
0.0004716170120074429
0.0004716170120079187
0.0004716170120081288
0.0004716170120079266
0.0004716170120074419
0.0004716170120080436
0.0004716170120086721
0.0004716170120088117
0.0004716170120088791
0.0004716170120087145
0.0004716170120077695
0.0004716170120075547
0.0004716170120077886
0.0004716170120073272
0.0004716170120073252
0.0004716170120069852
0.000471617012006884
0.0004716170120068523
0.0004716170120064824
0.0004716170120065516
0.0004716170120063553
0.000471617012007051
0.000471617012007288
0.0004716170120072368
0.000471617012007315
0.0004716170120065481
0.0004716170120064645
0.000471617012006213
0.0004716170120069701
0.0004716170120069239
0.0004716170120073955
0.0004716170120067047
0.0004716170120068336
0.0004716170120067145
0.0004716170120066072
0.0004716170120055547
0.0004716170120061354
0.0004716170120062767
0.0004716170120063201
0.0004716170120060988
0.0004716170120065605
0.0004716170120059637
0.0004716170120060114
0.0004716170120055078
0.0004716170120057666
0.0004716170120053497
0.0004716170120051652
0.0004716170120041144
0.000471617012004378
0.0004716170120035783
0.0004716170120041701
0.0004716170120040482
0.0004716170120046444
0.0004716170120041648
0.0004716170120044691
0.0004716170120038257
0.0004716170120044095
0.000471617012003926
0.0004716170120045143
0.0004716170120041041
0.0004716170120046385
0.0004716170120041871
0.000471617012004384
0.0004716170120030955
0.0006171340324827655
0.0006171340324848541
0.0006171340324855883
0.0006171340324864436
0.0006171340324858958
0.0006171340324858012
0.0006171340324841104
0.0006171340324862499
0.0006171340324866004
0.00061713403248725
0.0006171340324879562
0.0006171340324873366
0.0006171340324850669
0.000617134032485667
0.0006171340324851975
0.0006171340324843284
0.0006171340324843992
0.0006171340324848409
0.0006171340324828059
0.0006171340324834638
0.0006171340324828091
0.0006171340324837874
0.0006171340324829411
0.0006171340324846025
0.0006171340324843607
0.000617134032484654
0.0006171340324850504
0.0006171340324834987
0.0006171340324832206
0.0006171340324826094
0.0006171340324839077
0.0006171340324842419
0.0006171340324847793
0.0006171340324836494
0.0006171340324845324
0.0006171340324834784
0.0006171340324839481
0.0006171340324818243
0.0006171340324835473
0.0006171340324832678
0.0006171340324831144
0.0006171340324829604
0.0006171340324838878
0.0006171340324831486
0.0006171340324829041
0.0006171340324821985
0.0006171340324826869
0.0006171340324816097
0.0006171340324816845
0.0006171340324801081
0.0006171340324800461
0.0006171340324784625
0.0006171340324797538
0.0006171340324796563
0.000617134032480745
0.0006171340324800053
0.0006171340324798816
0.0006171340324787473
0.0006171340324798573
0.0006171340324793387
0.0006171340324802523
0.0006171340324798511
0.000617134032479991
0.0006171340324794204
0.000617134032479727
0.000617134032476456
0.0008144698192905385
0.0008144698192938739
0.0008144698192948999
0.0008144698192947666
0.0008144698192949602
0.0008144698192951026
0.0008144698192905432
0.0008144698192967858
0.0008144698192982351
0.0008144698192967691
0.000814469819301115
0.0008144698192972944
0.0008144698192936484
0.0008144698192960177
0.0008144698192937721
0.0008144698192921126
0.0008144698192926162
0.0008144698192941728
0.0008144698192891871
0.0008144698192895634
0.0008144698192891525
0.0008144698192905172
0.0008144698192899865
0.0008144698192949461
0.0008144698192930029
0.0008144698192927262
0.0008144698192933887
0.0008144698192942812
0.0008144698192934008
0.0008144698192882442
0.0008144698192929173
0.0008144698192950345
0.0008144698192930966
0.0008144698192913618
0.0008144698192924169
0.0008144698192915266
0.000814469819291714
0.0008144698192887429
0.0008144698192925504
0.0008144698192905702
0.0008144698192906084
0.000814469819293514
0.0008144698192929195
0.0008144698192917727
0.000814469819290988
0.0008144698192900794
0.0008144698192909499
0.0008144698192907734
0.0008144698192870695
0.0008144698192904398
0.0008144698192866236
0.000814469819282741
0.0008144698192876122
0.0008144698192853683
0.0008144698192896675
0.0008144698192891457
0.0008144698192837408
0.0008144698192823365
0.0008144698192849841
0.0008144698192845034
0.0008144698192862832
0.0008144698192883323
0.0008144698192840676
0.0008144698192847805
0.0008144698192874641
0.0008144698192781236
0.001091584364521015
0.001091584364517912
0.001091584364523846
0.001091584364517137
0.001091584364525187
0.001091584364520796
0.001091584364513266
0.00109158436452598
0.001091584364522897
0.001091584364530729
0.001091584364529564
0.001091584364534323
0.001091584364516578
0.00109158436452577
0.001091584364518942
0.001091584364518071
0.001091584364526402
0.001091584364520307
0.001091584364513626
0.001091584364511775
0.001091584364510657
0.001091584364516669
0.001091584364512581
0.001091584364520779
0.001091584364525781
0.001091584364528484
0.001091584364519241
0.001091584364523779
0.001091584364525198
0.001091584364511332
0.001091584364515576
0.001091584364513983
0.001091584364516869
0.001091584364516096
0.001091584364525582
0.001091584364517129
0.001091584364522632
0.001091584364509304
0.001091584364519842
0.001091584364516286
0.001091584364515046
0.001091584364521093
0.001091584364520633
0.001091584364520674
0.001091584364516842
0.001091584364523181
0.001091584364514033
0.001091584364511457
0.001091584364513862
0.0010915843645149
0.001091584364517304
0.001091584364500072
0.001091584364506783
0.001091584364506734
0.001091584364512386
0.001091584364521899
0.001091584364507127
0.001091584364501575
0.001091584364507902
0.001091584364505147
0.001091584364517639
0.001091584364509402
0.001091584364503969
0.00109158436450353
0.001091584364504011
0.001091584364498411
0.001421347239052225
0.001421347239062862
0.001421347239031139
0.001421347239044763
0.00142134723904212
0.001421347239041041
0.001421347239034697
0.001421347239063103
0.001421347239048647
0.001421347239047162
0.001421347239056251
0.001421347239072817
0.001421347239037796
0.001421347239039325
0.001421347239038884
0.001421347239051075
0.001421347239050017
0.00142134723905357
0.001421347239038777
0.00142134723903362
0.001421347239030093
0.001421347239042068
0.001421347239038039
0.00142134723903228
0.001421347239046423
0.001421347239045491
0.001421347239048504
0.001421347239042259
0.001421347239049028
0.001421347239039835
0.00142134723904475
0.001421347239023825
0.00142134723905813
0.001421347239041245
0.001421347239034386
0.001421347239040535
0.001421347239030741
0.001421347239047754
0.001421347239051303
0.001421347239035492
0.001421347239040031
0.001421347239050519
0.001421347239065556
0.001421347239038267
0.001421347239046397
0.001421347239057796
0.001421347239030217
0.001421347239048127
0.001421347239042804
0.001421347239053632
0.001421347239051136
0.001421347239021745
0.001421347239023743
0.001421347239022021
0.00142134723902407
0.001421347239041508
0.001421347239041878
0.00142134723901734
0.001421347239021169
0.001421347239018457
0.001421347239022897
0.001421347239041596
0.001421347239012508
0.001421347239022405
0.00142134723904059
0.001421347239009699
0.001741999280881182
0.001741999280879369
0.001741999280871693
0.001741999280888703
0.00174199928091471
0.001741999280908725
0.001741999280855372
0.001741999280893313
0.001741999280906018
0.001741999280876261
0.001741999280910689
0.001741999280913139
0.001741999280872922
0.001741999280874221
0.00174199928087185
0.001741999280910315
0.001741999280896758
0.001741999280913481
0.001741999280866725
0.001741999280864887
0.001741999280861439
0.001741999280883593
0.001741999280910325
0.001741999280869647
0.001741999280923658
0.001741999280906608
0.001741999280935679
0.001741999280876695
0.00174199928089531
0.001741999280916485
0.00174199928091116
0.001741999280861153
0.001741999280898984
0.001741999280874337
0.001741999280866741
0.001741999280895646
0.001741999280850086
0.001741999280858222
0.001741999280863723
0.001741999280884358
0.00174199928091831
0.001741999280875345
0.001741999280889082
0.001741999280893232
0.001741999280883506
0.001741999280890858
0.001741999280875215
0.001741999280875918
0.001741999280905995
0.001741999280858021
0.001741999280886869
0.001741999280846377
0.001741999280861725
0.001741999280844263
0.001741999280833471
0.001741999280836556
0.001741999280842778
0.001741999280880677
0.001741999280867356
0.001741999280880724
0.001741999280828414
0.001741999280837951
0.001741999280833562
0.001741999280836601
0.001741999280871579
0.001741999280826169
0.002014260223173246
0.002014260223221279
0.002014260223151186
0.002014260223162219
0.002014260223162016
0.002014260223190577
0.002014260223184477
0.002014260223118096
0.002014260223138838
0.002014260223140692
0.002014260223200434
0.00201426022315371
0.002014260223195197
0.002014260223203656
0.002014260223136858
0.002014260223173237
0.002014260223226632
0.002014260223156363
0.002014260223171679
0.002014260223149435
0.002014260223144168
0.002014260223163815
0.002014260223168689
0.002014260223180239
0.002014260223153235
0.002014260223178723
0.002014260223231683
0.002014260223149951
0.002014260223170787
0.002014260223214142
0.002014260223144535
0.002014260223152659
0.002014260223155895
0.002014260223154901
0.002014260223155318
0.002014260223142748
0.002014260223139188
0.002014260223130257
0.002014260223195536
0.002014260223181178
0.002014260223227742
0.002014260223167523
0.002014260223152717
0.002014260223185321
0.002014260223163992
0.002014260223149685
0.002014260223151436
0.002014260223153858
0.002014260223208024
0.002014260223161119
0.002014260223132075
0.002014260223143499
0.002014260223172103
0.002014260223099947
0.002014260223154038
0.002014260223094937
0.00201426022310822
0.002014260223124556
0.002014260223140473
0.002014260223174511
0.002014260223096053
0.002014260223106005
0.002014260223097702
0.002014260223088832
0.002014260223117875
0.002014260223097984
0.00223091066032583
0.002230910660304041
0.002230910660279676
0.002230910660345428
0.002230910660275456
0.002230910660312569
0.002230910660312324
0.002230910660228587
0.002230910660264967
0.002230910660249003
0.002230910660237738
0.002230910660274697
0.002230910660265508
0.002230910660329452
0.002230910660260388
0.002230910660342323
0.002230910660321496
0.002230910660292921
0.002230910660287627
0.002230910660270834
0.002230910660352469
0.002230910660293455
0.002230910660259549
0.00223091066032225
0.002230910660235908
0.002230910660292614
0.002230910660366383
0.002230910660254856
0.002230910660263136
0.002230910660262522
0.002230910660331068
0.002230910660293352
0.002230910660313158
0.002230910660275142
0.002230910660260872
0.002230910660239156
0.002230910660237363
0.002230910660231372
0.002230910660305772
0.002230910660305536
0.002230910660353783
0.002230910660303415
0.002230910660265471
0.002230910660306245
0.002230910660281439
0.00223091066032707
0.002230910660245054
0.002230910660288039
0.002230910660346288
0.002230910660260439
0.002230910660235865
0.002230910660250958
0.002230910660309713
0.002230910660208759
0.00223091066022895
0.002230910660240186
0.002230910660205677
0.002230910660242874
0.002230910660247373
0.00223091066021852
0.002230910660245784
0.002230910660238589
0.002230910660207613
0.002230910660264126
0.002230910660241243
0.002230910660213985
0.002397846594727211
0.002397846594667448
0.002397846594633276
0.002397846594665634
0.002397846594723644
0.002397846594586171
0.002397846594665359
0.002397846594621404
0.002397846594592283
0.00239784659466193
0.002397846594563374
0.002397846594615607
0.002397846594701032
0.002397846594609347
0.002397846594706985
0.002397846594620597
0.002397846594682682
0.002397846594664607
0.002397846594681397
0.002397846594625822
0.002397846594696594
0.002397846594635077
0.002397846594590986
0.002397846594625351
0.002397846594615034
0.002397846594668831
0.002397846594728268
0.002397846594578876
0.002397846594586433
0.002397846594591203
0.00239784659463862
0.002397846594615794
0.002397846594644833
0.002397846594652263
0.002397846594692604
0.002397846594566813
0.002397846594603815
0.002397846594578444
0.002397846594643236
0.002397846594641391
0.002397846594710923
0.00239784659460316
0.002397846594659851
0.00239784659455718
0.002397846594641634
0.002397846594735901
0.002397846594647113
0.002397846594660042
0.002397846594663232
0.002397846594675496
0.002397846594542286
0.002397846594570088
0.002397846594591176
0.002397846594542446
0.002397846594584032
0.002397846594634287
0.002397846594519379
0.002397846594610189
0.002397846594569611
0.002397846594531513
0.002397846594561203
0.002397846594628546
0.002397846594532952
0.002397846594605647
0.002397846594589802
0.002397846594553967
0.002522368513083025
0.00252236851311615
0.002522368512991207
0.002522368513130045
0.002522368513051883
0.00252236851299511
0.002522368513016173
0.002522368513079554
0.002522368512942164
0.002522368512988714
0.00252236851306481
0.002522368512942313
0.002522368512961871
0.002522368512962026
0.002522368513065918
0.00252236851298816
0.002522368513074945
0.002522368513097647
0.002522368513001739
0.002522368512986091
0.002522368513074641
0.002522368513000805
0.002522368512947097
0.002522368512983546
0.002522368512977585
0.002522368513096515
0.002522368513031162
0.002522368512951305
0.00252236851302004
0.002522368512962317
0.002522368513033104
0.00252236851292216
0.002522368512951954
0.002522368513034741
0.002522368513042494
0.002522368512909442
0.002522368513043818
0.002522368512973733
0.002522368512968549
0.002522368513059046
0.002522368512966909
0.002522368512942576
0.002522368512940217
0.002522368512932993
0.002522368512977537
0.002522368512989893
0.002522368512999423
0.002522368513078807
0.00252236851295548
0.002522368513041663
0.002522368512888608
0.002522368512932656
0.002522368513006495
0.002522368512878851
0.002522368512986757
0.002522368512944526
0.002522368512888014
0.0025223685129727
0.002522368512930346
0.002522368512885888
0.002522368512974899
0.002522368512949117
0.002522368512904678
0.002522368512996032
0.002522368512952699
0.002522368512911412
0.002610643413738926
0.002610643413840461
0.0026106434137028
0.002610643413832505
0.00261064341376334
0.002610643413870928
0.002610643413727772
0.002610643413660013
0.002610643413721754
0.002610643413725309
0.002610643413764055
0.002610643413607474
0.002610643413628495
0.002610643413634324
0.002610643413749081
0.002610643413736476
0.00261064341380474
0.002610643413763523
0.002610643413748248
0.002610643413677961
0.002610643413650977
0.002610643413679431
0.002610643413627004
0.002610643413669762
0.002610643413666129
0.002610643413725831
0.002610643413785489
0.002610643413609613
0.002610643413617388
0.002610643413615233
0.002610643413733184
0.002610643413655017
0.002610643413667526
0.002610643413680627
0.002610643413634385
0.002610643413707619
0.002610643413602701
0.002610643413667191
0.002610643413655596
0.002610643413763192
0.002610643413668572
0.002610643413606636
0.002610643413647634
0.002610643413737936
0.00261064341361761
0.002610643413664591
0.002610643413670499
0.002610643413731907
0.002610643413696231
0.002610643413704193
0.002610643413609383
0.002610643413581348
0.002610643413568553
0.002610643413673401
0.002610643413625285
0.002610643413651133
0.002610643413569487
0.00261064341360516
0.002610643413698484
0.002610643413541715
0.002610643413606078
0.002610643413723852
0.002610643413570545
0.002610643413634304
0.002610643413712575
0.002610643413568801
0.00266782955484283
0.002667829554860127
0.002667829554978863
0.002667829554925523
0.0026678295548812
0.002667829554898967
0.002667829554885344
0.00266782955477847
0.002667829554751252
0.002667829554736508
0.00266782955476496
0.002667829554758399
0.002667829554764434
0.002667829554746327
0.002667829554840506
0.002667829554824089
0.002667829554788351
0.002667829554898489
0.002667829554844784
0.002667829554776671
0.002667829554850402
0.002667829554797351
0.00266782955474014
0.002667829554853264
0.002667829554803115
0.002667829554767851
0.002667829554873049
0.002667829554785959
0.002667829554728419
0.002667829554753537
0.002667829554867146
0.002667829554721979
0.002667829554737571
0.002667829554736467
0.002667829554749154
0.002667829554744977
0.002667829554805673
0.002667829554895845
0.002667829554879652
0.002667829554738072
0.002667829554787787
0.002667829554717708
0.00266782955486392
0.002667829554925634
0.002667829554793054
0.002667829554746686
0.002667829554881957
0.002667829554748812
0.002667829554895265
0.002667829554806811
0.002667829554720292
0.002667829554795624
0.002667829554647038
0.002667829554795286
0.002667829554744929
0.002667829554782043
0.002667829554692694
0.002667829554722371
0.002667829554801602
0.00266782955463898
0.002667829554710588
0.002667829554823308
0.002667829554694057
0.002667829554745186
0.002667829554869249
0.002667829554695621
0.002698449396348319
0.002698449396341263
0.002698449396401698
0.002698449396528679
0.002698449396366955
0.002698449396297085
0.0026984493963066
0.002698449396215942
0.002698449396206772
0.00269844939616184
0.002698449396272954
0.002698449396310042
0.002698449396149545
0.002698449396156284
0.00269844939630552
0.00269844939624417
0.002698449396196094
0.002698449396303674
0.002698449396269909
0.002698449396199851
0.002698449396324392
0.002698449396190696
0.002698449396167978
0.002698449396305911
0.002698449396251856
0.002698449396209474
0.002698449396323825
0.002698449396245193
0.002698449396173838
0.002698449396226598
0.002698449396180418
0.002698449396262138
0.002698449396301547
0.002698449396149111
0.002698449396217417
0.002698449396159417
0.002698449396337986
0.00269844939626945
0.002698449396232175
0.002698449396217913
0.002698449396325457
0.002698449396130991
0.002698449396170841
0.002698449396186286
0.002698449396195429
0.002698449396177458
0.00269844939631806
0.002698449396139089
0.002698449396246637
0.002698449396366401
0.002698449396152891
0.002698449396200941
0.002698449396291163
0.002698449396152848
0.002698449396218038
0.002698449396329915
0.002698449396128275
0.002698449396149407
0.002698449396183483
0.002698449396125586
0.002698449396251271
0.002698449396209904
0.002698449396159283
0.00269844939627388
0.002698449396229403
0.002698449396169061
0.002706700476894937
0.002706700476737191
0.002706700476783549
0.002706700476777125
0.002706700476892341
0.002706700476777941
0.002706700476715677
0.002706700476691832
0.002706700476707983
0.002706700476625836
0.002706700476702723
0.002706700476825813
0.002706700476623657
0.002706700476622584
0.002706700476699955
0.002706700476648514
0.002706700476631477
0.002706700476692942
0.002706700476835081
0.002706700476634665
0.002706700476817559
0.002706700476699898
0.002706700476644855
0.002706700476638916
0.002706700476818023
0.002706700476749902
0.002706700476735401
0.002706700476739443
0.002706700476650275
0.002706700476702357
0.002706700476789135
0.002706700476630484
0.002706700476720438
0.002706700476695968
0.00270670047672167
0.002706700476626763
0.002706700476702168
0.002706700476823057
0.002706700476637141
0.002706700476796964
0.00270670047674648
0.002706700476669555
0.002706700476784991
0.002706700476712607
0.002706700476662713
0.002706700476689279
0.00270670047681684
0.002706700476635502
0.002706700476794872
0.002706700476735745
0.002706700476661774
0.002706700476664238
0.002706700476677826
0.002706700476811525
0.002706700476724494
0.002706700476884787
0.002706700476684118
0.002706700476604988
0.002706700476607201
0.002706700476586782
0.002706700476735489
0.002706700476649738
0.002706700476621778
0.002706700476753892
0.002706700476667332
0.002706700476627753
0.002696734421803905
0.00269673442173704
0.002696734421842189
0.002696734421622413
0.002696734421761012
0.002696734421640441
0.002696734421602747
0.002696734421628754
0.00269673442173669
0.002696734421529853
0.002696734421596434
0.002696734421728859
0.002696734421539991
0.002696734421588536
0.002696734421704022
0.002696734421509418
0.002696734421576594
0.002696734421588273
0.002696734421660595
0.002696734421711857
0.00269673442156399
0.002696734421549491
0.002696734421537043
0.002696734421591083
0.002696734421548726
0.002696734421614192
0.002696734421729393
0.002696734421556005
0.002696734421596198
0.002696734421532653
0.002696734421652033
0.002696734421571448
0.002696734421566516
0.002696734421626206
0.002696734421721775
0.002696734421511231
0.002696734421582537
0.002696734421703152
0.002696734421526899
0.002696734421608592
0.002696734421753346
0.002696734421571916
0.002696734421620879
0.002696734421735063
0.00269673442155388
0.002696734421612587
0.002696734421556761
0.002696734421656298
0.002696734421694238
0.002696734421548806
0.00269673442154052
0.00269673442158707
0.002696734421722919
0.002696734421567704
0.002696734421709086
0.00269673442157192
0.002696734421546867
0.002696734421577206
0.002696734421681979
0.00269673442148103
0.002696734421554735
0.002696734421687336
0.002696734421498331
0.002696734421572771
0.002696734421663698
0.00269673442148667
0.002672958969867509
0.002672958969972764
0.002672958970000677
0.002672958969808532
0.002672958969972727
0.002672958969892089
0.00267295896993285
0.0026729589697549
0.002672958969799428
0.002672958969773
0.00267295896978193
0.002672958969795614
0.002672958969834377
0.002672958969769417
0.002672958969763575
0.002672958969854351
0.002672958969697533
0.002672958969840449
0.002672958969816281
0.002672958969780799
0.002672958969868706
0.002672958969797937
0.00267295896983063
0.002672958969860135
0.002672958969772737
0.002672958969893587
0.002672958969835267
0.002672958969858509
0.00267295896987533
0.002672958969774498
0.002672958969882098
0.00267295897001422
0.002672958969858378
0.002672958969923936
0.002672958969755938
0.002672958969748139
0.00267295896979993
0.002672958969769922
0.002672958969824106
0.00267295896981577
0.002672958969896617
0.002672958969976533
0.002672958969967836
0.002672958969778162
0.002672958969848968
0.002672958969958132
0.002672958969746079
0.002672958969814304
0.002672958969769642
0.002672958969870918
0.002672958969695935
0.002672958969876743
0.002672958969925304
0.002672958969780288
0.0026729589699102
0.002672958969811567
0.002672958969730014
0.002672958969843685
0.002672958969803583
0.002672958969738412
0.002672958969844353
0.002672958969806077
0.002672958969740553
0.002672958969853366
0.002672958969794438
0.00267295896973532
0.002640460620055648
0.002640460620056596
0.002640460620075382
0.002640460620056444
0.002640460620135072
0.002640460620230131
0.002640460620041244
0.002640460620018188
0.002640460620063218
0.002640460620010289
0.00264046062009001
0.002640460620051849
0.002640460620074522
0.00264046061999844
0.002640460620001599
0.00264046061998682
0.002640460619970053
0.002640460619976073
0.002640460619995724
0.002640460619982609
0.002640460620104268
0.002640460619941162
0.002640460620031856
0.002640460620161923
0.002640460619983001
0.002640460620010171
0.002640460620016337
0.002640460620158246
0.002640460620094168
0.002640460620014837
0.002640460620066341
0.002640460620176993
0.002640460620005588
0.002640460620022142
0.002640460619989311
0.002640460620014388
0.002640460619977926
0.002640460620042936
0.002640460620178938
0.002640460620051411
0.002640460620094332
0.002640460620195816
0.002640460620214387
0.002640460620020611
0.002640460620163763
0.002640460620104285
0.002640460620027833
0.002640460620074574
0.002640460620126607
0.002640460620126355
0.002640460619930147
0.002640460620016492
0.002640460620149152
0.002640460619987004
0.002640460620035528
0.002640460620096603
0.002640460619983964
0.002640460620030579
0.002640460620138649
0.002640460619950776
0.002640460620076645
0.002640460619981602
0.002640460619956838
0.002640460620078887
0.002640460619955864
0.002640460619954046
0.00260593309174635
0.002605933091738042
0.002605933091746637
0.002605933091731734
0.00260593309178164
0.002605933091878457
0.002605933091723888
0.002605933091768121
0.002605933091836856
0.002605933091695748
0.002605933091734837
0.002605933091781477
0.0026059330917156
0.002605933091723124
0.002605933091748505
0.00260593309170339
0.002605933091791462
0.002605933091731424
0.002605933091701656
0.002605933091732699
0.002605933091711184
0.002605933091690259
0.002605933091747647
0.002605933091853194
0.00260593309170612
0.002605933091712797
0.002605933091711465
0.002605933091828262
0.002605933091783403
0.002605933091726129
0.002605933091734222
0.002605933091740248
0.002605933091696447
0.002605933091718208
0.002605933091692108
0.002605933091683894
0.002605933091792542
0.002605933091771898
0.002605933091894343
0.002605933091821848
0.002605933091801398
0.00260593309183039
0.002605933091838576
0.002605933091761413
0.002605933091827924
0.00260593309178605
0.002605933091793488
0.002605933091800063
0.002605933091742538
0.002605933091765022
0.002605933091704575
0.002605933091808686
0.002605933091782045
0.002605933091738852
0.002605933091831827