/*--------------------------------*- C++ -*----------------------------------*\
| =========                 |                                                 |
| \\      /  F ield         | OpenFOAM: The Open Source CFD Toolbox           |
|  \\    /   O peration     | Version:  v1812                                 |
|   \\  /    A nd           | Web:      www.OpenFOAM.com                      |
|    \\/     M anipulation  |                                                 |
\*---------------------------------------------------------------------------*/
FoamFile
{
    version     2.0;
    format      ascii;
    class       volScalarField;
    location    "10000";
    object      p;
}
// * * * * * * * * * * * * * * * * * * * * * * * * * * * * * * * * * * * * * //

dimensions      [0 2 -2 0 0 0 0];


internalField   nonuniform List<scalar> 
2838
(
9.604063951931642e-16
5.800569525753269e-13
4.774727570000318e-13
3.381121055283264e-13
3.159433696914887e-13
2.931331059248168e-13
2.452199252257994e-13
2.098898131872609e-13
1.882197908953698e-13
1.7809739632587e-13
1.676260582034697e-13
1.603297057285359e-13
1.501724619911395e-13
1.431485086612367e-13
1.376485911485685e-13
1.342521551133135e-13
1.340950239228861e-13
1.386650407324479e-13
1.343033667431984e-13
1.362508845005691e-13
1.293147525359786e-13
1.254511929290165e-13
1.286431584246903e-13
1.277135274258095e-13
1.269470157248669e-13
1.273666525723747e-13
1.326064213740859e-13
1.347246163754957e-13
1.268444286774009e-13
1.30437922543242e-13
1.211646244085556e-13
1.256729165901271e-13
1.273497789568768e-13
1.284534862176868e-13
1.264728850010491e-13
1.28996770962492e-13
1.18140668781832e-13
1.204523544475902e-13
1.101918081453882e-13
1.192091670987282e-13
1.202412000696625e-13
1.238394110099828e-13
1.200138833717205e-13
1.224655296000572e-13
1.122837238565909e-13
1.201864184862862e-13
1.121745919796515e-13
1.235529788989983e-13
1.182922134818789e-13
1.292191960842916e-13
1.231641041109398e-13
1.244655033787923e-13
1.11116433002081e-13
1.255990427501133e-13
1.092596485345616e-13
1.234937999827508e-13
1.081944399023092e-13
1.16169099244011e-13
9.824174061619066e-14
1.122558209100313e-13
7.782612001942548e-14
8.450170970239119e-14
3.260482383447415e-14
-8.030501444284858e-14
-3.968856983064358e-13
-7.595272986722888e-13
-1.315043638066664e-15
5.80707375141227e-13
4.78790790364902e-13
3.382965288401697e-13
3.16061140895983e-13
2.931997433946193e-13
2.452103872681445e-13
2.09881551371617e-13
1.882629137568871e-13
1.781434296302576e-13
1.676402713882862e-13
1.603263043824664e-13
1.501847807987696e-13
1.431637216245573e-13
1.376769536849894e-13
1.342114742273577e-13
1.34074485992523e-13
1.386800283019101e-13
1.343316108766097e-13
1.362612902041697e-13
1.292902371278273e-13
1.254656272305075e-13
1.286682164521003e-13
1.27656655833922e-13
1.269200944478121e-13
1.273774743545488e-13
1.326505566878383e-13
1.347058814601748e-13
1.268078467316777e-13
1.304080719178357e-13
1.21199944868178e-13
1.256468090365991e-13
1.273636619788448e-13
1.284569485170369e-13
1.264607233849387e-13
1.290044386336913e-13
1.181128826585124e-13
1.20380963971893e-13
1.102265432007708e-13
1.191750406438314e-13
1.202339545664845e-13
1.23852319658654e-13
1.200007077510303e-13
1.22458841771258e-13
1.12307103983864e-13
1.201694708484951e-13
1.122528242051142e-13
1.235284940684908e-13
1.182932465135713e-13
1.292165353025284e-13
1.231863938139478e-13
1.2443160718619e-13
1.111538691541964e-13
1.255562498890573e-13
1.093211093205364e-13
1.234811751166534e-13
1.082411211259642e-13
1.161080007366783e-13
9.830689209026821e-14
1.122381680702155e-13
7.788154932303107e-14
8.459501363508923e-14
3.302547827511241e-14
-7.956020219264129e-14
-3.970681154079251e-13
-7.609020464493017e-13
-4.045109308813401e-15
5.849341902768151e-13
4.811576686856886e-13
3.382725993870623e-13
3.161442915676526e-13
2.932662476427155e-13
2.450933167495064e-13
2.097615933357723e-13
1.88249055650444e-13
1.781646599854428e-13
1.675913238110915e-13
1.603067118992399e-13
1.501854981096642e-13
1.431333330656074e-13
1.376989911728912e-13
1.34115457688769e-13
1.339739276305375e-13
1.387125326645075e-13
1.343801965963542e-13
1.362974204869799e-13
1.292334754416675e-13
1.255005495856767e-13
1.287143153924772e-13
1.275444882243793e-13
1.268496719646273e-13
1.273867805516258e-13
1.327379618100207e-13
1.34739917936019e-13
1.267749020635818e-13
1.304189437342319e-13
1.212640549974455e-13
1.25615805736103e-13
1.273509685198022e-13
1.284920865212243e-13
1.264458055149494e-13
1.290260450055482e-13
1.180684071429013e-13
1.203221444194742e-13
1.102496410547989e-13
1.191223951514412e-13
1.201761860885671e-13
1.238925308394304e-13
1.199655537512853e-13
1.224673805855791e-13
1.12321415436286e-13
1.201169684243207e-13
1.122675250503359e-13
1.235020828722584e-13
1.182353491688222e-13
1.292628998775245e-13
1.232158914733048e-13
1.243866600232226e-13
1.111578242916373e-13
1.255247353180545e-13
1.093316594438215e-13
1.235339082581139e-13
1.08276496730193e-13
1.160544416696165e-13
9.82931711914766e-14
1.123506461163575e-13
7.792152713008236e-14
8.492522031930333e-14
3.378009495541596e-14
-7.818878170450565e-14
-3.973575987204246e-13
-7.666458178568316e-13
-5.880003526515595e-15
5.934691933619612e-13
4.846508663440443e-13
3.380500951834784e-13
3.161177610651771e-13
2.931982444686837e-13
2.447980749133184e-13
2.095379622721546e-13
1.881476604434704e-13
1.781037307405363e-13
1.674038373614321e-13
1.601462498238812e-13
1.500332745368699e-13
1.430219753289155e-13
1.376398855759431e-13
1.338789558371245e-13
1.337627171216221e-13
1.387002463922907e-13
1.343699310882071e-13
1.363269286753304e-13
1.291378353369999e-13
1.255512534594616e-13
1.287754169735426e-13
1.273877300418263e-13
1.267388816802187e-13
1.274341945632125e-13
1.328102980515583e-13
1.348130819159794e-13
1.267065874202045e-13
1.304820875638933e-13
1.214667653437465e-13
1.256097272731734e-13
1.273063669291745e-13
1.285643037946851e-13
1.264368213046228e-13
1.29083997464441e-13
1.179758693747437e-13
1.203087162229119e-13
1.103777550821159e-13
1.190807228429504e-13
1.200854919923962e-13
1.240110719388712e-13
1.199040368030441e-13
1.225429554380939e-13
1.123617935685688e-13
1.200560574380955e-13
1.122681250205854e-13
1.234610432317442e-13
1.181202044820731e-13
1.293205840681724e-13
1.231704338111279e-13
1.243345565828916e-13
1.111325327755138e-13
1.254800118477124e-13
1.092656186412518e-13
1.235813497854193e-13
1.082582177857493e-13
1.159617437021513e-13
9.823630896897051e-14
1.125323569335834e-13
7.797264920087422e-14
8.54428083852187e-14
3.483797573522737e-14
-7.637781110646878e-14
-3.987803893513792e-13
-7.767938718606484e-13
-1.047100268025337e-14
6.082744116723096e-13
4.908182918785978e-13
3.376834650739059e-13
3.15988700921202e-13
2.930247755851323e-13
2.444224761146651e-13
2.092536702670515e-13
1.880081508839385e-13
1.780360207311466e-13
1.671802210909806e-13
1.599552250444695e-13
1.497964722836977e-13
1.428949566069834e-13
1.37596728555643e-13
1.3349429686106e-13
1.334645715019774e-13
1.387473731926563e-13
1.344045248115138e-13
1.363214781653156e-13
1.290081361450128e-13
1.256383155510014e-13
1.288959952252466e-13
1.272143115578629e-13
1.266045746747479e-13
1.274831837794781e-13
1.32853020921565e-13
1.348909190541273e-13
1.266185051020341e-13
1.305528929248289e-13
1.218061025987418e-13
1.25603391721902e-13
1.272062431658997e-13
1.28654092442934e-13
1.264408397252633e-13
1.291389750237736e-13
1.178123218532407e-13
1.202395941609307e-13
1.105813388816313e-13
1.190271431505087e-13
1.199577676032244e-13
1.241945324767313e-13
1.19813893624e-13
1.225986814484834e-13
1.124239007710431e-13
1.199106218293582e-13
1.122938415541505e-13
1.233942502799975e-13
1.179652410394556e-13
1.294017260177699e-13
1.231157294992268e-13
1.242810890451926e-13
1.111859522759586e-13
1.254143695451588e-13
1.09194606291627e-13
1.236187467628991e-13
1.082489240899601e-13
1.157958565658478e-13
9.816880986819273e-14
1.127865054214213e-13
7.811579789696308e-14
8.63100581064344e-14
3.672588326800069e-14
-7.30826022698348e-14
-4.007168807955437e-13
-7.944673984744575e-13
-2.602783114679443e-14
6.355650861305721e-13
5.049452559965504e-13
3.377094445824574e-13
3.157062043838334e-13
2.926662273782354e-13
2.440179960527649e-13
2.090526392774548e-13
1.878695863142088e-13
1.77977127543879e-13
1.668156926362483e-13
1.595433237904983e-13
1.493702086123251e-13
1.427607937785995e-13
1.374855011431352e-13
1.328205549964178e-13
1.330581604558325e-13
1.388796851079296e-13
1.345142155786705e-13
1.362124831608298e-13
1.288358352236146e-13
1.257697158093708e-13
1.290772717167723e-13
1.271306384094046e-13
1.264676434836019e-13
1.27589406756877e-13
1.328291288118655e-13
1.348590931019679e-13
1.263799630657004e-13
1.306216970830307e-13
1.224697076712445e-13
1.256460444464782e-13
1.269743159406765e-13
1.287341293315803e-13
1.264741753541962e-13
1.291546284020966e-13
1.174656077461515e-13
1.200457074606095e-13
1.109883596804171e-13
1.190001961511899e-13
1.198548908321078e-13
1.245768471905928e-13
1.196299529684938e-13
1.225725161677612e-13
1.125253713604228e-13
1.197334464593076e-13
1.123614905936547e-13
1.231454114527537e-13
1.178745479089268e-13
1.29631709902154e-13
1.228060462624987e-13
1.241602118848082e-13
1.114930645079492e-13
1.254249372325903e-13
1.091265072971799e-13
1.234890358565577e-13
1.08190780285841e-13
1.155580641637367e-13
9.823366177431837e-14
1.131237517101284e-13
7.831273598458613e-14
8.780328385829278e-14
4.071886526318804e-14
-6.550917727737856e-14
-4.014183130397575e-13
-8.291889661427833e-13
-6.561266104412891e-14
6.800353047223424e-13
5.34109424345744e-13
3.391171857585497e-13
3.154929354283215e-13
2.92435052819213e-13
2.438733388746857e-13
2.095094750190363e-13
1.879989778695219e-13
1.782223848991731e-13
1.6620896701811e-13
1.581474682721085e-13
1.485136396945007e-13
1.426730664049683e-13
1.366988500458888e-13
1.315749518362004e-13
1.327961835123585e-13
1.388878506600519e-13
1.348155258935665e-13
1.361212418242369e-13
1.287446025305867e-13
1.26089941953025e-13
1.291022746007729e-13
1.272056090454288e-13
1.265937303360473e-13
1.277951832419105e-13
1.32486038566366e-13
1.346099453811683e-13
1.258021607057482e-13
1.305985461190029e-13
1.23724442672487e-13
1.258549647418137e-13
1.263061597119472e-13
1.288004369394012e-13
1.268385048411825e-13
1.291886051850584e-13
1.168538662277623e-13
1.195474504846606e-13
1.12010310798071e-13
1.188670186257786e-13
1.196512282717191e-13
1.257454823537353e-13
1.194624164999021e-13
1.218374941443969e-13
1.124826697893441e-13
1.199775881972492e-13
1.122453184297e-13
1.221043320635583e-13
1.179946499597652e-13
1.305496398283355e-13
1.219289121480455e-13
1.237662502403016e-13
1.127826235511344e-13
1.2578040214334e-13
1.089224778786658e-13
1.229054318495218e-13
1.075958973882486e-13
1.150277530119146e-13
9.916488636311435e-14
1.141744886400159e-13
7.849212768473138e-14
8.98368537177327e-14
4.856240637918087e-14
-4.921937010004728e-14
-3.973285719884083e-13
-8.915695842112608e-13
-1.190494445796175e-13
7.382865193078983e-13
5.736566024668611e-13
3.404947188950696e-13
3.154457221360042e-13
2.916936587398671e-13
2.436648123007804e-13
2.107212349064794e-13
1.88430020149279e-13
1.781520681206901e-13
1.647328271339341e-13
1.556555584695799e-13
1.470961264330457e-13
1.429238715183245e-13
1.359071450996116e-13
1.302403894314213e-13
1.329686190620545e-13
1.381209742892884e-13
1.338649959247215e-13
1.358351190619692e-13
1.293866936614321e-13
1.276795344628225e-13
1.294730049971462e-13
1.271291666634556e-13
1.258589576409541e-13
1.276608503115944e-13
1.320003349879836e-13
1.345298485013021e-13
1.25091583227797e-13
1.293780109248788e-13
1.251609616636077e-13
1.262987273024515e-13
1.257046446434099e-13
1.286808346194259e-13
1.279953302153327e-13
1.29154856043827e-13
1.162750177960216e-13
1.199365631474293e-13
1.132404603463076e-13
1.18490611355477e-13
1.194762753662925e-13
1.279522265244898e-13
1.192378225071943e-13
1.203771104358975e-13
1.124731908181192e-13
1.200012731933514e-13
1.118092166327295e-13
1.217764771769835e-13
1.183263591245394e-13
1.312194996230101e-13
1.199384316524311e-13
1.225768268380677e-13
1.157508507986032e-13
1.275169306489563e-13
1.079005334314096e-13
1.213312659048628e-13
1.062339565950403e-13
1.139656519707036e-13
1.01015146109955e-13
1.1608940767956e-13
8.011081413282804e-14
9.267403588398271e-14
5.958960506011389e-14
-2.579925809460954e-14
-3.935524515603303e-13
-9.746984260637096e-13
-1.554997182381888e-13
7.913946574160495e-13
6.06167444601169e-13
3.410484483272304e-13
3.139189389650861e-13
2.877187770660714e-13
2.428007919266471e-13
2.135735920632505e-13
1.897152132969972e-13
1.769734588650551e-13
1.608638195012684e-13
1.52748268367124e-13
1.467535905644959e-13
1.423348620105017e-13
1.350977347795151e-13
1.309501336756741e-13
1.338795580782317e-13
1.353477163711964e-13
1.30546345876402e-13
1.347701941144354e-13
1.304876369928448e-13
1.317516107412889e-13
1.298061632241293e-13
1.263590764301637e-13
1.249744820045462e-13
1.265263450332848e-13
1.316322444500112e-13
1.352856385458411e-13
1.26024678433544e-13
1.275274865801797e-13
1.243833764182043e-13
1.263204551937963e-13
1.263951735581942e-13
1.287855093459785e-13
1.293553494957125e-13
1.272077878324931e-13
1.164079530921931e-13
1.228750332081862e-13
1.134638558494694e-13
1.191737676267954e-13
1.191292682537436e-13
1.293934672816421e-13
1.192059523766459e-13
1.192164608125062e-13
1.122046693091325e-13
1.185265106959002e-13
1.123134535146836e-13
1.2237725344878e-13
1.180475674376881e-13
1.305982475534345e-13
1.184399906421934e-13
1.216106748406486e-13
1.168591433426358e-13
1.272274288466883e-13
1.073052484818233e-13
1.208005932896421e-13
1.059247360335113e-13
1.145681205104148e-13
1.016083002753159e-13
1.15886596945553e-13
8.335032195794474e-14
9.790022479574949e-14
7.07906342023284e-14
-6.109906476311649e-15
-3.972692396797281e-13
-1.044762095416748e-12
-1.643032824320379e-13
8.266165831031841e-13
6.216147682795015e-13
3.407875752872788e-13
3.100280129414493e-13
2.810312248491336e-13
2.390154597288565e-13
2.153594103664668e-13
1.912396559931305e-13
1.756919985381194e-13
1.607665642620379e-13
1.496531605031716e-13
1.448856712047368e-13
1.402684659649694e-13
1.336907076824555e-13
1.33482105377118e-13
1.331351317478838e-13
1.32031307630143e-13
1.306161816122323e-13
1.330729289450693e-13
1.296843794865291e-13
1.358986792061855e-13
1.300120026904766e-13
1.243349878840806e-13
1.252409275760365e-13
1.286179335970069e-13
1.317295805119721e-13
1.350974183381437e-13
1.268938637832993e-13
1.264489596265263e-13
1.212528210755612e-13
1.258044120195954e-13
1.289798700566011e-13
1.291553234532193e-13
1.278527509569505e-13
1.244264244098478e-13
1.170896553162955e-13
1.248415629399303e-13
1.168001708801372e-13
1.212577688427375e-13
1.18432526424594e-13
1.275451542399937e-13
1.182804653775316e-13
1.209558506024619e-13
1.108132638640858e-13
1.168256031354035e-13
1.138318601912643e-13
1.223505221009357e-13
1.181809996324743e-13
1.280547364293123e-13
1.17796576918118e-13
1.218293648863365e-13
1.146105199854292e-13
1.249508282480082e-13
1.081841324567511e-13
1.238540313704664e-13
1.097035794313148e-13
1.163037997183421e-13
1.001977331756426e-13
1.128612604243938e-13
8.323450610576114e-14
1.03106900765543e-13
8.023809266286447e-14
4.238869207197206e-15
-4.047382832988772e-13
-1.081046057495095e-12
-1.559714766077012e-13
8.441582290638786e-13
6.224298253288712e-13
3.367539090153895e-13
3.043824305060073e-13
2.747557915978421e-13
2.319224378387976e-13
2.126529132671108e-13
1.936194849653135e-13
1.738262523490856e-13
1.617971369380958e-13
1.470492744007822e-13
1.422290567096326e-13
1.417656011907517e-13
1.343349434622806e-13
1.35960744857514e-13
1.299976245833897e-13
1.279690200220948e-13
1.341127950243826e-13
1.321018126176112e-13
1.262123026141647e-13
1.359306568007898e-13
1.306308479004371e-13
1.241786223827333e-13
1.263924698877406e-13
1.329438826848537e-13
1.306605869349772e-13
1.329950250308813e-13
1.261594614184417e-13
1.252742082627888e-13
1.230322085607645e-13
1.265173672035228e-13
1.272434915409448e-13
1.273462980376995e-13
1.245097792563145e-13
1.241888283987468e-13
1.179352656487675e-13
1.239438101493839e-13
1.221082110206703e-13
1.232385246689587e-13
1.205339087879683e-13
1.238434932340591e-13
1.150953857895211e-13
1.23519259780643e-13
1.095991369011659e-13
1.178087834439186e-13
1.170050489788483e-13
1.223048566405932e-13
1.168433151991105e-13
1.250964978364101e-13
1.158862734241345e-13
1.224525000323491e-13
1.133641126950815e-13
1.226645237456406e-13
1.099428039965128e-13
1.272506209241941e-13
1.123141881643405e-13
1.165285111400867e-13
9.954263319779651e-14
1.107765006356043e-13
8.40431909484347e-14
1.07839723702818e-13
8.55416622023991e-14
1.10753920090144e-14
-4.085554946511447e-13
-1.089189724141726e-12
-1.396855837618501e-13
8.45552282941451e-13
6.138205293882545e-13
3.278530983493873e-13
2.961078610682153e-13
2.693264652550119e-13
2.29017403341991e-13
2.075717846658038e-13
1.920318752938188e-13
1.706726945804563e-13
1.59788457345052e-13
1.50919193614487e-13
1.435162902763045e-13
1.41514760431892e-13
1.325262521510268e-13
1.360082123912681e-13
1.291104502516361e-13
1.24606084753539e-13
1.331448134544574e-13
1.314390246755564e-13
1.250757820416662e-13
1.332466418963317e-13
1.300788798119509e-13
1.258305704100153e-13
1.275854046429961e-13
1.341704454978704e-13
1.281117874460625e-13
1.316801230886912e-13
1.27555713415568e-13
1.252046174843495e-13
1.263228335886576e-13
1.265354511310064e-13
1.233517925072621e-13
1.262828598167763e-13
1.218773994090327e-13
1.241480156317921e-13
1.194631300148236e-13
1.22831828348993e-13
1.25155750780862e-13
1.25050241261784e-13
1.225963126584583e-13
1.211079821327701e-13
1.107374691736519e-13
1.226097265262146e-13
1.128753923697792e-13
1.200848032084814e-13
1.181706251965036e-13
1.227330574765229e-13
1.146177292996698e-13
1.2304181796031e-13
1.15166874078159e-13
1.236414584020273e-13
1.125701389566655e-13
1.195268941043399e-13
1.124686560237851e-13
1.278097925722432e-13
1.111693888156662e-13
1.170756462993079e-13
1.002809605148829e-13
1.121915514018599e-13
8.862121696545961e-14
1.117809362087946e-13
8.833486605407432e-14
1.864473807435731e-14
-4.067824974253552e-13
-1.075361978526609e-12
-1.198531065866963e-13
8.333633608888348e-13
5.974586885060182e-13
3.170692181451018e-13
2.860829888792894e-13
2.629685865311414e-13
2.296878340271122e-13
2.0100867213722e-13
1.84833198678394e-13
1.699826105407611e-13
1.563597400218998e-13
1.5302195752133e-13
1.44486180825664e-13
1.378331146987577e-13
1.302044547148134e-13
1.354993280327594e-13
1.303971889268293e-13
1.24382665623327e-13
1.30081872243661e-13
1.302806824338195e-13
1.260492630959926e-13
1.300744534289723e-13
1.28613441190087e-13
1.273779186281502e-13
1.273292340007167e-13
1.331040895847992e-13
1.255782691507352e-13
1.306957507642282e-13
1.329396778097061e-13
1.261075988242464e-13
1.232781824981628e-13
1.255707404064933e-13
1.225766316987806e-13
1.265805089460611e-13
1.207493574918102e-13
1.235582023120079e-13
1.217950418824281e-13
1.224942814649923e-13
1.253099882437248e-13
1.259094027699595e-13
1.212265806605929e-13
1.204859757496897e-13
1.093323617231911e-13
1.216389800807537e-13
1.199589099845889e-13
1.204868181325564e-13
1.152450122534732e-13
1.220085166388657e-13
1.134399887144726e-13
1.215366925351068e-13
1.156265365930778e-13
1.254229215580729e-13
1.108040023579807e-13
1.171130192109367e-13
1.165337335934683e-13
1.267195975344869e-13
1.097415883943498e-13
1.188829712948497e-13
1.009657894543114e-13
1.136743998483163e-13
9.357907634191565e-14
1.154312636050197e-13
9.139314173739851e-14
2.698683382629991e-14
-3.970600945194419e-13
-1.042229081814384e-12
-9.833537835144874e-14
8.068540974096174e-13
5.74259267415414e-13
3.085341749765798e-13
2.750172370218631e-13
2.526584009882955e-13
2.229981920164741e-13
1.938899499419945e-13
1.80960722029502e-13
1.687435096213514e-13
1.515939117841624e-13
1.499791295902672e-13
1.425978915088039e-13
1.360624942919165e-13
1.313892457179782e-13
1.361988325086365e-13
1.315078654549682e-13
1.240986733631965e-13
1.277264433986339e-13
1.281096547887608e-13
1.256523768504904e-13
1.276048026549506e-13
1.272642340055175e-13
1.283401705529386e-13
1.274394529038962e-13
1.32140578527591e-13
1.21974419051164e-13
1.294890392866934e-13
1.362292773510152e-13
1.254897494916453e-13
1.237609358060999e-13
1.262727756165458e-13
1.218898797801246e-13
1.240680128234805e-13
1.207928246949838e-13
1.242814152880419e-13
1.221165902576029e-13
1.246292537408475e-13
1.249390193359907e-13
1.25159315478048e-13
1.181688521342088e-13
1.203924416416156e-13
1.145460227939205e-13
1.220588513855103e-13
1.222681539759127e-13
1.205098279688709e-13
1.130415708001471e-13
1.205243420433836e-13
1.124346215503642e-13
1.195478101269122e-13
1.148039820673939e-13
1.24106829131202e-13
1.109967704333197e-13
1.184819349076339e-13
1.174525237058226e-13
1.243836595200969e-13
1.104221112667775e-13
1.223229945578739e-13
1.028160700017493e-13
1.147895439455254e-13
9.837816762466496e-14
1.193066114649807e-13
9.437209090069463e-14
3.659740092561265e-14
-3.769470886453606e-13
-9.9086347743049e-13
-7.918545880923438e-14
7.683825091596239e-13
5.495388981852524e-13
2.982350792316377e-13
2.605324761053402e-13
2.397357106829539e-13
2.107151819401025e-13
1.857914229713292e-13
1.769510115373322e-13
1.638154924948644e-13
1.489707008536581e-13
1.485172649654288e-13
1.39889858074301e-13
1.34787548389975e-13
1.352634162006258e-13
1.354322020718517e-13
1.301652149806427e-13
1.25281034592704e-13
1.252846746882794e-13
1.252617815736315e-13
1.262288628528126e-13
1.261238759990575e-13
1.251837345723414e-13
1.29919360828227e-13
1.272591305748036e-13
1.297493453567806e-13
1.223904297995915e-13
1.281425640677151e-13
1.328742717079893e-13
1.270319607754152e-13
1.256767623208237e-13
1.258000785837155e-13
1.224240769560899e-13
1.220115544313876e-13
1.218110042500468e-13
1.248036181454214e-13
1.215794759399868e-13
1.263833861315167e-13
1.233507412168557e-13
1.241596817840782e-13
1.169847792274165e-13
1.195956780287838e-13
1.19771172125908e-13
1.223670373715963e-13
1.207491753833777e-13
1.209083272407399e-13
1.14554061868603e-13
1.200384844248147e-13
1.120177852353973e-13
1.174524741131539e-13
1.12921952572535e-13
1.196546977497021e-13
1.134616084870134e-13
1.236486595644941e-13
1.155093964791481e-13
1.210823483932012e-13
1.126178685564915e-13
1.25113940703063e-13
1.046619263130988e-13
1.168818680778572e-13
1.036037416869014e-13
1.228326467538091e-13
9.780552703299272e-14
4.76931169412716e-14
-3.472897301737426e-13
-9.222171672332e-13
-6.302311814765517e-14
7.206942060947357e-13
5.199599784772743e-13
2.817254622820368e-13
2.443182232866964e-13
2.261733788440956e-13
1.992820037196454e-13
1.778376633954624e-13
1.690258898537619e-13
1.586789003788899e-13
1.460395708931796e-13
1.456031404653077e-13
1.383842980813533e-13
1.335103750375344e-13
1.393863519694883e-13
1.33403999203171e-13
1.2636999677872e-13
1.27889642047965e-13
1.24264965811805e-13
1.237882820750911e-13
1.273309601700955e-13
1.24348226554922e-13
1.232284991422921e-13
1.319992502720695e-13
1.255760488463746e-13
1.262020809389313e-13
1.282308133001785e-13
1.266501168563402e-13
1.280301838647305e-13
1.290014251000961e-13
1.24709037286247e-13
1.247281688456526e-13
1.22014642986604e-13
1.237586740254275e-13
1.230728033270646e-13
1.240666642985516e-13
1.229189099332541e-13
1.255734403107076e-13
1.220976813809429e-13
1.21628379498966e-13
1.16683074411978e-13
1.210489334854809e-13
1.185796731279969e-13
1.223959250810002e-13
1.212962666290169e-13
1.214733656415346e-13
1.185963961683549e-13
1.201659761976061e-13
1.123602654018151e-13
1.158396169094813e-13
1.11548969851444e-13
1.190295115358983e-13
1.149878203818299e-13
1.241707082758602e-13
1.169524912438589e-13
1.195726712726338e-13
1.12349277601483e-13
1.268802370498143e-13
1.066463246841817e-13
1.179159927878611e-13
1.087199849663493e-13
1.261000658952768e-13
1.018653240960928e-13
6.060321905197428e-14
-3.078907056532743e-13
-8.384768851848943e-13
-4.989340306368696e-14
6.596557566054542e-13
4.818910560804291e-13
2.634080374124456e-13
2.300347131926847e-13
2.124448687549305e-13
1.883885263128312e-13
1.706612930672297e-13
1.609664103459608e-13
1.533337449303155e-13
1.430237891192203e-13
1.410849449163078e-13
1.369734662016063e-13
1.333231252301755e-13
1.37534399822687e-13
1.312370504809638e-13
1.250998511752663e-13
1.27502735086766e-13
1.229018673276442e-13
1.243927512129488e-13
1.284337581408e-13
1.241214290184177e-13
1.220911903822953e-13
1.309974989010624e-13
1.268509093365019e-13
1.249748445891728e-13
1.29270295951934e-13
1.236377211138408e-13
1.259916064154133e-13
1.305441714849958e-13
1.238443809905355e-13
1.250566080829177e-13
1.22409922433809e-13
1.241155173012201e-13
1.213733970326649e-13
1.241799799047625e-13
1.25468808191672e-13
1.246274719077089e-13
1.22749565851258e-13
1.205716093963962e-13
1.158485107757895e-13
1.218072602199574e-13
1.186086738781786e-13
1.21659504590457e-13
1.210401368719082e-13
1.236495237643378e-13
1.194734713409718e-13
1.192393294168186e-13
1.154933939064365e-13
1.151367332870024e-13
1.113800115999133e-13
1.207556954576421e-13
1.159040312639733e-13
1.233786121043531e-13
1.16628097744324e-13
1.192189366384729e-13
1.13031929569669e-13
1.252608413665071e-13
1.094344786933124e-13
1.196999117601074e-13
1.133333957292876e-13
1.288768189665255e-13
1.068391318981334e-13
7.391443702531452e-14
-2.589445577155378e-13
-7.389995224994431e-13
-3.854149504582403e-14
5.848011975047158e-13
4.380851365341011e-13
2.447661588856028e-13
2.156665485504543e-13
1.98801470421589e-13
1.77230762596184e-13
1.629211311777814e-13
1.527579177611919e-13
1.477624196713532e-13
1.41408530140883e-13
1.364807923895582e-13
1.339535670291884e-13
1.330077717362767e-13
1.320354559330417e-13
1.292732116747111e-13
1.272444176877594e-13
1.259516196723738e-13
1.217049646956343e-13
1.237013755627751e-13
1.272690200895477e-13
1.240631046374409e-13
1.223735059289998e-13
1.303527874793666e-13
1.288610101391825e-13
1.253687738162446e-13
1.26244145249252e-13
1.216002371142945e-13
1.259373400572575e-13
1.311938704297998e-13
1.244971289909559e-13
1.251031261826136e-13
1.23241628213546e-13
1.244314254732742e-13
1.196340218874389e-13
1.236432313430263e-13
1.278538024387277e-13
1.233655251294602e-13
1.218227654226356e-13
1.229710584336839e-13
1.161219184931511e-13
1.205309991417709e-13
1.220703592148296e-13
1.200831251072722e-13
1.189113653517407e-13
1.242441204851687e-13
1.182684281250705e-13
1.189494445271388e-13
1.183365531594347e-13
1.158907956767321e-13
1.124573327896194e-13
1.217450673818585e-13
1.170463811867256e-13
1.230806227500994e-13
1.163044331037522e-13
1.191734233694029e-13
1.139911199800626e-13
1.227234990761201e-13
1.116366986440447e-13
1.215888938846114e-13
1.173543611895169e-13
1.307058191015065e-13
1.125132484970731e-13
8.661753877379038e-14
-2.01349741581389e-13
-6.220232012698865e-13
-2.760805044826779e-14
4.972376994771888e-13
3.898885937197737e-13
2.250283263342225e-13
1.991511369669319e-13
1.842337758958222e-13
1.651638401524694e-13
1.547160410590562e-13
1.452570707265409e-13
1.419144312874158e-13
1.387645142837619e-13
1.329042724111062e-13
1.304237428880824e-13
1.303181333871905e-13
1.286948390884625e-13
1.271972984570545e-13
1.274563353174334e-13
1.269623348600516e-13
1.217444283756671e-13
1.212816004834288e-13
1.259502588525649e-13
1.238373535225309e-13
1.231321862209934e-13
1.295858004244249e-13
1.279128467351151e-13
1.262332421959554e-13
1.250481559522211e-13
1.221492531935116e-13
1.256187509979807e-13
1.294092558617015e-13
1.270459175866423e-13
1.254882122506657e-13
1.227931244475842e-13
1.245917152166842e-13
1.196887467262192e-13
1.236906807291575e-13
1.272079912260319e-13
1.224937389320143e-13
1.225275762095591e-13
1.240217288252144e-13
1.178128153701873e-13
1.197975382542058e-13
1.21220570922835e-13
1.188198615602833e-13
1.186158769303893e-13
1.223724178352503e-13
1.188303539572533e-13
1.209140139154931e-13
1.186564749398062e-13
1.164671204757268e-13
1.144991027863782e-13
1.22629008588449e-13
1.181908119460014e-13
1.213224844177427e-13
1.16865104962022e-13
1.18760961199018e-13
1.148277427953793e-13
1.236038369184416e-13
1.143533913295847e-13
1.216429856650075e-13
1.205913616327091e-13
1.311724817595585e-13
1.178788694870305e-13
9.921178439138868e-14
-1.359679015576933e-13
-4.877063203581899e-13
-1.741843871738934e-14
3.977816371797012e-13
3.37690836041945e-13
2.048300964263582e-13
1.80672429245072e-13
1.68182269674357e-13
1.527219712405623e-13
1.462779718427123e-13
1.384691507082575e-13
1.358524918826409e-13
1.348943927249807e-13
1.297858767752866e-13
1.270843219132294e-13
1.274333105508481e-13
1.269104906774077e-13
1.250258169998168e-13
1.251976043623447e-13
1.270688073188262e-13
1.223422510675238e-13
1.208128533816163e-13
1.260905391674856e-13
1.242296083832982e-13
1.235718771127458e-13
1.268859874637528e-13
1.265311560793027e-13
1.266565213859218e-13
1.25020707820422e-13
1.233515121783826e-13
1.247831948410193e-13
1.280748977126319e-13
1.279301658193716e-13
1.255038049438249e-13
1.22784810106374e-13
1.228067156959004e-13
1.205191158963781e-13
1.243056245397315e-13
1.255323907904387e-13
1.240607422307371e-13
1.246520851887595e-13
1.235671289158251e-13
1.192307006817351e-13
1.191851149306729e-13
1.19035539260435e-13
1.185598356717519e-13
1.195854649629287e-13
1.205506376035583e-13
1.193464267543086e-13
1.217818328995662e-13
1.177946744091609e-13
1.164878880758673e-13
1.16825975996869e-13
1.228624542181325e-13
1.194372483944996e-13
1.208400546941493e-13
1.17564251368381e-13
1.184744716463336e-13
1.167110102943214e-13
1.240574370348377e-13
1.172120147515424e-13
1.217567616816553e-13
1.234565469778334e-13
1.309038624161777e-13
1.228949971594484e-13
1.108415216114397e-13
-6.348841626695221e-14
-3.372307633336308e-13
-4.346072037070081e-15
2.889552610670768e-13
2.789149737194309e-13
1.828924276759639e-13
1.611537868425608e-13
1.517875298985719e-13
1.405588019231321e-13
1.371274652389319e-13
1.31363069656763e-13