/*--------------------------------*- C++ -*----------------------------------*\
| =========                 |                                                 |
| \\      /  F ield         | OpenFOAM: The Open Source CFD Toolbox           |
|  \\    /   O peration     | Version:  v1812                                 |
|   \\  /    A nd           | Web:      www.OpenFOAM.com                      |
|    \\/     M anipulation  |                                                 |
\*---------------------------------------------------------------------------*/
FoamFile
{
    version     2.0;
    format      ascii;
    class       surfaceScalarField;
    location    "10000";
    object      phi;
}
// * * * * * * * * * * * * * * * * * * * * * * * * * * * * * * * * * * * * * //

dimensions      [0 3 -1 0 0 0 0];
oriented        oriented;


internalField   nonuniform List<scalar> 
5567
(
0.0009155110113206918
1.466334936432542e-15
0.000915511011319681
1.012481599576528e-15
0.0009155110113197171
-3.259364230198372e-17
0.0009155110113197862
-6.399689844715654e-17
0.0009155110113198726
-8.432798519388461e-17
0.0009155110113199713
-1.03156503399922e-16
0.0009155110113200749
-1.067430689628705e-16
0.0009155110113201533
-7.906461578021043e-17
0.0009155110113202523
-1.010387568286612e-16
0.0009155110113203448
-9.208155185461771e-17
0.0009155110113204429
-9.546729490717507e-17
0.0009155110113205303
-8.588730046824408e-17
0.0009155110113206198
-9.025254245441085e-17
0.0009155110113206915
-6.835904302948631e-17
0.0009155110113207722
-7.92552482707183e-17
0.0009155110113208304
-5.261937354685278e-17
0.0009155110113208894
-5.338735123727562e-17
0.0009155110113209399
-5.187142406742571e-17
0.0009155110113209964
-5.657961640370806e-17
0.0009155110113210198
-2.490603321650489e-17
0.0009155110113210483
-2.763165080191599e-17
0.0009155110113210477
-3.579458779313398e-18
0.0009155110113210692
-2.505671468708814e-17
0.0009155110113210673
6.949081528304514e-18
0.0009155110113210913
-2.162574243765422e-17
0.000915511011321084
1.122175207606287e-17
0.0009155110113211029
-1.497856986122047e-17
0.000915511011321086
9.991169840896157e-18
0.0009155110113210671
1.383034643970796e-17
0.0009155110113210277
3.656073370973029e-17
0.0009155110113209893
3.320613503161698e-17
0.0009155110113209499
4.128040675940615e-17
0.0009155110113209475
3.625392909667221e-18
0.0009155110113209213
2.246362238457616e-17
0.0009155110113209123
6.386426830210041e-18
0.0009155110113208788
3.19515136564007e-17
0.0009155110113208629
1.354498292401337e-17
0.0009155110113208177
4.47342493263182e-17
0.0009155110113207707
4.583285748071285e-17
0.0009155110113207177
5.686614785833047e-17
0.0009155110113207083
1.377270647558751e-17
0.0009155110113206865
2.163294443216065e-17
0.0009155110113206882
-1.753837245808344e-18
0.0009155110113206437
4.32685138508704e-17
0.0009155110113206131
2.852675467019643e-17
0.0009155110113205708
4.516309361357229e-17
0.0009155110113205741
-2.522519580968059e-18
0.0009155110113205721
4.802726152312708e-18
0.0009155110113205878
-1.129016306580004e-17
0.000915511011320576
9.787794963259765e-18
0.0009155110113206118
-3.642234076532868e-17
0.0009155110113206078
2.726402196230613e-18
0.0009155110113206377
-3.18263294557168e-17
0.0009155110113206482
-8.207703811188904e-18
0.0009155110113207043
-5.448631751780491e-17
0.0009155110113207349
-3.012992279534628e-17
0.0009155110113208018
-6.620957775934412e-17
0.0009155110113208237
-1.974821935124209e-17
0.000915511011320855
-2.775622537296823e-17
0.0009155110113208877
-3.804729341324418e-17
0.0009155110113208873
-2.816745375574314e-18
0.0009155110113208999
-1.58466380752294e-17
0.0009155110113209877
-9.225937600247377e-17
0.0009155110113213202
-3.318220577221411e-16
0.000915511011321956
-6.355816646839453e-16
-3.324846606528212e-16
0.0009452416175567502
3.162664566907498e-15
0.0009452416175560387
1.722952226836205e-15
0.0009452416175561315
-1.166513685894075e-16
0.0009452416175562347
-1.571609725549909e-16
0.0009452416175563346
-1.872446625276674e-16
0.0009452416175564429
-2.166398291576929e-16
0.0009452416175565526
-2.177398308543622e-16
0.0009452416175566404
-1.656174706408382e-16
0.0009452416175567496
-2.079827441947846e-16
0.0009452416175568466
-1.829769309088519e-16
0.0009452416175569479
-1.911674341093159e-16
0.0009452416175570321
-1.719065797106012e-16
0.0009452416175571163
-1.808852610241842e-16
0.000945241617557187
-1.337558010848641e-16
0.0009452416175572674
-1.607919054971219e-16
0.0009452416175573233
-1.062957975350948e-16
0.0009452416175573794
-9.818803681400903e-17
0.0009452416175574214
-9.599761590238936e-17
0.0009452416175574741
-1.121038399338124e-16
0.0009452416175574934
-4.469064781500082e-17
0.0009452416175575207
-5.383813376293848e-17
0.0009452416175575199
-1.148340114774501e-17
0.0009452416175575413
-5.31636584442357e-17
0.0009452416175575409
1.510588768146587e-17
0.0009452416175575631
-4.046734885925853e-17
0.0009452416175575554
2.608888048165858e-17
0.0009452416175575663
-1.805458875046663e-17
0.0009452416175575398
2.774904504570051e-17
0.0009452416175575198
2.258400966016137e-17
0.0009452416175574755
7.836139507649848e-17
0.0009452416175574444
5.933626141536599e-17
0.0009452416175574124
7.479160292760956e-17
0.0009452416175574085
1.060928444003198e-17
0.0009452416175573794
4.502406705571591e-17
0.0009452416175573678
1.663348782893952e-17
0.0009452416175573267
7.423303993220439e-17
0.0009452416175573086
2.755285460345883e-17
0.0009452416175572552
9.764472098344307e-17
0.0009452416175572122
8.974059789135996e-17
0.0009452416175571623
1.077172080678854e-16
0.0009452416175571532
2.923138082458986e-17
0.000945241617557128
5.099708899842067e-17
0.0009452416175571247
1.896675922405807e-18
0.0009452416175570734
9.623702910309878e-17
0.0009452416175570439
5.27455829213617e-17
0.0009452416175570013
8.92539177592831e-17
0.0009452416175570104
-6.514213834146039e-18
0.0009452416175570004
1.935324715949375e-17
0.0009452416175570129
-1.544377536127822e-17
0.0009452416175569975
2.387574194391616e-17
0.0009452416175570318
-7.67609501600453e-17
0.0009452416175570253
7.518351119282267e-18
0.0009452416175570614
-7.204054260533346e-17
0.0009452416175570719
-1.531087497626797e-17
0.0009452416175571392
-1.180261969313358e-16
0.0009452416175571671
-5.884254687155955e-17
0.0009452416175572362
-1.379926796905926e-16
0.0009452416175572505
-3.473396093074222e-17
0.0009452416175572881
-5.877234710158819e-17
0.0009452416175573043
-5.831767475461066e-17
0.0009452416175573154
-1.982239927860657e-17
0.0009452416175573163
-2.43219647882364e-17
0.0009452416175574278
-2.090405682055106e-16
0.0009452416175577352
-6.364718657161997e-16
0.0009452416175583474
-1.247385748406148e-15
-4.379677534507053e-16
0.000989195371756524
4.96500507876968e-15
0.000989195371755793
2.456838462616728e-15
0.0009891953717559344
-2.574076154767822e-16
0.0009891953717560728
-2.956295855910358e-16
0.0009891953717561972
-3.083591408131243e-16
0.0009891953717563206
-3.420053155445062e-16
0.0009891953717564399
-3.401573293494808e-16
0.0009891953717565416
-2.693472715529278e-16
0.0009891953717566582
-3.281089496027085e-16
0.0009891953717567565
-2.833034772122352e-16
0.0009891953717568558
-2.898330703036365e-16
0.0009891953717569319
-2.455043545800255e-16
0.000989195371757008
-2.557942348220776e-16
0.0009891953717570789
-2.031307424977197e-16
0.000989195371757157
-2.381348043799222e-16
0.0009891953717572086
-1.53283021394748e-16
0.0009891953717572606
-1.48847951540865e-16
0.0009891953717572951
-1.317429938761052e-16
0.0009891953717573424
-1.563128204805724e-16
0.0009891953717573586
-6.172896522687946e-17
0.0009891953717573799
-7.481778403814188e-17
0.0009891953717573794
-1.192046566151696e-17
0.0009891953717574033
-7.777075061885999e-17
0.0009891953717574065
1.442844801995431e-17
0.0009891953717574291
-6.265413126292886e-17
0.0009891953717574165
3.837746772928957e-17
0.0009891953717574131
-1.316367596150269e-17
0.0009891953717573786
5.734151032916332e-17
0.0009891953717573569
4.313917917988499e-17
0.0009891953717573127
1.227767802862973e-16
0.0009891953717572897
7.878997321166153e-17
0.0009891953717572626
1.026929226695716e-16
0.0009891953717572556
1.863992075919137e-17
0.0009891953717572229
7.550501287425032e-17
0.0009891953717572118
2.499284204425523e-17
0.0009891953717571646
1.210391017410109e-16
0.0009891953717571361
5.541835539048462e-17
0.0009891953717570835
1.508606813235381e-16
0.0009891953717570427
1.284383227971389e-16
0.0009891953717569963
1.569209831300512e-16
0.0009891953717569893
3.750946796910764e-17
0.0009891953717569596
7.812017157303367e-17
0.0009891953717569494
1.173844700685698e-17
0.0009891953717568961
1.474831533427648e-16
0.0009891953717568625
8.563004025055715e-17
0.0009891953717568282
1.273489743212276e-16
0.0009891953717568393
-1.847015118549109e-17
0.0009891953717568215
3.837598988163847e-17
0.0009891953717568248
-1.725958031128319e-17
0.0009891953717568061
3.949218784999986e-17
0.0009891953717568367
-1.055772925078515e-16
0.0009891953717568328
1.19455927741898e-17
0.0009891953717568688
-1.081593139630146e-16
0.0009891953717568876
-3.205046207182454e-17
0.000989195371756956
-1.849936952954914e-16
0.0009891953717569833
-8.653806549319229e-17
0.0009891953717570479
-2.019035897999524e-16
0.0009891953717570611
-4.700806501250263e-17
0.000989195371757101
-9.856200012402988e-17
0.0009891953717571054
-6.551761114711829e-17
0.0009891953717571236
-3.806139431076974e-17
0.0009891953717571129
-1.381465893376103e-17
0.0009891953717572489
-3.460317453330783e-16
0.0009891953717575262
-9.132913737762224e-16
0.0009891953717581796
-1.900340456072721e-15
-5.836827092188354e-16
0.001079389436862096
6.961104939161811e-15
0.001079389436861325
3.226648468896474e-15
0.001079389436861544
-4.690448738687408e-16
0.001079389436861735
-4.785667574800264e-16
0.001079389436861878
-4.531485547580884e-16
0.001079389436862009
-4.771337202591757e-16
0.001079389436862131
-4.646879918525005e-16
0.001079389436862241
-3.790360448219211e-16
0.001079389436862362
-4.494948015882507e-16
0.001079389436862463
-3.793199940246823e-16
0.001079389436862569
-3.913722207168963e-16
0.001079389436862637
-3.141086254243203e-16
0.001079389436862701
-3.234873897903224e-16
0.001079389436862774
-2.706093852066512e-16
0.001079389436862849
-3.121913573361356e-16
0.001079389436862892
-1.925631236744034e-16
0.001079389436862946
-1.95333530308952e-16
0.001079389436862977
-1.65158402040304e-16
0.001079389436863025
-2.072532001453255e-16
0.001079389436863043
-8.240215881131341e-17
0.001079389436863058
-8.813454607354515e-17
0.001079389436863053
-1.346745105782831e-17
0.001079389436863078
-1.097736783000827e-16
0.001079389436863084
1.466743214324389e-17
0.001079389436863107
-8.205016833089643e-17
0.0010793894368631
5.130844022696634e-17
0.001079389436863093
2.20598999583219e-18
0.001079389436863052
9.086656161883287e-17
0.001079389436863027
5.983561021556319e-17
0.001079389436862976
1.693650085484514e-16
0.001079389436862953
9.290967104994677e-17
0.001079389436862927
1.306085281090663e-16
0.001079389436862914
3.590764357018552e-17
0.001079389436862881
1.04861771975462e-16
0.001079389436862869
3.550864541943987e-17
0.001079389436862821
1.676743162949174e-16
0.001079389436862788
8.559220185690429e-17
0.001079389436862727
2.117172930994343e-16
0.001079389436862687
1.681930228658906e-16
0.001079389436862642
2.051342645399915e-16
0.001079389436862627
5.926450632550639e-17
0.001079389436862601
1.07189011676489e-16
0.00107938943686259
2.277640444168534e-17
0.001079389436862534
2.047394646293033e-16
0.001079389436862494
1.23199820572139e-16
0.001079389436862457
1.663117393130435e-16
0.001079389436862467
-2.832975183403537e-17
0.001079389436862442
6.531067377739402e-17
0.001079389436862446
-1.140045331433752e-17
0.00107938943686243
5.533654128124622e-17
0.001079389436862457
-1.378272227124731e-16
0.00107938943686245
1.592887762593258e-17
0.001079389436862487
-1.501004341565396e-16
0.001079389436862511
-5.493300880500015e-17
0.001079389436862582
-2.526576826584969e-16
0.001079389436862604
-1.079385883203554e-16
0.001079389436862665
-2.616310122872495e-16
0.001079389436862677
-5.659140848472271e-17
0.001079389436862721
-1.36881180276417e-16
0.001079389436862725
-7.470825110567144e-17
0.001079389436862751
-7.057104723182394e-17
0.001079389436862733
-4.200587802013319e-18
0.001079389436862887
-5.067101757050641e-16
0.001079389436863168
-1.193716577270629e-15
0.001079389436863934
-2.664927467671299e-15
-7.43826183196239e-16
0.001404460524563586
9.204149887256831e-15
0.001404460524562487
4.327918653276819e-15
0.001404460524562718
-6.989894922046339e-16
0.001404460524562943
-7.043219834865384e-16
0.001404460524563104
-6.123639622637936e-16
0.001404460524563257
-6.309414149409285e-16
0.001404460524563401
-6.105029917595151e-16
0.001404460524563531
-5.111981842129804e-16
0.001404460524563675
-5.952460883651367e-16
0.001404460524563791
-4.964206106950265e-16
0.001404460524563909
-5.09193313049274e-16
0.001404460524563967
-3.705576003741439e-16
0.00140446052456403
-3.853567106740506e-16
0.001404460524564114
-3.53405989163831e-16
0.00140446052456419
-3.879471861925858e-16
0.001404460524564226
-2.265030860546501e-16
0.001404460524564294
-2.623359057319778e-16
0.001404460524564329
-2.009428473653837e-16
0.00140446052456437
-2.453979568048749e-16
0.001404460524564392
-1.056520089702005e-16
0.001404460524564407
-1.02933921756965e-16
0.001404460524564397
-4.201586357227543e-18
0.001404460524564432
-1.460647608140002e-16
0.001404460524564444
4.779018547648612e-18
0.001404460524564468
-1.056253714138393e-16
0.00140446052456446
5.90814064061647e-17
0.00140446052456445
1.33877970289464e-17
0.001404460524564398
1.389104782506436e-16
0.001404460524564358
9.796197128788895e-17
0.001404460524564291
2.369824445222262e-16
0.001404460524564266
1.143297750259984e-16
0.001404460524564242
1.547432318199096e-16
0.001404460524564217
6.312845642201654e-17
0.001404460524564171
1.490353652315484e-16
0.001404460524564151
5.311666182249378e-17
0.0014044605245641
2.195115570959678e-16
0.001404460524564054
1.316453311110114e-16
0.001404460524563977
2.894003434297799e-16
0.00140446052456393
2.13435001101721e-16
0.001404460524563875
2.619061388585321e-16
0.001404460524563848
8.763899236180241e-17
0.001404460524563816
1.365913191334969e-16
0.001404460524563804
3.547084701883024e-17
0.001404460524563738
2.689886477530093e-16
0.001404460524563677
1.837968858267594e-16
0.001404460524563635
2.119114325358241e-16
0.001404460524563634
-2.90345513150047e-17
0.001404460524563594
1.056295926280685e-16
0.0014044605245636
-1.489511343165713e-17
0.001404460524563589
6.327640517665203e-17
0.00140446052456361
-1.581187989949408e-16
0.001404460524563596
3.114144731787468e-17
0.001404460524563639
-1.945648835946583e-16
0.001404460524563682
-9.519353846244062e-17
0.001404460524563754
-3.228020554235014e-16
0.001404460524563782
-1.370533134418619e-16
0.001404460524563838
-3.171414903869516e-16
0.001404460524563857
-7.501922919711463e-17
0.001404460524563904
-1.85149144788944e-16
0.001404460524563919
-9.045639225426875e-17
0.001404460524563947
-9.934188524079046e-17
0.001404460524563927
1.488370362821137e-17
0.001404460524564099
-6.794076583384139e-16
0.001404460524564455
-1.548888645478035e-15
0.001404460524565436
-3.645588981282827e-15
-1.136650831564118e-15
0.002263663979162471
1.088258469743448e-14
0.002263663979161096
5.704733764924278e-15
0.002263663979161098
-6.994975116225107e-16
0.002263663979161226
-8.305309137805367e-16
0.002263663979161357
-7.419522313261373e-16
0.002263663979161523
-7.99493909620709e-16
0.00226366397916167
-7.603742854014231e-16
0.002263663979161813
-6.561773226459223e-16
0.002263663979161982
-7.673822246580519e-16
0.002263663979162149
-6.65011463206376e-16
0.002263663979162284
-6.450381510087965e-16
0.00226366397916232
-4.043129847838146e-16
0.002263663979162381
-4.454924094524585e-16
0.002263663979162478
-4.473306391064676e-16
0.002263663979162558
-4.661333268120562e-16
0.002263663979162583
-2.463769579029808e-16
0.002263663979162681
-3.57283356321159e-16
0.00226366397916272
-2.410715081125682e-16
0.002263663979162737
-2.616798319368674e-16
0.002263663979162758
-1.297977997464829e-16
0.002263663979162782
-1.260589822384512e-16
0.002263663979162762
1.478344788731921e-17
0.002263663979162799
-1.865657409180492e-16
0.002263663979162823
-1.65033151926702e-17
0.002263663979162861
-1.4197718150882e-16
0.002263663979162849
7.282139430498574e-17
0.002263663979162828
3.742867898724573e-17
0.002263663979162747
2.160711815164785e-16
0.002263663979162685
1.571735586139232e-16
0.002263663979162574
3.45884854814711e-16
0.002263663979162522
1.618250887931368e-16
0.00226366397916247
2.081750633961482e-16
0.002263663979162438
9.612864564247684e-17
0.002263663979162363
2.223995311362241e-16
0.002263663979162332
8.152365598537759e-17
0.002263663979162258
2.928757277534714e-16
0.00226366397916219
1.975908976235985e-16
0.002263663979162079
4.001232854938261e-16
0.002263663979162009
2.809281233034623e-16
0.002263663979161924
3.516937773703571e-16
0.002263663979161857
1.576254882168295e-16
0.002263663979161802
1.921188107137931e-16
0.002263663979161779
5.817018536057559e-17
0.002263663979161691
3.562098510210105e-16
0.002263663979161573
3.00462584702256e-16
0.002263663979161523
2.651389130245684e-16
0.002263663979161468
2.335590621641681e-17
0.002263663979161396
1.790242706971686e-16
0.002263663979161418
-3.361575615950632e-17
0.002263663979161416
6.412971569741491e-17
0.002263663979161432
-1.734052906149444e-16
0.002263663979161408
5.377087317397471e-17
0.002263663979161452
-2.398806858780664e-16
0.002263663979161555
-1.980902098602029e-16
0.002263663979161633
-4.002591457489023e-16
0.002263663979161673
-1.772518405683422e-16
0.002263663979161707
-3.47901326512844e-16
0.002263663979161743
-1.073517579854839e-16
0.002263663979161792
-2.333167712999612e-16
0.002263663979161854
-1.553225852033874e-16
0.002263663979161874
-1.22778793012314e-16
0.00226366397916187
1.68486681974853e-17
0.002263663979161988
-8.001094181144447e-16
0.002263663979162412
-1.974209083407843e-15
0.002263663979163368
-4.601136241366302e-15
-1.915676748128034e-15
0.003625481916228163
9.914344859053779e-15
0.003625481916228274
5.595534772581497e-15
0.003625481916228181
-6.062175139501725e-16
0.003625481916228114
-7.631939085486499e-16
0.003625481916228134
-7.610156521216689e-16
0.003625481916228203
-8.697783433849101e-16
0.003625481916228224
-7.844745521430734e-16
0.003625481916228288
-7.227292891707562e-16
0.00362548191622839
-8.725696144033648e-16
0.00362548191622848
-7.576494849798993e-16
0.003625481916228553
-7.192956704911968e-16
0.003625481916228567
-4.158339018263937e-16
0.003625481916228634
-5.10121935764687e-16
0.003625481916228647
-4.583803483186513e-16
0.003625481916228739
-5.560408781898669e-16
0.003625481916228779
-2.824131672323788e-16
0.003625481916228837
-4.147575284115289e-16
0.003625481916228873
-2.777521486816948e-16
0.003625481916228806
-1.92158164287483e-16
0.003625481916228762
-8.824184328691907e-17
0.003625481916228763
-1.276558851769921e-16
0.00362548191622874
3.864471997655541e-17
0.00362548191622881
-2.582935332743672e-16
0.003625481916228839
-4.306199820586316e-17
0.003625481916228833
-1.350458033123661e-16
0.003625481916228755
1.494341749649062e-16
0.003625481916228719
7.52596506511974e-17
0.003625481916228641
2.908814009023396e-16
0.003625481916228545
2.523842207210464e-16
0.003625481916228343
5.464981524834125e-16
0.003625481916228215
2.873896278140414e-16
0.003625481916228087
3.368340665647151e-16
0.003625481916228064
1.191957499157798e-16
0.00362548191622797
3.155160081902898e-16
0.003625481916227888
1.605552414508158e-16
0.003625481916227784
3.968822172899523e-16
0.00362548191622767
3.096593130597738e-16
0.003625481916227561
5.091254922665359e-16
0.003625481916227436
4.038335226826574e-16
0.003625481916227297
4.942742545271349e-16
0.00362548191622717
2.859452710700629e-16
0.003625481916227057
3.046092295577648e-16
0.003625481916226924
1.911216125001588e-16
0.003625481916226823
4.557563574861208e-16
0.003625481916226717
4.065961076601718e-16
0.003625481916226588
3.966260662978516e-16
0.003625481916226435
1.74083381369351e-16
0.003625481916226416
1.98203485129293e-16
0.003625481916226449
-6.376293383341068e-17
0.003625481916226436
7.439714788219317e-17
0.003625481916226407
-1.423892597518649e-16
0.003625481916226371
8.985555573257296e-17
0.003625481916226355
-2.257806974430362e-16
0.003625481916226509
-3.506152207712749e-16
0.003625481916226541
-4.308913118199643e-16
0.003625481916226614
-2.508540292891161e-16
0.003625481916226608
-3.382567428464248e-16
0.003625481916226664
-1.614675883291866e-16
0.003625481916226623
-1.920706698844738e-16
0.003625481916226738
-2.734183666065707e-16
0.00362548191622672
-1.063839812873804e-16
0.003625481916226856
-1.204390570317854e-16
0.003625481916226869
-8.142986616241341e-16
0.003625481916227084
-2.1895482816255e-15
0.003625481916226935
-4.452469141616412e-15
-2.172119626673401e-15
0.00489377890393032
6.70399082747816e-15
0.004893778903932347
3.57179395606631e-15
0.004893778903932638
-8.978757846396033e-16
0.004893778903932822
-9.47634265897601e-16
0.004893778903932934
-8.711268092941214e-16
0.004893778903932939
-8.755417448347859e-16
0.004893778903932926
-7.751421724434259e-16
0.004893778903932949
-7.488724925257198e-16
0.004893778903933008
-9.365037182461363e-16
0.004893778903933004
-7.589172237325759e-16
0.004893778903932976
-6.941959650742035e-16
0.004893778903932986
-4.23758923258784e-16
0.004893778903933104
-6.260134370513292e-16
0.004893778903933041
-3.930415596640131e-16
0.004893778903932989
-5.026513361684519e-16
0.004893778903932982
-2.699063396805992e-16
0.004893778903932994
-4.260443371531951e-16
0.004893778903932924
-2.067942226796842e-16
0.004893778903932809
-7.441825777356525e-17
0.004893778903932757
-3.865771859151654e-17
0.004893778903932734
-1.052548891261695e-16
0.004893778903932735
3.87496605914037e-17
0.00489377890393276
-2.842275455127842e-16
0.004893778903932707
1.228042874946427e-17
0.004893778903932654
-8.12115037162966e-17
0.004893778903932502
3.006318185574869e-16
0.004893778903932408
1.692908308364046e-16
0.004893778903932314
3.810040689616518e-16
0.004893778903932167
3.981682716120497e-16
0.004893778903932006
7.066614176508701e-16
0.00489377890393177
5.216188357197269e-16
0.004893778903931478
6.300766763865047e-16
0.00489377890393137
2.278764804337579e-16
0.004893778903931288
3.950120249304356e-16
0.004893778903931172
2.724796201615561e-16
0.004893778903930976
5.928569405163787e-16
0.00489377890393084
4.435676424737689e-16
0.004893778903930726
6.235492912489502e-16
0.004893778903930548
5.802826251036087e-16
0.004893778903930416
6.293430568136428e-16
0.004893778903930199
5.047376158151721e-16
0.004893778903930007
4.962570855256295e-16
0.004893778903929826
3.71594267529956e-16
0.004893778903929684
5.943846946785106e-16
0.004893778903929568
5.221564951330113e-16
0.004893778903929399
5.689465088215494e-16
0.004893778903929232
3.404951904010074e-16
0.004893778903929203
2.294803783921659e-16
0.004893778903929092
4.813282912463576e-17
0.004893778903929066
9.766598302533295e-17
0.00489377890392901
-8.472709912824536e-17
0.00489377890392903
7.002373621868531e-17
0.004893778903928934
-1.300147270876999e-16
0.00489377890392891
-3.24624044319764e-16
0.004893778903928842
-3.613915880173156e-16
0.004893778903929007
-4.178951452585775e-16
0.004893778903928976
-3.039556207345456e-16
0.004893778903929129
-3.133433374339072e-16
0.004893778903928936
-1.594171053424471e-19
0.004893778903928933
-2.715135535870359e-16
0.004893778903928799
2.617488225410636e-17
0.004893778903929003
-3.253921081614367e-16
0.004893778903929004
-8.152819616644403e-16
0.004893778903928792
-1.977404453728622e-15
0.004893778903927616
-3.276730679381575e-15
-1.663737994112811e-15
0.005609563491646384
3.080978024829801e-15
0.005609563491648985
9.737017929428885e-16
0.005609563491649473
-1.386769210861429e-15
0.005609563491649821
-1.295935465234534e-15
0.005609563491650104
-1.152926090150734e-15
0.005609563491650207
-9.803869821778731e-16
0.005609563491650323
-8.930935175389741e-16
0.005609563491650346
-7.757937167567558e-16
0.005609563491650382
-9.784601404375448e-16
0.005609563491650375
-7.578358457167671e-16
0.005609563491650519
-8.404677032473136e-16
0.005609563491650631
-5.325738283175252e-16
0.005609563491650644
-6.363687774101743e-16
0.005609563491650607
-3.552629644722446e-16
0.005609563491650565
-4.597550057295618e-16
0.005609563491650518
-2.17845244800899e-16
0.005609563491650431
-3.38668918127927e-16
0.005609563491650269
-4.275945060888355e-17
0.005609563491650225
-2.573705284405707e-17
0.005609563491650247
-6.2451951091677e-17
0.005609563491650236
-9.491522450533983e-17
0.005609563491650187
8.894983371405279e-17
0.005609563491650144
-2.420703702207437e-16
0.005609563491649931
2.272759812632947e-16
0.005609563491649682
1.691770957436026e-16
0.005609563491649565
4.161473663052469e-16
0.00560956349164945
2.83538944342155e-16
0.005609563491649282
5.458291532029842e-16
0.005609563491649023
6.558502542078266e-16
0.005609563491648883
8.477856268471882e-16
0.005609563491648701
7.015576454174942e-16
0.005609563491648436
8.961835912611683e-16
0.005609563491648249
4.15951333594998e-16
0.005609563491648051
5.897581360004174e-16
0.005609563491647862
4.57141155464005e-16
0.005609563491647655
8.005973643256897e-16
0.005609563491647494
6.042568856797762e-16
0.005609563491647276
8.420080317300204e-16
0.00560956349164719
6.641068380377852e-16
0.005609563491647089
7.328294254832314e-16
0.005609563491646901
6.938849333936247e-16
0.005609563491646703
6.926511096604314e-16
0.005609563491646423
6.500358916384433e-16
0.005609563491646308
7.053208637770148e-16
0.005609563491646184
6.4637499124327e-16
0.005609563491646079
6.789265152875974e-16
0.005609563491646022
3.967690016074708e-16
0.005609563491645965
2.900723684857502e-16
0.005609563491645787
2.263989475937603e-16
0.00560956349164567
2.110383138224477e-16
0.00560956349164549
9.678059228679461e-17
0.005609563491645503
5.890180256133596e-17
0.00560956349164538
-8.02425405043339e-18
0.005609563491645339
-2.797264656662258e-16
0.005609563491645199
-2.20781960352692e-16
0.005609563491645335
-5.568938691494975e-16
0.005609563491645332
-2.982986301475515e-16
0.005609563491645395
-3.770281560584874e-16
0.005609563491645157
2.357372192780591e-16
0.00560956349164509
-2.034153269077032e-16
0.005609563491644857
2.582433813520792e-16
0.005609563491644895
-3.621136795818421e-16
0.005609563491644787
-7.06852932250345e-16
0.005609563491644428
-1.618522182262739e-15
0.005609563491643219
-2.067518632775223e-15
-1.203817327326962e-15
0.005894582100543815
4.370966990931327e-18
0.00589458210054606
-1.268677780896881e-15
0.005894582100546619
-1.948105495007562e-15
0.005894582100546933
-1.609937901270367e-15
0.00589458210054729
-1.509362401479656e-15
0.005894582100547464
-1.154542239125966e-15
0.005894582100547711
-1.140937692202353e-15
0.005894582100547796
-8.656074893558505e-16
0.005894582100547816
-1.004185088927195e-15
0.00589458210054784
-7.871576467697424e-16
0.005894582100547894
-8.96692637183656e-16
0.005894582100547973
-6.10226392905502e-16
0.005894582100548001
-6.621180355032856e-16
0.005894582100548162
-5.163811876420845e-16
0.005894582100548298
-5.960096272376454e-16
0.00589458210054829
-2.074544690306443e-16
0.005894582100548157
-2.059108660552162e-16
0.005894582100547937
1.81904627408717e-16
0.005894582100547902
1.577583816263459e-17
0.005894582100547881
-4.181111553128238e-17
0.005894582100547798
-1.386467207008064e-17
0.005894582100547599
2.888681763823161e-16
0.005894582100547337
1.951682651171217e-17
0.00589458210054711
4.554952386323751e-16
0.005894582100546893
3.888574437106232e-16
0.005894582100546725
5.821532302534222e-16
0.005894582100546505
5.013977950235973e-16
0.005894582100546251
7.957374444015461e-16
0.005894582100546025
8.808582456178954e-16
0.005894582100545892
9.822227014668722e-16
0.005894582100545901
6.908605504907394e-16
0.005894582100545817
9.81366693367227e-16
0.005894582100545493
7.402457848090138e-16
0.005894582100545134
9.460937678642633e-16
0.005894582100544898
6.890938600809723e-16
0.005894582100544735
9.650412792086638e-16
0.005894582100544524
8.165911010835648e-16
0.005894582100544343
1.022586734630097e-15
0.005894582100544173
8.336326445205306e-16
0.005894582100544017
8.899206349550662e-16
0.005894582100544016
6.93646322271196e-16
0.005894582100543897
8.098017102611571e-16
0.005894582100543649
8.9656817297871e-16
0.005894582100543472
8.785604198444384e-16
0.005894582100543361
7.585999635143846e-16
0.005894582100543373
6.706276860134261e-16
0.005894582100543408
3.619160549255262e-16
0.005894582100543389
3.120001845312067e-16
0.00589458210054316
4.565925513798658e-16
0.00589458210054304
3.271814009432971e-16
0.005894582100542853
2.835161700619406e-16
0.005894582100542835
7.945149026416626e-17
0.00589458210054277
5.860427045695048e-17
0.005894582100542747
-2.529654018848951e-16
0.005894582100542581
-5.220081483168194e-17
0.005894582100542497
-4.760108047938046e-16
0.005894582100542331
-1.318178035927568e-16
0.005894582100542236
-2.850150325077275e-16
0.005894582100542081
3.878603412462214e-16
0.005894582100542138
-2.590205364872041e-16
0.005894582100542015
3.824135479677794e-16
0.005894582100542046
-3.909116421364742e-16
0.005894582100541846
-5.049012631491161e-16
0.005894582100541564
-1.337622139964208e-15
0.005894582100540787
-1.290023528569005e-15
-1.153489949199419e-15
0.006018694949885952
-2.498787067840344e-15
0.006018694949887621
-2.936949330688006e-15
0.00601869494988821
-2.538385852135517e-15
0.00601869494988849
-1.891112481103442e-15
0.006018694949888832
-1.850661738560323e-15
0.006018694949889096
-1.416881435051553e-15
0.006018694949889439
-1.485655470953189e-15
0.006018694949889678
-1.108427749389166e-15
0.006018694949889644
-9.755657234813932e-16
0.006018694949889646
-7.920762804140071e-16
0.00601869494988955
-8.029897469497585e-16
0.006018694949889637