/*--------------------------------*- C++ -*----------------------------------*\
| =========                 |                                                 |
| \\      /  F ield         | OpenFOAM: The Open Source CFD Toolbox           |
|  \\    /   O peration     | Version:  v1812                                 |
|   \\  /    A nd           | Web:      www.OpenFOAM.com                      |
|    \\/     M anipulation  |                                                 |
\*---------------------------------------------------------------------------*/
FoamFile
{
    version     2.0;
    format      ascii;
    class       volVectorField;
    location    "10000";
    object      U;
}
// * * * * * * * * * * * * * * * * * * * * * * * * * * * * * * * * * * * * * //

dimensions      [0 1 -1 0 0 0 0];


internalField   nonuniform List<vector> 
2838
(
(0.761902625079045 3.323818723737159e-14 -4.947885986452707e-06)
(0.7619026250773779 3.060807852797864e-14 -4.947911145706175e-06)
(0.7619026250770481 2.97668852166619e-15 -4.947924012281686e-06)
(0.7619026250775783 7.077309878129731e-16 -4.947913766893002e-06)
(0.7619026250772494 -1.835700450065211e-15 -4.94792433118438e-06)
(0.7619026250776871 -3.097957131272747e-15 -4.947912831309381e-06)
(0.7619026250773934 -3.263566674874721e-15 -4.947923696943292e-06)
(0.7619026250778708 -2.083531651165668e-15 -4.947911338180318e-06)
(0.7619026250775224 -2.235824971498949e-15 -4.947922700914521e-06)
(0.7619026250780393 -2.563102761838137e-15 -4.947909568495288e-06)
(0.7619026250776724 -2.997646661812263e-15 -4.947921569508465e-06)
(0.7619026250782081 -2.704582401913977e-15 -4.947907705573293e-06)
(0.761902625077812 -2.615002773508495e-15 -4.94792044830988e-06)
(0.7619026250783549 -1.845063905893582e-15 -4.947905856766249e-06)
(0.7619026250779339 -2.648928604552262e-15 -4.947919418280354e-06)
(0.7619026250784887 -1.673165570002424e-15 -4.947904077458543e-06)
(0.7619026250780295 -1.356787941564045e-15 -4.947918520362797e-06)
(0.761902625078599 -1.695884618389038e-15 -4.947902392409881e-06)
(0.7619026250781059 -1.459331127276164e-15 -4.947917772708935e-06)
(0.7619026250786963 -1.102616121446e-15 -4.947900809116362e-06)
(0.7619026250781367 -1.103799924035855e-15 -4.947917180905879e-06)
(0.761902625078751 -1.493617388336971e-16 -4.947899325507949e-06)
(0.7619026250781368 -1.014128465560435e-15 -4.947916743798351e-06)
(0.7619026250787728 -1.737751838243585e-16 -4.947897934285051e-06)
(0.7619026250781354 -7.478530946301789e-16 -4.947916456780057e-06)
(0.7619026250788188 7.609658493984687e-16 -4.94789662534123e-06)
(0.7619026250781366 -6.864637833830005e-16 -4.947916313661666e-06)
(0.7619026250788463 -1.914801794845808e-16 -4.947895387122019e-06)
(0.7619026250780978 4.606826451279855e-16 -4.947916307746395e-06)
(0.7619026250788232 8.581862134934216e-16 -4.947894207386824e-06)
(0.7619026250780152 1.081458365239904e-15 -4.947916432467e-06)
(0.7619026250787709 1.059642979224387e-15 -4.947893073623026e-06)
(0.7619026250779466 4.414369706208879e-16 -4.947916681771301e-06)
(0.7619026250787725 5.928393090731252e-16 -4.947891973284876e-06)
(0.7619026250778982 1.044998370854521e-16 -4.947917050369917e-06)
(0.7619026250787658 9.868871165613027e-16 -4.947890893909383e-06)
(0.7619026250778301 3.527852774883577e-16 -4.947917533916433e-06)
(0.7619026250787518 8.43579160554086e-16 -4.947889823182806e-06)
(0.7619026250777361 1.699702091780959e-15 -4.947918129125832e-06)
(0.761902625078691 1.550820674617717e-15 -4.947888748978869e-06)
(0.7619026250776385 2.842412936626487e-16 -4.947918833859603e-06)
(0.7619026250786848 7.052643855981833e-16 -4.947887659385875e-06)
(0.7619026250775988 3.871391816634392e-16 -4.947919647168275e-06)
(0.7619026250786908 1.468044476483346e-15 -4.947886542761137e-06)
(0.7619026250775135 6.001718470748696e-16 -4.94792056925896e-06)
(0.7619026250786542 1.373721798655861e-15 -4.947885387848191e-06)
(0.7619026250774183 1.26121111996478e-15 -4.947921601360626e-06)
(0.7619026250786869 -1.136784917657352e-16 -4.947884184033226e-06)
(0.761902625077395 -3.262683288400739e-16 -4.947922745353545e-06)
(0.7619026250787333 -2.707303383696144e-17 -4.947882921858839e-06)
(0.7619026250773671 -1.043559574351261e-15 -4.947924003016377e-06)
(0.7619026250787951 7.15091787536653e-18 -4.947881594076583e-06)
(0.7619026250773439 -6.934712980155048e-16 -4.947925374506395e-06)
(0.7619026250788703 -5.545125032609565e-16 -4.94788019771733e-06)
(0.7619026250773293 -1.002459834695152e-15 -4.947926855371743e-06)
(0.7619026250789995 -1.172576580783447e-15 -4.947878738199067e-06)
(0.7619026250773497 -1.685446415200998e-15 -4.94792843066667e-06)
(0.7619026250791363 -1.352122641698598e-15 -4.947877237544522e-06)
(0.7619026250773568 -1.652293853960949e-16 -4.947930063170786e-06)
(0.7619026250792342 -2.21075121005009e-15 -4.947875750522215e-06)
(0.7619026250773603 3.588609679192708e-16 -4.947931666784247e-06)
(0.7619026250792822 -1.089529665626175e-15 -4.94787439246207e-06)
(0.7619026250773545 -1.827371453064672e-15 -4.947933109388668e-06)
(0.7619026250794645 -9.121935102273317e-15 -4.947873903502942e-06)
(0.7619026250778312 -2.267540231683095e-14 -4.947936064621841e-06)
(0.7619026250802488 -8.399001290310315e-15 -4.947875281371736e-06)
(0.7862466263465689 1.110577729415852e-13 -5.106645569253441e-06)
(0.7862466263454388 6.709316704660649e-14 -5.10665596366477e-06)
(0.7862466263451464 -3.427838489305426e-15 -5.10666884985256e-06)
(0.7862466263456985 -5.071978103360669e-15 -5.106658468089363e-06)
(0.7862466263453837 -6.57163124226786e-15 -5.106668994972952e-06)
(0.7862466263458383 -7.61347948484264e-15 -5.106657166934897e-06)
(0.7862466263455484 -7.904222135938266e-15 -5.10666798533751e-06)
(0.7862466263460297 -5.722934538139533e-15 -5.106655352839811e-06)
(0.7862466263456932 -6.808309185338257e-15 -5.106666753373088e-06)
(0.7862466263462145 -6.652725427222754e-15 -5.10665341157079e-06)
(0.7862466263458511 -7.303431134855299e-15 -5.106665515896014e-06)
(0.7862466263463874 -6.158248133318538e-15 -5.106651480534619e-06)
(0.7862466263459869 -6.207610314560607e-15 -5.106664368154518e-06)
(0.7862466263465259 -4.73123527174956e-15 -5.106649622965948e-06)
(0.7862466263461063 -6.301065352307097e-15 -5.106663355496108e-06)
(0.7862466263466589 -4.114380671771513e-15 -5.106647866622366e-06)
(0.7862466263461984 -3.523390031989033e-15 -5.106662497812259e-06)
(0.7862466263467618 -3.451769051835138e-15 -5.106646220452696e-06)
(0.7862466263462624 -3.535565142790667e-15 -5.106661801406707e-06)
(0.7862466263468518 -1.795463056640211e-15 -5.106644683180723e-06)
(0.7862466263462884 -2.405927748992574e-15 -5.106661265327749e-06)
(0.7862466263469019 -3.910113443754065e-16 -5.106643247967188e-06)
(0.7862466263462887 -1.913323426066692e-15 -5.10666088487047e-06)
(0.7862466263469259 1.384762267022559e-16 -5.106641904990457e-06)
(0.7862466263462906 -1.658415060890908e-15 -5.106660653545407e-06)
(0.7862466263469674 1.276832216210884e-15 -5.106640642883212e-06)
(0.7862466263462866 -9.871425673264351e-16 -5.106660564202728e-06)
(0.7862466263469833 9.818334418368141e-16 -5.10663944953146e-06)
(0.7862466263462347 9.308418616517115e-16 -5.106660609689734e-06)
(0.7862466263469565 3.006337800267069e-15 -5.106638312525273e-06)
(0.7862466263461477 2.512606110219684e-15 -5.10666078324729e-06)
(0.7862466263469138 2.284054857700813e-15 -5.10663721939797e-06)
(0.7862466263460927 2.338534914354932e-16 -5.106661078764768e-06)
(0.786246626346911 1.756859224967548e-15 -5.106636157760444e-06)
(0.7862466263460395 4.83199347802406e-16 -5.106661490953211e-06)
(0.7862466263468987 2.651377595494575e-15 -5.106635115363855e-06)
(0.786246626345962 9.037113177384056e-16 -5.106662015485889e-06)
(0.7862466263468773 3.594417138752729e-15 -5.106634080130304e-06)
(0.7862466263458604 3.214851837333416e-15 -5.106662649100498e-06)
(0.786246626346818 3.616239692902387e-15 -5.106633040163387e-06)
(0.7862466263457707 8.552626695777802e-16 -5.106663389690986e-06)
(0.7862466263468099 1.819064133809105e-15 -5.106631983747678e-06)
(0.7862466263457265 2.917161099075751e-16 -5.106664236369704e-06)
(0.7862466263468068 4.000683368131877e-15 -5.106630899366824e-06)
(0.786246626345632 1.697553508108845e-15 -5.106665189495556e-06)
(0.7862466263467678 3.315071407992696e-15 -5.106629775744481e-06)
(0.7862466263455438 1.243996126495641e-16 -5.106666250630149e-06)
(0.7862466263468033 3.139379794670834e-16 -5.106628601963403e-06)
(0.7862466263455122 -8.425684274923594e-16 -5.106667422369369e-06)
(0.7862466263468395 6.569101480096986e-16 -5.106627367726259e-06)
(0.7862466263454803 -2.947360642084958e-15 -5.106668707942176e-06)
(0.7862466263468981 5.713878646052044e-16 -5.106626063913972e-06)
(0.7862466263454572 -2.605742763729136e-15 -5.106670110390873e-06)
(0.7862466263469758 -3.006100565912205e-16 -5.106624683689164e-06)
(0.7862466263454518 -4.226324789894227e-15 -5.106671630941983e-06)
(0.786246626347115 -2.155248793000828e-15 -5.106623224685006e-06)
(0.7862466263454749 -4.994723028513552e-15 -5.106673265859358e-06)
(0.7862466263472493 -1.603500252867067e-15 -5.106621693300522e-06)
(0.7862466263454768 -2.24829072299454e-15 -5.106675000209544e-06)
(0.786246626347346 -2.300583639998379e-15 -5.106620112956972e-06)
(0.7862466263454656 -4.956964870535899e-16 -5.106676793680191e-06)
(0.7862466263474009 -1.172604786856306e-15 -5.106618539911693e-06)
(0.7862466263454471 -7.241955122540852e-15 -5.106678588891271e-06)
(0.7862466263476139 -2.444871896760413e-14 -5.106617424311274e-06)
(0.7862466263459003 -4.472202137030001e-14 -5.106681859003014e-06)
(0.7862466263484253 -1.90804621596949e-14 -5.106619355789005e-06)
(0.8167643874774814 2.15958894571237e-13 -5.306151676079747e-06)
(0.8167643874762767 1.128934173836747e-13 -5.306164316334466e-06)
(0.8167643874760342 -8.223078105451156e-15 -5.306175906092383e-06)
(0.8167643874766146 -1.108564894484524e-14 -5.30616493629093e-06)
(0.8167643874763306 -1.311962109740025e-14 -5.306174483699844e-06)
(0.8167643874767937 -1.471761500712101e-14 -5.306162425788399e-06)
(0.8167643874765188 -1.512168849001184e-14 -5.306172560206646e-06)
(0.8167643874769985 -1.13562043829098e-14 -5.30615998601446e-06)
(0.8167643874766861 -1.329244034026724e-14 -5.306170901873744e-06)
(0.8167643874771937 -1.258863774629964e-14 -5.306157806905486e-06)
(0.8167643874768437 -1.364710853324496e-14 -5.306169533231884e-06)
(0.8167643874773644 -1.123390850470446e-14 -5.306155859777293e-06)
(0.8167643874769649 -1.134540537343518e-14 -5.306168415520452e-06)
(0.8167643874774875 -8.825634627614201e-15 -5.306154104000586e-06)
(0.816764387477084 -1.147416362106587e-14 -5.306167514906763e-06)
(0.816764387477616 -7.571361233834302e-15 -5.30615250800102e-06)
(0.8167643874771683 -6.580008008709083e-15 -5.306166806814468e-06)
(0.8167643874777113 -6.187708645925058e-15 -5.30615104795641e-06)
(0.8167643874772176 -6.589176875126586e-15 -5.306166273124816e-06)
(0.8167643874777913 -3.043260435476306e-15 -5.30614970492264e-06)
(0.81676438747724 -4.27623832644902e-15 -5.306165899737436e-06)
(0.8167643874778331 -4.898356598387384e-16 -5.306148462858617e-06)
(0.8167643874772395 -3.284928745186035e-15 -5.306165675080487e-06)
(0.816764387477862 1.491295680450838e-16 -5.306147307477694e-06)
(0.8167643874772463 -3.002510433949713e-15 -5.306165589269553e-06)
(0.8167643874779037 2.040022881748068e-15 -5.306146225583069e-06)
(0.8167643874772367 -1.19608347280186e-15 -5.306165633656004e-06)
(0.8167643874778946 2.393986001435072e-15 -5.306145204693445e-06)
(0.8167643874771708 1.612797853469397e-15 -5.306165800589056e-06)
(0.8167643874778648 5.771386103925477e-15 -5.306144232828026e-06)
(0.8167643874770852 4.482954391296132e-15 -5.306166083304684e-06)
(0.8167643874778351 4.065488936689716e-15 -5.306143298374978e-06)
(0.8167643874770387 3.636879979815491e-16 -5.306166475894959e-06)
(0.8167643874778261 3.417976257237719e-15 -5.306142390011393e-06)
(0.8167643874769835 1.227796290016756e-15 -5.306166973311964e-06)
(0.8167643874778132 5.373304799152386e-15 -5.306141496647134e-06)
(0.8167643874768961 2.052851980272126e-15 -5.306167571428805e-06)
(0.8167643874777766 6.826897029550308e-15 -5.306140607389774e-06)
(0.8167643874767944 5.856091616640269e-15 -5.306168267101121e-06)
(0.8167643874777221 6.560149869581962e-15 -5.306139711501288e-06)
(0.8167643874767117 1.603974452187357e-15 -5.306169058267166e-06)
(0.8167643874777152 3.644742297995405e-15 -5.306138798349858e-06)
(0.8167643874766616 7.065360706050894e-16 -5.3061699440557e-06)
(0.8167643874777007 7.400427163203675e-15 -5.306137857345242e-06)
(0.8167643874765652 3.574366537942273e-15 -5.306170924929049e-06)
(0.8167643874776568 5.975536310312626e-15 -5.306136877836886e-06)
(0.8167643874764895 -7.504102244068217e-17 -5.306172002843971e-06)
(0.8167643874776951 1.141479380570515e-15 -5.306135848956594e-06)
(0.8167643874764439 -1.359574124685567e-15 -5.306173181492042e-06)
(0.8167643874777168 1.44847639092337e-15 -5.306134759348237e-06)
(0.8167643874764069 -5.033973843828881e-15 -5.306174466644552e-06)
(0.816764387477769 1.003939861420009e-15 -5.306133596715765e-06)
(0.8167643874763881 -4.973833759499385e-15 -5.306175866760343e-06)
(0.816764387477848 -9.173580861044024e-16 -5.306132346959913e-06)
(0.8167643874763952 -8.222197498964431e-15 -5.306177394130653e-06)
(0.8167643874779879 -3.944945541928178e-15 -5.306130992492063e-06)
(0.8167643874764157 -9.426259042719767e-15 -5.306179067246105e-06)
(0.8167643874781146 -2.912055902430654e-15 -5.306129508727959e-06)
(0.8167643874764164 -4.384194359669343e-15 -5.306180915826267e-06)
(0.816764387478214 -3.192775265301536e-15 -5.306127856245389e-06)
(0.8167643874763864 -1.379100984429514e-15 -5.306182989153909e-06)
(0.8167643874782806 -1.138980777405822e-15 -5.306125960395946e-06)
(0.8167643874763491 -1.442968627012992e-14 -5.306185387740442e-06)
(0.8167643874785324 -4.168423765956716e-14 -5.306123989121079e-06)
(0.8167643874767468 -8.369882114411267e-14 -5.306189859442424e-06)
(0.8167643874794076 -2.886370434795392e-14 -5.306124539992215e-06)
(0.8401100063777882 3.16282199248903e-13 -5.459062509723524e-06)
(0.8401100063765342 1.479388936586816e-13 -5.459076743183706e-06)
(0.8401100063763645 -1.945744200235591e-14 -5.45908559328643e-06)
(0.8401100063769738 -1.986481468090626e-14 -5.459073768901687e-06)
(0.8401100063767203 -2.068883533539669e-14 -5.459082028206632e-06)
(0.8401100063771718 -2.175658990366084e-14 -5.459070131780178e-06)
(0.84011000637691 -2.125046105330458e-14 -5.459079485662791e-06)
(0.8401100063773712 -1.665168857447155e-14 -5.459067412572102e-06)
(0.8401100063770789 -1.890038233745652e-14 -5.45907770136544e-06)
(0.8401100063775629 -1.733399417342972e-14 -5.459065265224869e-06)
(0.8401100063772335 -1.873286608277504e-14 -5.459076409804031e-06)
(0.8401100063777308 -1.502470035727514e-14 -5.459063488842593e-06)
(0.840110006377335 -1.508176270190574e-14 -5.459075460800454e-06)
(0.8401100063778307 -1.207824963870038e-14 -5.45906196696459e-06)
(0.8401100063774496 -1.551410271307239e-14 -5.45907476684649e-06)
(0.8401100063779464 -9.858014955920658e-15 -5.459060629785966e-06)
(0.8401100063775158 -8.623707064528071e-15 -5.459074275493336e-06)
(0.8401100063780397 -7.862110655499444e-15 -5.459059433616702e-06)
(0.8401100063775607 -8.815472380212245e-15 -5.459073954020394e-06)
(0.8401100063781138 -3.900357001664638e-15 -5.459058349432257e-06)
(0.8401100063775816 -5.481373563153759e-15 -5.459073780911735e-06)
(0.8401100063781433 -5.872377654563543e-16 -5.459057356479209e-06)
(0.8401100063775754 -4.498542696953773e-15 -5.459073741111053e-06)
(0.8401100063781719 1.887385862945105e-17 -5.459056438743361e-06)
(0.8401100063775856 -4.018666823384994e-15 -5.459073823400381e-06)
(0.8401100063782114 2.675947445229563e-15 -5.459055582938881e-06)
(0.8401100063775828 -6.82206468494117e-16 -5.459074018918974e-06)
(0.8401100063781993 4.093916744771374e-15 -5.459054777390162e-06)
(0.8401100063775127 2.155846439313937e-15 -5.459074320357e-06)
(0.8401100063781655 8.346091591675565e-15 -5.459054011384301e-06)
(0.8401100063774215 5.494411371382276e-15 -5.459074721504946e-06)
(0.840110006378138 4.940333351913284e-15 -5.459053274800348e-06)
(0.8401100063773789 8.660685146865301e-16 -5.45907521703053e-06)
(0.8401100063781238 4.701684578647791e-15 -5.459052557897198e-06)
(0.8401100063773216 2.14620459799516e-15 -5.459075802373166e-06)
(0.8401100063781108 8.227745060055331e-15 -5.459051851189363e-06)
(0.8401100063772391 3.456856389953285e-15 -5.459076473747831e-06)
(0.8401100063780681 9.782835623445389e-15 -5.459051145370959e-06)
(0.840110006377131 8.075514260901231e-15 -5.459077228178465e-06)
(0.840110006378017 8.676916202509137e-15 -5.459050431258869e-06)
(0.8401100063770544 2.111383303020736e-15 -5.459078063603158e-06)
(0.8401100063780034 5.333306214111504e-15 -5.45904969971822e-06)
(0.8401100063770083 1.378137459917506e-15 -5.459078979011395e-06)
(0.8401100063779895 1.035465954767763e-14 -5.459048941562851e-06)
(0.8401100063769134 5.171337356346252e-15 -5.459079974652119e-06)
(0.8401100063779364 7.587656122996105e-15 -5.459048147380043e-06)
(0.8401100063768391 -9.804722817752352e-17 -5.459081052335456e-06)
(0.840110006377971 2.74475620864555e-15 -5.459047307212564e-06)
(0.8401100063767886 -1.447494335395911e-15 -5.459082215906536e-06)
(0.8401100063779883 2.021564291098813e-15 -5.459046409985217e-06)
(0.8401100063767591 -6.536864370574944e-15 -5.459083472048691e-06)
(0.8401100063780321 1.308859235467162e-15 -5.459045442477097e-06)
(0.8401100063767366 -7.099712471828084e-15 -5.459084831698052e-06)
(0.840110006378106 -1.965086154673589e-15 -5.459044387370922e-06)
(0.8401100063767515 -1.165038100616229e-14 -5.459086312718357e-06)
(0.8401100063782406 -5.133650478015882e-15 -5.459043219495697e-06)
(0.8401100063767686 -1.273449279615256e-14 -5.459087945122663e-06)
(0.8401100063783504 -3.848684071949534e-15 -5.459041898358296e-06)
(0.8401100063767677 -6.245424850347689e-15 -5.459089781992157e-06)
(0.8401100063784506 -3.154280038876112e-15 -5.459040352948144e-06)
(0.8401100063767377 -2.873865663955363e-15 -5.45909192269482e-06)
(0.8401100063785244 -7.927878160014597e-16 -5.459038443720259e-06)
(0.8401100063766922 -2.227412040287249e-14 -5.45909456587562e-06)
(0.8401100063787893 -5.561196837822801e-14 -5.459036023852347e-06)
(0.8401100063770794 -1.208118824353461e-13 -5.459099066862614e-06)
(0.8401100063797856 -3.301360813355532e-14 -5.459032842087285e-06)
(0.8605660636745687 4.363542591044644e-13 -5.593194585281246e-06)
(0.8605660636731549 1.9940848212371e-13 -5.59321318824188e-06)
(0.8605660636729572 -3.340107615622423e-14 -5.59322271922239e-06)
(0.860566063673553 -3.189377629056617e-14 -5.593211682353345e-06)
(0.8605660636733036 -2.98737133313074e-14 -5.593219184765104e-06)
(0.8605660636737212 -3.017057996743026e-14 -5.593208101306382e-06)
(0.8605660636734757 -2.824957132163539e-14 -5.593216811332417e-06)
(0.8605660636739062 -2.296294411640392e-14 -5.593205698447924e-06)
(0.8605660636736343 -2.565548659011072e-14 -5.59321534889152e-06)
(0.8605660636740839 -2.274116791415587e-14 -5.593203941831452e-06)
(0.860566063673775 -2.397640280735668e-14 -5.593214406195787e-06)
(0.8605660636742307 -1.880861854378221e-14 -5.593202563295665e-06)
(0.860566063673843 -1.964349354994073e-14 -5.593213797327857e-06)
(0.860566063674306 -1.564323870249481e-14 -5.593201426803847e-06)
(0.8605660636739477 -1.957772608680986e-14 -5.593213423085228e-06)
(0.8605660636743984 -1.249825509893024e-14 -5.593200455777706e-06)
(0.8605660636739928 -1.099129973456326e-14 -5.593213226686984e-06)
(0.8605660636744903 -9.556089468798096e-15 -5.593199604395384e-06)
(0.8605660636740289 -1.144056970631071e-14 -5.593213174129315e-06)
(0.8605660636745447 -4.715935150383378e-15 -5.593198843674114e-06)
(0.8605660636740498 -6.472124095171813e-15 -5.593213244122048e-06)
(0.8605660636745696 -6.570808497860553e-16 -5.593198154054001e-06)
(0.8605660636740365 -6.045372806405738e-15 -5.593213422613656e-06)
(0.8605660636746002 -2.387938833520029e-17 -5.593197521324192e-06)
(0.8605660636740565 -5.164463190314017e-15 -5.593213699737268e-06)
(0.8605660636746342 3.025462168681741e-15 -5.593196934302632e-06)
(0.8605660636740552 1.643633978925726e-16 -5.59321406809037e-06)
(0.8605660636746203 6.287723982254621e-15 -5.593196383537386e-06)
(0.8605660636739804 2.900722504374129e-15 -5.593214521763143e-06)
(0.860566063674581 1.160743419027408e-14 -5.593195860540597e-06)
(0.8605660636738832 6.453625328365844e-15 -5.593215055787078e-06)
(0.8605660636745593 6.046399840496138e-15 -5.593195357371168e-06)
(0.8605660636738506 1.948637335976226e-15 -5.593215665859622e-06)
(0.8605660636745349 6.356608218188103e-15 -5.593194866389126e-06)
(0.8605660636737873 3.103557910835489e-15 -5.593216348196929e-06)
(0.8605660636745203 1.163417500299597e-14 -5.593194380129859e-06)
(0.8605660636737112 5.346684133324343e-15 -5.5932170995205e-06)
(0.8605660636744767 1.334753151904577e-14 -5.593193891243104e-06)
(0.8605660636736018 1.080085270235971e-14 -5.593217917080588e-06)
(0.8605660636744313 1.12621603380355e-14 -5.593193392445214e-06)
(0.8605660636735278 2.688372468155501e-15 -5.593218798769279e-06)
(0.8605660636744057 7.299708069878194e-15 -5.593192876473674e-06)
(0.8605660636734854 2.387404621024567e-15 -5.593219743248941e-06)
(0.8605660636743937 1.351173935211429e-14 -5.593192336004067e-06)
(0.8605660636733957 7.300976922236842e-15 -5.59322075018997e-06)
(0.8605660636743294 9.273010354577011e-15 -5.593191763486131e-06)
(0.8605660636733264 -1.664271979401219e-17 -5.593221820597665e-06)
(0.860566063674348 5.12063120398972e-15 -5.593191150822984e-06)
(0.8605660636732629 -1.448095829623586e-15 -5.593222957327561e-06)
(0.8605660636743708 2.471126649780175e-15 -5.593190488785136e-06)
(0.8605660636732433 -8.165112727119912e-15 -5.593224165956564e-06)
(0.8605660636743983 1.786998167724891e-15 -5.59318976593287e-06)
(0.8605660636732124 -9.41987731189185e-15 -5.593225456281151e-06)
(0.8605660636744713 -3.707202630742835e-15 -5.593188966639843e-06)
(0.860566063673242 -1.549324155085542e-14 -5.593226845020747e-06)
(0.8605660636745873 -6.327982810999358e-15 -5.593188067406006e-06)
(0.8605660636732523 -1.593300377514353e-14 -5.593228360811074e-06)
(0.8605660636746748 -4.803234266678683e-15 -5.593187029725382e-06)
(0.8605660636732524 -8.36941994884119e-15 -5.593230053612458e-06)
(0.8605660636747677 -3.29186918518707e-15 -5.59318578651766e-06)
(0.8605660636732297 -4.905938153043436e-15 -5.593232019559062e-06)
(0.8605660636748406 -3.488776996652799e-16 -5.59318423367436e-06)
(0.8605660636731854 -3.128378062113888e-14 -5.593234537557526e-06)
(0.8605660636750817 -7.216805153950144e-14 -5.593182495754598e-06)
(0.8605660636735604 -1.701006763061868e-13 -5.593239437534094e-06)
(0.8605660636760604 -4.798866373823214e-14 -5.593180086567587e-06)
(0.882945947168476 5.525429475764507e-13 -5.740199665914538e-06)
(0.8829459471673672 2.837964865920333e-13 -5.740207784070643e-06)
(0.8829459471670404 -3.488677829409175e-14 -5.740221175014052e-06)
(0.8829459471675222 -4.236404631262583e-14 -5.740214039202621e-06)
(0.8829459471672343 -4.001589837798942e-14 -5.740222060527074e-06)
(0.882945947167585 -4.078649444910067e-14 -5.740213101836728e-06)
(0.8829459471673458 -3.635848417980362e-14 -5.740221418439985e-06)
(0.8829459471677108 -3.146808407041431e-14 -5.740212079878626e-06)
(0.8829459471674544 -3.497976254413006e-14 -5.740221034380122e-06)
(0.8829459471678465 -2.995593236615504e-14 -5.740211313586756e-06)
(0.8829459471675776 -3.066597453626841e-14 -5.740220896760271e-06)
(0.8829459471679604 -2.183991942829901e-14 -5.740210724382621e-06)
(0.8829459471676007 -2.45812897038473e-14 -5.740220931091737e-06)
(0.8829459471680062 -2.011201135116704e-14 -5.740210250942291e-06)
(0.8829459471676759 -2.373297452243758e-14 -5.740221091321232e-06)
(0.8829459471680692 -1.557418255811761e-14 -5.740209856545631e-06)
(0.8829459471676968 -1.47639867637627e-14 -5.740221350494461e-06)
(0.8829459471681546 -1.152417823105601e-14 -5.740209518782671e-06)
(0.8829459471677218 -1.453416312263212e-14 -5.740221692480645e-06)
(0.8829459471681685 -5.901274943957268e-15 -5.740209223403339e-06)
(0.8829459471677292 -6.936017662119044e-15 -5.740222107366869e-06)
(0.8829459471681979 -4.717817750940917e-16 -5.7402089607983e-06)
(0.8829459471677126 -8.373003820797281e-15 -5.740222588813568e-06)
(0.882945947168214 4.683709889554519e-16 -5.740208723980878e-06)
(0.8829459471677344 -7.274538486782786e-15 -5.740223132481128e-06)
(0.88294594716825 3.112136101244028e-15 -5.740208507398943e-06)
(0.8829459471677364 2.247606979982578e-15 -5.740223735114686e-06)
(0.8829459471682286 8.934450809588984e-15 -5.740208306210444e-06)
(0.8829459471676635 4.489274268398368e-15 -5.740224393974429e-06)
(0.8829459471681903 1.638835846860038e-14 -5.740208115854785e-06)
(0.8829459471675598 8.198055597734261e-15 -5.740225106546969e-06)
(0.8829459471681558 8.526498997926224e-15 -5.740207931858092e-06)
(0.8829459471675233 3.817273203279239e-15 -5.740225870381173e-06)
(0.8829459471681324 8.962431616129798e-15 -5.740207749698756e-06)
(0.8829459471674617 4.178460567798724e-15 -5.740226683010125e-06)
(0.8829459471681159 1.515395876116873e-14 -5.740207564784145e-06)
(0.8829459471673903 8.062929320030656e-15 -5.740227541992519e-06)
(0.8829459471680748 1.860973101128079e-14 -5.740207372481513e-06)
(0.8829459471672875 1.413121029361898e-14 -5.740228444940496e-06)
(0.8829459471680358 1.494305881046714e-14 -5.740207168138461e-06)
(0.882945947167214 5.09125679514348e-15 -5.74022938964254e-06)
(0.8829459471679931 9.963150354822586e-15 -5.740206947123127e-06)
(0.8829459471671659 3.252969812733528e-15 -5.740230374149911e-06)
(0.8829459471679802 1.786894226428686e-14 -5.740206704854555e-06)
(0.8829459471670831 1.160846443249692e-14 -5.740231396975053e-06)
(0.8829459471679043 1.15780959805411e-14 -5.740206436766443e-06)
(0.8829459471670223 9.720194712030962e-16 -5.740232457299635e-06)
(0.8829459471678844 8.178714957096966e-15 -5.740206138207953e-06)
(0.8829459471669481 -5.295980156924325e-16 -5.740233555269018e-06)
(0.8829459471679217 3.222449358320259e-15 -5.740205804208784e-06)
(0.8829459471669375 -1.064822075322597e-14 -5.740234692451619e-06)
(0.8829459471679357 2.473620210652395e-15 -5.740205429041162e-06)
(0.8829459471669047 -1.168165082809772e-14 -5.740235872496414e-06)
(0.8829459471679931 -7.239587926688835e-15 -5.740205005493397e-06)
(0.8829459471669541 -1.978124611515292e-14 -5.740237102111674e-06)
(0.8829459471680867 -8.447706765251342e-15 -5.740204523763693e-06)
(0.8829459471669581 -1.899649229776796e-14 -5.740238392509412e-06)
(0.8829459471681362 -5.834885370031198e-15 -5.740203970057966e-06)
(0.8829459471669596 -1.106593377240468e-14 -5.74023975946659e-06)
(0.8829459471682195 -5.762468496957977e-15 -5.740203319292753e-06)
(0.8829459471669567 -7.266641796104399e-15 -5.740241205317616e-06)
(0.8829459471682821 6.259734479153542e-16 -5.740202533349827e-06)
(0.8829459471669289 -3.916065497548545e-14 -5.740242916756856e-06)
(0.8829459471684158 -9.17372957896534e-14 -5.740203128529841e-06)
(0.8829459471671848 -2.282809301550287e-13 -5.740251572207144e-06)
(0.8829459471688575 -9.388289983107444e-14 -5.740218429638886e-06)
(0.9085631941124778 5.613126623322119e-13 -5.909184572081515e-06)
(0.9085631941123005 3.301712907425739e-13 -5.909162920788175e-06)
(0.9085631941120532 -1.839384776863993e-14 -5.909174343992625e-06)
(0.9085631941124388 -3.735318560747857e-14 -5.909170407886568e-06)
(0.9085631941121434 -4.183642499331725e-14 -5.90917870152262e-06)
(0.9085631941124011 -4.50204171086144e-14 -5.909172909310585e-06)
(0.9085631941121545 -4.082298859049774e-14 -5.909180855388734e-06)
(0.9085631941124235 -3.729367083506999e-14 -5.909174258326531e-06)
(0.9085631941121874 -4.388883272644733e-14 -5.909182342514824e-06)
(0.908563194112476 -3.402133499554735e-14 -5.909175152487216e-06)
(0.9085631941122276 -3.376563600925832e-14 -5.909183530916512e-06)
(0.9085631941125187 -2.542295717937753e-14 -5.909175811526597e-06)
(0.9085631941122283 -2.960528002910717e-14 -5.909184565429322e-06)
(0.9085631941125546 -2.364864867062843e-14 -5.909176334820672e-06)
(0.9085631941122324 -2.973784924293867e-14 -5.909185517981133e-06)
(0.9085631941125988 -1.919112805156586e-14 -5.909176774083766e-06)
(0.9085631941122586 -1.84135212556114e-14 -5.909186427967933e-06)
(0.9085631941126361 -1.535840015467967e-14 -5.909177158260206e-06)
(0.9085631941122678 -1.491135986235808e-14 -5.90918731854922e-06)
(0.9085631941126078 -4.617651585577273e-15 -5.909177504502837e-06)
(0.908563194112235 -5.345813478090704e-15 -5.909188204166915e-06)
(0.9085631941126174 -4.79699327274768e-16 -5.909177823493169e-06)
(0.9085631941122252 -1.555957924999512e-14 -5.909189094298638e-06)
(0.9085631941126349 -3.684304196235094e-16 -5.909178122052698e-06)
(0.9085631941122427 -5.558738273263838e-15 -5.909189995323782e-06)
(0.9085631941126394 7.734046621897618e-15 -5.909178404551834e-06)
(0.9085631941122163 4.078398078152268e-15 -5.909190911503333e-06)
(0.9085631941126181 1.086519891808937e-14 -5.909178673625202e-06)
(0.9085631941121634 7.036508980040347e-15 -5.909191845513432e-06)
(0.9085631941125835 2.538634533469742e-14 -5.909178930648876e-06)
(0.9085631941120489 1.163499205509877e-14 -5.909192798798434e-06)
(0.9085631941125214 1.258898922687603e-14 -5.909179176021698e-06)
(0.9085631941119846 6.650469079066564e-15 -5.909193771766966e-06)
(0.908563194112518 1.392861520062669e-14 -5.909179409398493e-06)
(0.9085631941119324 7.17460334281501e-15 -5.909194763948412e-06)
(0.9085631941124834 1.859044085481638e-14 -5.909179629907344e-06)
(0.9085631941118655 1.237392873606608e-14 -5.909195774151017e-06)
(0.9085631941124431 2.434198861547416e-14 -5.909179836330118e-06)
(0.9085631941117931 2.01258555919639e-14 -5.909196800560735e-06)
(0.9085631941123904 2.052909835605969e-14 -5.909180027315176e-06)
(0.9085631941117178 1.081703813513377e-14 -5.909197840827787e-06)
(0.9085631941123424 1.524327655035572e-14 -5.909180201570022e-06)
(0.9085631941116492 7.036274743897489e-15 -5.909198892141439e-06)