/*--------------------------------*- C++ -*----------------------------------*\
| =========                 |                                                 |
| \\      /  F ield         | OpenFOAM: The Open Source CFD Toolbox           |
|  \\    /   O peration     | Version:  v1812                                 |
|   \\  /    A nd           | Web:      www.OpenFOAM.com                      |
|    \\/     M anipulation  |                                                 |
\*---------------------------------------------------------------------------*/
FoamFile
{
    version     2.0;
    format      ascii;
    class       volVectorField;
    location    "10000";
    object      wallShearStress;
}
// * * * * * * * * * * * * * * * * * * * * * * * * * * * * * * * * * * * * * //

dimensions      [0 2 -2 0 0 0 0];


internalField   uniform (0 0 0);

boundaryField
{
    inlet
    {
        type            cyclic;
    }
    outlet
    {
        type            cyclic;
    }
    bottomWall
    {
        type            calculated;
        value           nonuniform List<vector> 
66
(
(-0.0007989248186900076 -7.813553653886869e-17 5.188312501502991e-09)
(-0.0007989248186882584 -6.482104629070984e-17 5.188338883289001e-09)
(-0.0007989248186879126 -1.950153456978123e-18 5.188352375074131e-09)
(-0.0007989248186884687 1.231736493024737e-18 5.188341631843921e-09)
(-0.0007989248186881241 3.764724723727132e-18 5.188352709472871e-09)
(-0.000798924818688583 5.91962270798775e-18 5.188340650798641e-09)
(-0.0007989248186882751 6.588700113032117e-18 5.188352044412888e-09)
(-0.0007989248186887759 4.336132687611469e-18 5.188339085115803e-09)
(-0.0007989248186884103 4.985286162959457e-18 5.188350999985319e-09)
(-0.0007989248186889523 5.235522039339447e-18 5.188337229438651e-09)
(-0.0007989248186885678 6.052054398346475e-18 5.188349813602247e-09)
(-0.0007989248186891293 5.325506947533164e-18 5.188335275993989e-09)
(-0.0007989248186887141 5.274248710352945e-18 5.188348637922642e-09)
(-0.0007989248186892834 3.925101968398363e-18 5.188333337350146e-09)
(-0.0007989248186888419 5.176727615935572e-18 5.188347557842163e-09)
(-0.0007989248186894237 3.394175848332525e-18 5.188331471582738e-09)
(-0.0007989248186889423 3.114707924212054e-18 5.188346616293208e-09)
(-0.0007989248186895392 3.214962749395456e-18 5.188329704654587e-09)
(-0.0007989248186890222 3.113122347959822e-18 5.188345832309523e-09)
(-0.0007989248186896415 1.877961458843755e-18 5.188328044426041e-09)
(-0.0007989248186890545 2.14865593924427e-18 5.188345211749713e-09)
(-0.0007989248186896988 2.084839360148662e-19 5.188326488726476e-09)
(-0.0007989248186890545 1.657059771072709e-18 5.188344753402358e-09)
(-0.0007989248186897215 2.326651673648253e-19 5.188325029901601e-09)
(-0.0007989248186890534 1.55113909140478e-18 5.188344452437339e-09)
(-0.0007989248186897696 -1.049990912010451e-18 5.188323657353888e-09)
(-0.0007989248186890545 1.262635666037995e-18 5.188344302364573e-09)
(-0.0007989248186897985 -1.62202959632935e-19 5.18832235896742e-09)
(-0.0007989248186890139 -8.972072504330606e-19 5.188344296161869e-09)
(-0.0007989248186897745 -2.111087746277405e-18 5.18832112190681e-09)
(-0.000798924818688927 -2.089554801358274e-18 5.188344426942866e-09)
(-0.0007989248186897195 -2.237843675153195e-18 5.188319933051427e-09)
(-0.0007989248186888554 -5.989276932978826e-19 5.188344688361306e-09)
(-0.0007989248186897214 -1.362617838004591e-18 5.188318779245905e-09)
(-0.0007989248186888043 -2.194044718578046e-19 5.188345074870777e-09)
(-0.0007989248186897144 -2.130493015213013e-18 5.188317647421652e-09)
(-0.0007989248186887332 -6.484842806868921e-19 5.188345581913674e-09)
(-0.0007989248186896996 -2.218389772273822e-18 5.188316524666578e-09)
(-0.0007989248186886345 -3.044807101538692e-18 5.188346206045347e-09)
(-0.0007989248186896358 -3.245358649462341e-18 5.188315398265178e-09)
(-0.0007989248186885321 -4.667243498533789e-19 5.188346945023377e-09)
(-0.0007989248186896294 -1.424265033097173e-18 5.188314255726936e-09)
(-0.0007989248186884906 -4.735960315201775e-19 5.188347797852153e-09)
(-0.0007989248186896355 -2.995589761552206e-18 5.188313084843429e-09)
(-0.000798924818688401 -1.241506499189699e-18 5.188348764748852e-09)
(-0.0007989248186895972 -2.969545766793413e-18 5.188311873811224e-09)
(-0.0007989248186883014 -1.402731993790345e-18 5.188349847002161e-09)
(-0.0007989248186896313 -9.816071537369285e-20 5.188310611500765e-09)
(-0.0007989248186882767 9.676830574030406e-19 5.188351046583714e-09)
(-0.00079892481868968 -2.703108429577783e-19 5.188309287995095e-09)
(-0.0007989248186882476 2.141372154641084e-18 5.188352365358605e-09)
(-0.0007989248186897448 -2.667530552477441e-19 5.188307895693556e-09)
(-0.0007989248186882232 1.797543505823889e-18 5.188353803491743e-09)
(-0.000798924818689824 6.160482970843525e-19 5.188306431482743e-09)
(-0.0007989248186882078 2.826652365242582e-18 5.188355356314952e-09)
(-0.0007989248186899594 1.86465717033614e-18 5.188304901043911e-09)
(-0.0007989248186882293 3.864803775572891e-18 5.18835700815624e-09)
(-0.0007989248186901027 1.970046905126838e-18 5.188303327469912e-09)
(-0.0007989248186882368 1.309780825565458e-18 5.188358719986613e-09)
(-0.0007989248186902053 3.130707692896056e-18 5.188301768190565e-09)
(-0.0007989248186882403 2.406300510699685e-20 5.188360401522483e-09)
(-0.0007989248186902558 1.461594919381857e-18 5.188300344139881e-09)
(-0.0007989248186882344 4.564800696362779e-18 5.188361914225602e-09)
(-0.0007989248186904464 1.801208704189344e-17 5.188299831421365e-09)
(-0.0007989248186887344 4.035503989958735e-17 5.188365013058772e-09)
(-0.0007989248186912698 2.512992801065658e-17 5.188301276243235e-09)
)
;
    }
    topWall
    {
        type            calculated;
        value           nonuniform List<vector> 
66
(
(-0.0007989248464699148 -5.867923360663961e-17 5.116115020878929e-09)
(-0.0007989248464704836 2.890237710774623e-18 5.116101904381734e-09)
(-0.0007989248464709201 6.611762840982514e-18 5.11611518876172e-09)
(-0.0007989248464703367 1.60762890906908e-18 5.116109323679935e-09)
(-0.0007989248464707338 4.760758666117002e-18 5.116118122030279e-09)
(-0.0007989248464701344 1.070426139453836e-17 5.116109611305323e-09)
(-0.0007989248464704196 5.371975425286354e-18 5.116117921425845e-09)
(-0.0007989248464699896 6.127221090318713e-18 5.116108494109629e-09)
(-0.000798924846470212 1.028111795586987e-17 5.116117113773484e-09)
(-0.0007989248464696969 5.698134117910473e-18 5.116107104026085e-09)
(-0.0007989248464701174 5.615585702367396e-18 5.116116249429244e-09)
(-0.0007989248464694879 4.67101384269297e-18 5.116105729918482e-09)
(-0.0007989248464699366 6.753116594561177e-18 5.116115491231629e-09)
(-0.0007989248464693629 3.280066727806524e-18 5.116104463026035e-09)
(-0.0007989248464698092 4.185238804180712e-18 5.116114891830238e-09)
(-0.0007989248464692342 3.280156290483156e-18 5.116103328889983e-09)
(-0.0007989248464697853 1.415079667868888e-18 5.116114463446706e-09)
(-0.0007989248464692134 2.803972313309583e-18 5.11610232745532e-09)
(-0.0007989248464696889 2.111542137301801e-19 5.116114202280901e-09)
(-0.0007989248464691783 -3.105226420222416e-18 5.11610144838628e-09)
(-0.0007989248464697258 7.761472208901891e-19 5.116114098391139e-09)
(-0.0007989248464691418 1.28362699552595e-18 5.116100677500816e-09)
(-0.0007989248464697245 1.617587835339041e-18 5.116114139952612e-09)
(-0.000798924846469087 -1.487592620708003e-18 5.116099999548932e-09)
(-0.0007989248464698092 -2.054084517072074e-19 5.116114315121125e-09)
(-0.0007989248464691939 -1.120693390197094e-18 5.116099399381628e-09)
(-0.0007989248464697823 -5.56821835720709e-19 5.116114612833989e-09)
(-0.0007989248464691247 -1.061742347576971e-18 5.116098862429675e-09)
(-0.0007989248464698342 -8.080844933079437e-19 5.116115023135422e-09)
(-0.0007989248464691587 -1.367325351977717e-18 5.116098374833462e-09)
(-0.0007989248464698436 8.386122451939536e-22 5.116115537306838e-09)
(-0.0007989248464691321 -1.583785210010982e-18 5.116097923441456e-09)
(-0.0007989248464700365 -6.19520589312274e-19 5.11611614789465e-09)
(-0.000798924846469181 -1.481543157330388e-18 5.116097495754151e-09)
(-0.0007989248464700127 -1.01792704235922e-18 5.116116848730486e-09)
(-0.0007989248464691994 -2.428103782347762e-19 5.116097079844815e-09)
(-0.0007989248464700686 3.651634861160428e-19 5.116117634955596e-09)
(-0.0007989248464691099 -1.665552302253434e-18 5.116096664270325e-09)
(-0.0007989248464700604 -4.160151300985201e-19 5.116118503026636e-09)
(-0.0007989248464691273 -2.661824542380606e-18 5.116096238007319e-09)
(-0.0007989248464701902 -1.272002658349532e-18 5.116119450759032e-09)
(-0.0007989248464691357 -1.983358084801538e-18 5.116095790374894e-09)
(-0.0007989248464703036 -2.100273378098183e-18 5.116120477339433e-09)
(-0.0007989248464691979 -4.505343692488425e-18 5.116095311004525e-09)
(-0.0007989248464703683 -4.161647838050659e-19 5.116121583313587e-09)
(-0.0007989248464691847 -7.749617945512901e-19 5.116094789830406e-09)
(-0.0007989248464704077 -2.245573336654068e-18 5.116122770526285e-09)
(-0.0007989248464692462 -2.863149651132368e-18 5.116094217195103e-09)
(-0.0007989248464705303 -1.533583836362666e-18 5.116124041882922e-09)
(-0.0007989248464692738 -2.715821049162197e-18 5.116093584149207e-09)
(-0.0007989248464705934 2.326881014238468e-18 5.116125400828581e-09)
(-0.0007989248464692858 -1.86193497517486e-18 5.116092883133331e-09)
(-0.0007989248464707295 -3.230797434361561e-18 5.1161268502359e-09)
(-0.0007989248464692234 -2.677358912175423e-18 5.116092109560982e-09)
(-0.0007989248464708006 -9.229638350190559e-19 5.11612838999885e-09)
(-0.0007989248464692 -1.474857174161964e-18 5.116091265153073e-09)
(-0.0007989248464709375 1.10624793990154e-18 5.116130011954058e-09)
(-0.0007989248464692191 -1.33597374366491e-18 5.116090365437014e-09)
(-0.0007989248464709983 -2.367549664398284e-18 5.116131688834527e-09)
(-0.0007989248464691652 2.869086527841689e-18 5.116089456911705e-09)
(-0.0007989248464709908 1.83256372834709e-18 5.116133340384161e-09)
(-0.0007989248464691249 2.06543032434741e-18 5.116088613062707e-09)
(-0.0007989248464709028 6.196319308372608e-18 5.116134666465686e-09)
(-0.0007989248464688952 1.51092628703086e-17 5.116088755218971e-09)
(-0.0007989248464705578 1.734469987940229e-17 5.11614116978589e-09)
(-0.0007989248464685743 -2.605226259979119e-17 5.116111093138422e-09)
)
;
    }
    left
    {
        type            cyclic;
    }
    right
    {
        type            cyclic;
    }
}


// ************************************************************************* //
