/*--------------------------------*- C++ -*----------------------------------*\
| =========                 |                                                 |
| \\      /  F ield         | OpenFOAM: The Open Source CFD Toolbox           |
|  \\    /   O peration     | Version:  v1812                                 |
|   \\  /    A nd           | Web:      www.OpenFOAM.com                      |
|    \\/     M anipulation  |                                                 |
\*---------------------------------------------------------------------------*/
FoamFile
{
    version     2.0;
    format      ascii;
    class       volScalarField;
    location    "20000";
    object      nut;
}
// * * * * * * * * * * * * * * * * * * * * * * * * * * * * * * * * * * * * * //

dimensions      [0 2 -1 0 0 0 0];


internalField   nonuniform List<scalar> 
3770
(
0.0001458089429364114
0.0001458089429456611
0.0001458089429426743
0.0001458089429433918
0.0001458089429410668
0.0001458089429418769
0.0001458089429411132
0.0001458089429402542
0.0001458089429405326
0.0001458089429403289
0.0001458089429393835
0.0001458089429400348
0.0001458089429397408
0.0001458089429389398
0.0001458089429396398
0.0001458089429394041
0.0001458089429386063
0.0001458089429393983
0.000145808942939049
0.0001458089429384256
0.0001458089429392168
0.0001458089429390499
0.0001458089429382468
0.0001458089429390669
0.0001458089429388507
0.0001458089429382369
0.0001458089429387061
0.0001458089429386491
0.0001458089429380104
0.0001458089429389328
0.0001458089429386366
0.0001458089429382878
0.0001458089429387197
0.0001458089429388606
0.0001458089429378982
0.0001458089429389923
0.0001458089429386723
0.0001458089429386024
0.0001458089429385041
0.0001458089429391462
0.0001458089429375529
0.0001458089429392136
0.0001458089429379404
0.0001458089429389743
0.0001458089429377795
0.0001458089429398252
0.0001458089429368294
0.0001458089429402141
0.0001458089429371003
0.0001458089429402937
0.0001458089429364692
0.0001458089429411391
0.0001458089429355758
0.0001458089429415718
0.0001458089429358977
0.0001458089429416688
0.0001458089429363315
0.0001458089429414128
0.0003846042500425519
0.000384604251338433
0.0003846042513905485
0.0003846042513982375
0.0003846042512918858
0.0003846042513268457
0.0003846042513214491
0.0003846042512335122
0.0003846042512661084
0.0003846042512633672
0.0003846042511814603
0.0003846042512263838
0.000384604251225226
0.0003846042511485309
0.0003846042512036018
0.0003846042512082798
0.000384604251127972
0.0003846042511847523
0.0003846042511858041
0.0003846042511132487
0.0003846042511743835
0.0003846042511845622
0.0003846042511031608
0.00038460425116548
0.000384604251169276
0.0003846042511005433
0.0003846042511477593
0.000384604251161187
0.0003846042510862565
0.0003846042511591525
0.0003846042511603938
0.0003846042510995805
0.0003846042511472841
0.0003846042511745577
0.0003846042510828262
0.0003846042511597821
0.0003846042511483954
0.0003846042511169404
0.0003846042511359163
0.0003846042511920455
0.0003846042510624776
0.0003846042511753917
0.0003846042511152998
0.0003846042511456872
0.0003846042510960115
0.000384604251227788
0.0003846042510231456
0.0003846042512258957
0.0003846042510701382
0.000384604251222943
0.0003846042510259943
0.000384604251282312
0.0003846042509615319
0.0003846042512781881
0.0003846042510025112
0.0003846042512566828
0.0003846042509653753
0.0003846042512093617
0.0009942903884664134
0.0009942903903273196
0.0009942903910176144
0.0009942903910436271
0.000994290390961021
0.0009942903911347872
0.0009942903911836834
0.0009942903910063895
0.0009942903911596868
0.0009942903911595955
0.0009942903909888937
0.0009942903911311766
0.000994290391134599
0.0009942903909651928
0.0009942903911289891
0.000994290391130746
0.0009942903909534347
0.0009942903911154958
0.0009942903911123895
0.0009942903909389718
0.0009942903911100056
0.0009942903911163389
0.0009942903909354827
0.0009942903910955319
0.0009942903910987533
0.0009942903909313486
0.0009942903910840773
0.0009942903910884007
0.0009942903909239021
0.0009942903911054981
0.000994290391110485
0.0009942903909379481
0.0009942903910972153
0.000994290391114288
0.0009942903909370582
0.0009942903911014734
0.0009942903910958238
0.0009942903909564232
0.0009942903911025949
0.0009942903911317233
0.0009942903909250888
0.0009942903910852643
0.00099429039107482
0.0009942903909818163
0.0009942903910766477
0.0009942903911471298
0.0009942903909161982
0.0009942903911085695
0.0009942903910749074
0.000994290391061099
0.000994290391037737
0.0009942903911391038
0.0009942903909024691
0.0009942903911031029
0.000994290391000301
0.0009942903910741866
0.0009942903907615298
0.0009942903913025937
0.001489219567415441
0.001489219569354245
0.001489219570514082
0.001489219570584483
0.001489219570500696
0.001489219570812746
0.001489219570922468
0.00148921957066318
0.001489219570941132
0.001489219570951075
0.001489219570682902
0.001489219570944155
0.001489219570949914
0.001489219570671495
0.001489219570938895
0.001489219570944899
0.001489219570670648
0.001489219570935339
0.001489219570933379
0.00148921957065859
0.001489219570933219
0.001489219570943034
0.001489219570661535
0.001489219570929113
0.001489219570933242
0.0014892195706577
0.001489219570912709
0.001489219570914902
0.001489219570656834
0.001489219570940804
0.001489219570955221
0.001489219570675264
0.001489219570937584
0.001489219570954008
0.001489219570687583
0.001489219570956056
0.00148921957095226
0.001489219570700407
0.001489219570958369
0.001489219570975522
0.001489219570681256
0.001489219570927012
0.001489219570930437
0.001489219570718553
0.001489219570939059
0.001489219570978409
0.001489219570693368
0.001489219570943331
0.001489219570934644
0.001489219570748494
0.001489219570911817
0.001489219570963915
0.001489219570703412
0.001489219570905042
0.00148921957086866
0.001489219570875087
0.001489219570441593
0.001489219571321999
0.00195011220830158
0.001950112209964068
0.001950112211532047
0.001950112211669122
0.001950112211569585
0.001950112212050503
0.001950112212246831
0.001950112211893458
0.001950112212308328
0.00195011221234796
0.001950112211970398
0.001950112212358008
0.001950112212382288
0.00195011221198314
0.001950112212370992
0.001950112212392047
0.001950112212000719
0.001950112212383807
0.001950112212392629
0.001950112211995962
0.001950112212390314
0.001950112212413483
0.001950112212009038
0.001950112212389344
0.001950112212406208
0.001950112212007509
0.001950112212380833
0.001950112212389532
0.001950112212017351
0.001950112212419779
0.001950112212454529
0.001950112212043018
0.001950112212423765
0.001950112212447825
0.001950112212072532
0.001950112212464985
0.00195011221247319
0.001950112212079715
0.001950112212466297
0.001950112212477244
0.001950112212074789
0.001950112212449432
0.00195011221247352
0.001950112212092663
0.001950112212457302
0.001950112212467453
0.001950112212112062
0.001950112212476072
0.001950112212509209
0.001950112212105039
0.001950112212414344
0.00195011221242721
0.001950112212143848
0.001950112212398205
0.001950112212410317
0.001950112212367841
0.001950112211767063
0.001950112213000633
0.002392166385286729
0.002392166386457183
0.002392166388291849
0.002392166388523868
0.002392166388386009
0.002392166389044109
0.002392166389353688
0.002392166388898521
0.002392166389455277
0.002392166389547952
0.00239216638904774
0.00239216638956307
0.002392166389626853
0.002392166389094911
0.002392166389605724
0.002392166389660262
0.002392166389137921
0.00239216638964165
0.002392166389678889
0.00239216638914546
0.002392166389661377
0.002392166389715544
0.002392166389172108
0.002392166389664964
0.002392166389711028
0.002392166389174525
0.002392166389669172
0.002392166389701707
0.002392166389199968
0.002392166389722819
0.002392166389795806
0.002392166389235482
0.002392166389734975
0.00239216638978349
0.002392166389284831
0.00239216638979331
0.002392166389833382
0.002392166389288683
0.002392166389804949
0.00239216638982605
0.002392166389299003
0.002392166389781383
0.002392166389853497
0.002392166389301118
0.002392166389811995
0.002392166389806337
0.00239216638936342
0.002392166389813046
0.002392166389916297
0.002392166389302391
0.002392166389709944
0.002392166389718972
0.00239216638941829
0.002392166389774186
0.002392166389822026
0.002392166389715488
0.002392166388941064
0.002392166390486941
0.002824683243282637
0.002824683243816719
0.002824683245733272
0.002824683246100146
0.00282468324589869
0.00282468324672408
0.00282468324717451
0.002824683246613587
0.002824683247304186
0.002824683247478847
0.002824683246846562
0.002824683247480149
0.002824683247609999
0.002824683246937256
0.002824683247561694
0.00282468324767447
0.002824683247012328
0.002824683247628687
0.00282468324771826
0.002824683247037458
0.002824683247665601
0.002824683247774275
0.002824683247080868
0.002824683247674612
0.002824683247771442
0.00282468324708831
0.002824683247693559
0.002824683247775471
0.002824683247135648
0.002824683247768976
0.002824683247904134
0.00282468324718325
0.002824683247789043
0.002824683247885847
0.002824683247254181
0.002824683247867211
0.002824683247962157
0.00282468324725781
0.002824683247891812
0.002824683247947472
0.002824683247284079
0.002824683247858538
0.00282468324800358
0.002824683247274833
0.002824683247921152
0.002824683247921606
0.002824683247376053
0.002824683247898997
0.002824683248091879
0.002824683247268922
0.002824683247808217
0.002824683247816122
0.002824683247448244
0.002824683247883522
0.002824683247981496
0.002824683247838148
0.00282468324690689
0.002824683248692381
0.003256462320687992
0.003256462320539704
0.003256462322341616
0.003256462322839247
0.0032564623225479
0.003256462323513567
0.003256462324135479
0.003256462323467625
0.003256462324271351
0.003256462324564554
0.003256462323792975
0.003256462324523836
0.003256462324753245
0.003256462323935042
0.003256462324651373
0.003256462324855947
0.003256462324048596
0.003256462324757278
0.003256462324931611
0.003256462324096923
0.003256462324816881
0.003256462325011219
0.003256462324159796
0.003256462324832528
0.003256462325006792
0.003256462324172775
0.003256462324868682
0.003256462325034107
0.003256462324250484
0.003256462324971684
0.003256462325200621
0.003256462324311936
0.003256462324998231
0.003256462325175315
0.003256462324405407
0.003256462325098808
0.003256462325279811
0.003256462324412944
0.003256462325139007
0.003256462325262397
0.003256462324455067
0.003256462325099878
0.003256462325346968
0.003256462324441244
0.003256462325191326
0.003256462325229757
0.003256462324573505
0.003256462325154827
0.003256462325458798
0.00325646232443127
0.003256462325117207
0.003256462325138613
0.003256462324657892
0.00325646232516316
0.003256462325328282
0.003256462325155687
0.00325646232410307
0.003256462326039063
0.003699211001148367
0.003699211000412368
0.003699211002025642
0.003699211002586879
0.003699211002178657
0.003699211003242709
0.003699211004069915
0.003699211003295695
0.00369921100418313
0.003699211004639083
0.003699211003720526
0.003699211004520914
0.003699211004887424
0.003699211003921172
0.003699211004694264
0.003699211005037016
0.003699211004080004
0.003699211004846679
0.003699211005151754
0.003699211004157895
0.003699211004936537
0.003699211005260246
0.003699211004242673
0.00369921100496693
0.003699211005248436
0.003699211004261653
0.003699211005020429
0.003699211005312058
0.00369921100438013
0.003699211005156537
0.003699211005516393
0.003699211004457502
0.003699211005187827
0.003699211005481714
0.003699211004573074
0.003699211005310427
0.003699211005616824
0.003699211004590195
0.003699211005368815
0.003699211005602744
0.003699211004647431
0.003699211005334505
0.003699211005718486
0.00369921100464006
0.003699211005448247
0.003699211005563099
0.003699211004789995
0.003699211005412682
0.003699211005852181
0.003699211004627369
0.003699211005486107
0.003699211005568824
0.003699211004895916
0.00369921100544557
0.003699211005706501
0.00369921100550214
0.003699211004378601
0.003699211006370381
0.004169315661513288
0.004169315660339685
0.00416931566163932
0.004169315662232707
0.004169315661683199
0.004169315662775466
0.004169315663856116
0.004169315662977078
0.004169315663896102
0.004169315664585942
0.004169315663509032
0.004169315664328519
0.004169315664892675
0.004169315663776523
0.004169315664544955
0.004169315665096967
0.004169315663987871
0.004169315664746774
0.004169315665260642
0.004169315664102919
0.004169315664877372
0.004169315665405739
0.00416931566421124
0.004169315664933688
0.004169315665382863
0.004169315664237671
0.004169315664998298
0.004169315665498246
0.004169315664410159
0.004169315665177481
0.004169315665731328
0.004169315664503513
0.004169315665217436
0.004169315665684112
0.004169315664641789
0.004169315665358556
0.004169315665852965
0.004169315664676512
0.00416931566544913
0.004169315665850098
0.004169315664748082
0.004169315665429463
0.004169315666007059
0.004169315664761509
0.004169315665559954
0.004169315665802948
0.004169315664909053
0.00416931566553015
0.004169315666163947
0.004169315664747974
0.00416931566564438
0.004169315665910284
0.00416931566505449
0.004169315665595989
0.004169315666008368
0.00416931566576562
0.004169315664632893
0.004169315666589194
0.004687696529400365
0.004687696528082857
0.004687696528853815
0.004687696529503948
0.004687696528791834
0.004687696529763901
0.004687696531200862
0.004687696530219413
0.00468769653103841
0.004687696532120517
0.004687696530864865
0.004687696531579358
0.004687696532479759
0.004687696531208834
0.004687696531860495
0.004687696532731911
0.004687696531478856
0.004687696532103963
0.004687696532954558
0.0046876965316441
0.004687696532287324
0.004687696533149149
0.004687696531774125
0.004687696532371647
0.004687696533134583
0.004687696531817957
0.00468769653242781
0.004687696533305126
0.004687696532055306
0.004687696532676187
0.004687696533550847
0.00468769653215595
0.004687696532755792
0.004687696533492994
0.004687696532327744
0.004687696532903966
0.004687696533693878
0.0046876965323883
0.004687696533045943
0.004687696533720864
0.004687696532476662
0.004687696533054972
0.004687696533928758
0.004687696532519156
0.00468769653317871
0.004687696533667749
0.004687696532645961
0.004687696533145306
0.004687696534126194
0.004687696532519351
0.004687696533266232
0.004687696533911422
0.004687696532848897
0.004687696533290643
0.004687696533948716
0.00468769653361694
0.004687696532611466
0.00468769653443653
0.005276990553400683
0.005276990552282392
0.005276990552491933
0.005276990552943769
0.005276990552110472
0.005276990552897868
0.005276990554669706
0.005276990553590676
0.005276990554239289
0.005276990555810147
0.005276990554350789
0.005276990554885136
0.005276990556225937
0.005276990554775174
0.005276990555398334
0.005276990556465647
0.005276990555103863
0.005276990555645032
0.005276990556751415
0.005276990555352105
0.005276990555885283
0.005276990557010617
0.005276990555509747
0.005276990555970403
0.005276990557068949
0.005276990555606829
0.005276990555979374
0.005276990557279155
0.005276990555885209
0.005276990556309076
0.005276990557528832
0.005276990555993594
0.005276990556507052
0.005276990557495277
0.005276990556212591
0.005276990556665662
0.005276990557684727
0.005276990556292697
0.005276990556905872
0.005276990557789988
0.005276990556414
0.005276990556970816
0.005276990558046148
0.005276990556487119
0.005276990556955769
0.005276990557755955
0.005276990556610768
0.00527699055692668
0.005276990558312801
0.005276990556530514
0.005276990557028647
0.005276990558152852
0.005276990556863041
0.005276990557293525
0.00527699055808729
0.005276990557366672
0.005276990556853777
0.005276990558527961
0.005955923094035618
0.005955923093400253
0.005955923093188914
0.005955923093241612
0.005955923092275908
0.005955923092908652
0.005955923094819848
0.005955923093640771
0.005955923094128387
0.005955923096194186
0.005955923094540979
0.005955923094817098
0.005955923096682945
0.005955923095026012
0.0059559230955923
0.005955923096865137
0.005955923095408042
0.005955923095798694
0.005955923097198531
0.005955923095776511
0.005955923096066938
0.005955923097478029
0.005955923095883567
0.005955923096507415
0.005955923097719364
0.005955923096086356
0.005955923096406856
0.005955923097866525
0.005955923096461544
0.005955923096850088
0.005955923098147361
0.005955923096566861
0.005955923097017257
0.00595592309829121
0.005955923096882114
0.005955923097154471
0.005955923098368617
0.005955923096964438
0.005955923097468323
0.00595592309869248
0.005955923097162022
0.005955923097703117
0.005955923098938856
0.005955923097208167
0.005955923097475278
0.005955923098689379
0.005955923097346652
0.005955923097659153
0.005955923099227919
0.005955923097379758
0.005955923097781904
0.005955923099116639
0.005955923097647366
0.005955923098039985
0.005955923099157129
0.005955923097836966
0.005955923097857749
0.005955923099502151
0.006732326943296954
0.006732326943570556
0.006732326942511385
0.00673232694263189
0.006732326941222405
0.006732326941879995
0.006732326943493506
0.006732326942238155
0.006732326942977331
0.00673232694502488
0.006732326943186108
0.00673232694364087
0.006732326945598435
0.006732326943764639
0.006732326944295993
0.006732326946007192
0.006732326944205195
0.006732326944613371
0.006732326946430645
0.006732326944790951
0.006732326944951531
0.006732326946577489
0.006732326944488565
0.006732326945414312
0.006732326946967202
0.006732326944913792
0.006732326945596682
0.006732326947069255
0.006732326945500695
0.006732326945831203
0.006732326947374142
0.006732326945625383
0.006732326945625718
0.006732326947899755
0.006732326946075761
0.006732326946332812
0.006732326947848058
0.006732326946245052
0.006732326946712983
0.006732326948284744
0.006732326946563809
0.006732326946818653
0.006732326948533064
0.006732326946523837
0.006732326946469138
0.006732326948417188
0.006732326946408568
0.006732326947025065
0.006732326948764222
0.006732326946810893
0.006732326947080667
0.006732326948750166
0.006732326947034583
0.006732326946815722
0.006732326949071101
0.006732326947214733
0.006732326947357889
0.006732326949380215
0.007597887953097879
0.007597887953319821
0.007597887951237156
0.007597887952362742
0.007597887950042834
0.007597887950526652
0.0075978879520268
0.007597887950622705
0.007597887951355062
0.007597887953878215
0.007597887951042059
0.007597887952129413
0.00759788795423479
0.007597887952219803
0.007597887951825366
0.007597887955288617
0.007597887952725538
0.007597887952377536
0.007597887955870782
0.007597887953645423
0.007597887953510576
0.007597887955686869
0.007597887953511324
0.007597887953288615
0.007597887956756878
0.007597887954244224
0.007597887954348301
0.007597887956380281
0.007597887953826291
0.007597887955095751
0.007597887956820624
0.007597887954092933
0.007597887955186624
0.007597887957176838
0.007597887954617188
0.007597887955567964
0.007597887957542357
0.007597887955451855
0.007597887954976885
0.007597887958126911
0.007597887955940053
0.007597887955407956
0.007597887958542463
0.007597887955773355
0.007597887955291413
0.007597887958247392
0.007597887955426533
0.00759788795653883
0.007597887958419651
0.007597887955503396
0.007597887956601454
0.007597887958430373
0.007597887956325704
0.007597887955961175
0.007597887958960385
0.007597887956593121
0.007597887956425768
0.007597887959454923
0.008527710453379956
0.008527710453650203
0.008527710451944065
0.008527710452139091
0.008527710448588377
0.008527710450251625
0.008527710451720657
0.008527710449462742
0.008527710449063126
0.008527710453576977
0.008527710449685318
0.008527710451093597
0.008527710453733227
0.008527710451264381
0.008527710450419904
0.00852771045499409
0.008527710451926986
0.008527710450622637
0.008527710455851985
0.008527710452881568
0.008527710451696551
0.00852771045620848
0.008527710453095883
0.008527710452039178
0.008527710456980397
0.008527710453682162
0.008527710453198218
0.008527710456954414
0.008527710453781936
0.008527710454301651
0.00852771045728639
0.008527710453396144
0.008527710454684661
0.008527710457427276
0.008527710454825942
0.008527710454016207
0.008527710458398549
0.008527710455450468
0.0085277104551692
0.008527710458097386
0.008527710456006759
0.008527710455939159
0.008527710458638873
0.008527710454866312
0.008527710455772228
0.008527710458304678
0.008527710455107277
0.008527710456788054
0.008527710458798375
0.008527710455079536
0.008527710456742065
0.008527710458934209
0.008527710455599349
0.00852771045675655
0.008527710459174892
0.008527710456770671
0.008527710455443647
0.008527710460079769
0.009485473157523291
0.009485473157341039
0.009485473155981711
0.009485473156207127
0.009485473152566499
0.009485473151570008
0.009485473156318376
0.009485473152509256
0.009485473151497035
0.009485473156967851
0.009485473152128162
0.009485473154056803
0.009485473157098176
0.009485473153089686
0.009485473154505769
0.009485473157832432
0.009485473154815969
0.009485473153107047
0.009485473159367864
0.009485473156211925
0.009485473154397048
0.009485473159895843
0.009485473156214499
0.009485473154696758
0.009485473160687841
0.009485473156852922
0.009485473155025997
0.00948547316111192
0.009485473157241847
0.009485473155793558
0.00948547316153577
0.009485473157584304
0.00948547315610033
0.009485473162083162
0.009485473158818135
0.009485473157094554
0.009485473162462789
0.009485473157713668
0.009485473158903827
0.009485473162007128
0.009485473158211292
0.009485473159535318
0.009485473162529425
0.009485473158036174
0.009485473159345198
0.009485473162409984
0.00948547315950222
0.009485473159141727
0.009485473163749675
0.009485473159649588
0.009485473160089479
0.009485473163610151
0.009485473160048701
0.009485473159790616
0.009485473163942023
0.00948547316088688
0.009485473160023943
0.009485473163599373
0.0104318245717424
0.01043182457153763
0.01043182457045455
0.01043182457086888
0.01043182456682442
0.01043182456467264
0.01043182457100625
0.01043182456629385
0.01043182456492216
0.01043182457096165
0.01043182456532739
0.01043182456744993
0.0104318245711549
0.01043182456612873
0.01043182456806624
0.01043182457166368
0.01043182456699026
0.01043182456843588
0.01043182457258972
0.0104318245701482
0.0104318245694509
0.01043182457305561
0.01043182456836879
0.01043182456971621
0.0104318245739938
0.01043182457043345
0.01043182456797135
0.01043182457546131
0.01043182457097796
0.01043182456895542
0.01043182457588119
0.01043182457152441
0.01043182456922648
0.01043182457658164
0.01043182457327358
0.01043182457253849
0.01043182457601985
0.01043182457105188
0.01043182457294763
0.01043182457644164
0.01043182457160364
0.01043182457360096
0.0104318245769915
0.01043182457173903
0.01043182457332673
0.01043182457698809
0.01043182457398623
0.01043182457235556
0.01043182457879719
0.01043182457409658
0.01043182457212446
0.01043182457882493
0.01043182457449918
0.0104318245722216
0.01043182457913883
0.01043182457355141
0.01043182457478101
0.01043182457819494
0.01133224506851396
0.0113322450684434
0.01133224506773003
0.01133224506843742
0.01133224506388732
0.0113322450614483
0.01133224506837482
0.01133224506315557
0.01133224506105147
0.01133224506816226
0.01133224506331055
0.0113322450614273
0.01133224506915574
0.01133224506250163
0.01133224506501742
0.01133224506848123
0.01133224506300404
0.01133224506578141
0.01133224506935656
0.01133224506439049
0.01133224506621723
0.01133224507006917
0.01133224506445819
0.01133224506665016
0.01133224507086437
0.01133224506699575
0.01133224506467267
0.01133224507245656
0.01133224506602588
0.0113322450682659
0.01133224507212028
0.01133224506662496
0.01133224506810242
0.01133224507292899
0.01133224506778449
0.011332245069554
0.01133224507332679
0.01133224506762593
0.0113322450703029
0.01133224507369375
0.0113322450680892
0.01133224507108646
0.01133224507435915
0.01133224506828726
0.01133224507035023
0.01133224507444493
0.01133224507141591
0.01133224507199905
0.0113322450758947
0.01133224507122346
0.0113322450681709
0.01133224507659012
0.01133224507173393
0.0113322450685803
0.01133224507685514
0.01133224506999959
0.01133224507185549
0.0113322450756937
0.0121616644159385
0.0121616644160818
0.01216166441577396
0.01216166441707259
0.01216166441030446
0.01216166441165602
0.01216166441588976
0.01216166441117991
0.0121616644086561
0.01216166441651737
0.01216166441154394
0.01216166440859182
0.01216166441764359
0.01216166441031014
0.01216166441329529
0.01216166441640534
0.0121616644105704
0.01216166441403409
0.01216166441730691
0.01216166441117592
0.01216166441381491
0.01216166441813294
0.0121616644118677
0.01216166441502674
0.01216166441897222
0.01216166441468432
0.01216166441286303
0.01216166442040944
0.01216166441323197
0.01216166441586097
0.01216166442024047
0.0121616644139175
0.01216166441648635
0.01216166442105398
0.01216166441483285
0.01216166441715241
0.01216166442157868
0.01216166441549875
0.01216166441873514
0.01216166442189734
0.0121616644159018
0.01216166441969955
0.0121616644227396
0.01216166441605067
0.01216166441824183
0.01216166442296368
0.0121616644170097
0.01216166442073825
0.01216166442366989
0.01216166441911735
0.01216166441617326
0.01216166442501984
0.01216166441972834
0.01216166441673173
0.01216166442523484
0.01216166441775813
0.0121616644197445
0.01216166442420338
0.01290531536479307
0.01290531536532473
0.01290531536516907
0.01290531536775687
0.01290531536011116
0.0129053153620966
0.01290531536617472
0.01290531536114756
0.01290531535912166
0.01290531536667628
0.01290531536146515
0.01290531535860271
0.01290531536778919
0.01290531536184167
0.01290531535948054
0.01290531536776444
0.01290531536216072
0.01290531535956183
0.01290531536857869
0.01290531536079198
0.01290531536355565
0.01290531536821929
0.01290531536156633
0.01290531536546942
0.01290531536908949
0.0129053153643998
0.01290531536245814
0.01290531537044702
0.01290531536279996
0.01290531536519812
0.01290531537043271
0.0129053153635362
0.01290531536642563
0.0129053153712189
0.01290531536425271
0.01290531536680505
0.012905315371687
0.01290531536698989
0.01290531536446141
0.01290531537333867
0.01290531536762643
0.01290531536533086
0.01290531537405041
0.01290531536793979
0.01290531536522663
0.01290531537435614
0.01290531536633479
0.0129053153708901
0.0129053153737563
0.01290531536705171
0.0129053153693869
0.01290531537419756
0.01290531536757476
0.01290531537007491
0.01290531537438119
0.01290531536934285
0.01290531536666828
0.01290531537549916
0.01355695725984435
0.01355695726152255
0.01355695726093786
0.01355695726559562
0.01355695725737191
0.013556957259475
0.01355695726361436
0.01355695725615975
0.01355695725796269
0.01355695726323962
0.01355695725621442
0.01355695725825252
0.01355695726387491
0.01355695725877932
0.01355695725573711
0.01355695726519319
0.01355695725935719
0.01355695725522196
0.0135569572659098
0.01355695725967744
0.01355695725863085
0.01355695726606184
0.01355695726021248
0.01355695725787874
0.01355695726722721
0.01355695726135382
0.01355695725791395
0.01355695726783234
0.01355695726164271
0.0135569572585892
0.0135569572686452
0.01355695726240303
0.01355695726146077
0.01355695726898205
0.01355695726081545
0.01355695726365243
0.01355695726878095
0.01355695726388034
0.01355695726068235
0.0135569572705568
0.0135569572646139
0.01355695726142476
0.01355695727122494
0.01355695726532355
0.01355695726157444
0.0135569572718175
0.01355695726301335
0.01355695726795759
0.01355695727088781
0.0135569572635783
0.01355695726604341
0.01355695727131014
0.01355695726410978
0.01355695726660756
0.01355695727145496
0.01355695726659819
0.01355695726280859
0.01355695727281894
0.01411607824218464
0.01411607824417333
0.01411607824359009
0.01411607824912571
0.01411607824278727
0.01411607824185193
0.01411607824783482
0.0141160782390997
0.01411607824160117
0.01411607824676953
0.01411607823916882
0.01411607824185756
0.01411607824728035
0.01411607823983078
0.014116078243164
0.01411607824757647
0.01411607824235177
0.0141160782393171
0.01411607824890814
0.01411607824320262
0.01411607823965734
0.01411607825000122
0.01411607824364552
0.01411607823964926
0.01411607825066493
0.01411607824479394
0.01411607824101334
0.01411607825133053
0.01411607824490466
0.01411607824096702
0.01411607825196514
0.0141160782457864
0.01411607824186274
0.01411607825280979
0.01411607824388582
0.01411607824651499
0.01411607825217817
0.01411607824472605
0.01411607824737228
0.01411607825265535
0.01411607824538347
0.01411607824801906
0.01411607825336799
0.01411607824835003
0.01411607824505561
0.01411607825504279
0.01411607824597592
0.01411607825111144
0.01411607825423145
0.01411607824659169
0.01411607824896186
0.01411607825462436
0.01411607824709641
0.01411607824939358
0.01411607825473788
0.0141160782496329
0.01411607824612814
0.01411607825594257
0.01458528884054944
0.01458528884195352
0.01458528884306855
0.01458528884748318
0.01458528884130475
0.01458528883707232
0.0145852888471324
0.01458528883766349
0.01458528884082697
0.01458528884552471
0.01458528883987912
0.01458528883852664
0.01458528884672407
0.01458528883807486
0.01458528884208009
0.01458528884623818
0.01458528883850528
0.01458528884003209
0.01458528884645057
0.01458528884141378
0.01458528883804164
0.01458528884842741
0.01458528884178009
0.01458528883810344
0.01458528884892841
0.01458528884367497
0.01458528884327477
0.01458528884915518
0.01458528884072788
0.01458528884249647
0.01458528884914104
0.0145852888439678
0.01458528883937903
0.0145852888512663
0.01458528884437495
0.01458528884124865
0.01458528885174835
0.01458528884257293
0.01458528884571081
0.0145852888509752
0.01458528884320239
0.01458528884640411
0.01458528885175137
0.01458528884426816
0.01458528884646136
0.01458528885223279
0.01458528884405768
0.01458528884943949
0.01458528885266342
0.01458528884475244
0.01458528884742835
0.01458528885299422
0.0145852888451998
0.01458528884743245
0.01458528885307251
0.01458528884555368
0.01458528884809728
0.01458528885304458
0.01496845421439568
0.01496845421176714
0.01496845421808377
0.01496845422088819
0.0149684542140913
0.01496845420909978
0.01496845422041115
0.01496845421320726
0.01496845421357026
0.01496845421937262
0.01496845421353642
0.01496845420932768
0.01496845422057929
0.01496845421154385
0.01496845421594948