/*--------------------------------*- C++ -*----------------------------------*\
| =========                 |                                                 |
| \\      /  F ield         | OpenFOAM: The Open Source CFD Toolbox           |
|  \\    /   O peration     | Version:  v1812                                 |
|   \\  /    A nd           | Web:      www.OpenFOAM.com                      |
|    \\/     M anipulation  |                                                 |
\*---------------------------------------------------------------------------*/
FoamFile
{
    version     2.0;
    format      ascii;
    class       volScalarField;
    location    "20000";
    object      nuTilda_0;
}
// * * * * * * * * * * * * * * * * * * * * * * * * * * * * * * * * * * * * * //

dimensions      [0 2 -1 0 0 0 0];


internalField   nonuniform List<scalar> 
3770
(
0.0004811430159072573
0.0004811430159171394
0.0004811430159139499
0.0004811430159147159
0.0004811430159122329
0.0004811430159130974
0.0004811430159122827
0.0004811430159113672
0.0004811430159115958
0.0004811430159114633
0.0004811430159104424
0.0004811430159112074
0.0004811430159108018
0.0004811430159099546
0.0004811430159107077
0.0004811430159104576
0.0004811430159096062
0.0004811430159103181
0.0004811430159099678
0.0004811430159094089
0.0004811430159102601
0.000481143015910081
0.0004811430159092227
0.0004811430159100467
0.0004811430159098846
0.0004811430159092171
0.0004811430159095218
0.0004811430159095226
0.0004811430159089664
0.0004811430159098195
0.0004811430159095496
0.0004811430159092637
0.0004811430159097257
0.000481143015909876
0.0004811430159088483
0.0004811430159099875
0.0004811430159097921
0.000481143015909692
0.0004811430159095295
0.0004811430159101858
0.0004811430159084766
0.000481143015910167
0.0004811430159088157
0.0004811430159100036
0.0004811430159087443
0.0004811430159109276
0.0004811430159077076
0.000481143015911322
0.0004811430159079971
0.0004811430159114072
0.0004811430159073398
0.0004811430159123184
0.0004811430159063689
0.0004811430159127377
0.0004811430159067014
0.0004811430159128771
0.0004811430159071758
0.000481143015912605
0.000687625845075491
0.0006876258460735804
0.0006876258461137121
0.0006876258461195259
0.000687625846037558
0.0006876258460645089
0.0006876258460604211
0.0006876258459927873
0.0006876258460164853
0.0006876258460154495
0.0006876258459527216
0.0006876258459883899
0.0006876258459859679
0.0006876258459268698
0.0006876258459695336
0.0006876258459732383
0.0006876258459113767
0.0006876258459509646
0.0006876258459535221
0.0006876258459000171
0.0006876258459471216
0.0006876258459550088
0.0006876258458922823
0.0006876258459392152
0.0006876258459428886
0.0006876258458902245
0.0006876258459217296
0.0006876258459342332
0.0006876258458792488
0.0006876258459335725
0.0006876258459349289
0.0006876258458894763
0.0006876258459262948
0.0006876258459472257
0.0006876258458765936
0.0006876258459346985
0.0006876258459283687
0.0006876258459037348
0.0006876258459176268
0.0006876258459606481
0.0006876258458607301
0.0006876258459477267
0.0006876258459006008
0.0006876258459248897
0.0006876258458876071
0.000687625845988856
0.0006876258458306728
0.0006876258459867998
0.0006876258458670024
0.0006876258459845521
0.000687625845832936
0.0006876258460302939
0.0006876258457831576
0.000687625846026166
0.0006876258458141931
0.0006876258460104069
0.0006876258457861119
0.0006876258459740912
0.001158219660906496
0.001158219662428979
0.001158219662993665
0.001158219663014664
0.001158219662947214
0.001158219663089556
0.001158219663129503
0.001158219662984415
0.001158219663094413
0.001158219663099595
0.00115821966297011
0.001158219663101575
0.001158219663098497
0.00115821966294978
0.001158219663084229
0.001158219663085963
0.001158219662940746
0.001158219663062748
0.001158219663063543
0.001158219662928818
0.001158219663069119
0.001158219663074133
0.001158219662926132
0.001158219663042728
0.001158219663049582
0.001158219662922686
0.001158219663033195
0.001158219663041489
0.001158219662916201
0.001158219663064037
0.001158219663068428
0.00115821966292794
0.001158219663058369
0.001158219663072285
0.001158219662927565
0.001158219663042373
0.001158219663049177
0.001158219662945313
0.001158219663062667
0.001158219663085732
0.001158219662916913
0.001158219663053001
0.001158219663035495
0.001158219662960114
0.001158219663040569
0.001158219663099136
0.001158219662910411
0.001158219663067954
0.001158219663040675
0.001158219663028977
0.001158219663007896
0.001158219663092264
0.001158219662898913
0.00115821966306244
0.001158219662977467
0.00115821966303914
0.001158219662783825
0.001158219663226566
0.001585020574420271
0.001585020576168188
0.00158502057721381
0.001585020577276801
0.00158502057720177
0.001585020577483499
0.001585020577582056
0.001585020577347876
0.001585020577591993
0.001585020577603198
0.001585020577365457
0.001585020577607065
0.001585020577609764
0.001585020577354487
0.001585020577595646
0.001585020577601677
0.001585020577354142
0.001585020577582682
0.001585020577583358
0.00158502057734316
0.001585020577591379
0.001585020577599754
0.001585020577345944
0.001585020577582561
0.001585020577587142
0.001585020577342477
0.001585020577553349
0.001585020577560155
0.001585020577340585
0.001585020577596739
0.001585020577610234
0.001585020577357859
0.001585020577594555
0.001585020577609367
0.00158502057736986
0.001585020577579267
0.001585020577589225
0.001585020577382394
0.001585020577612946
0.001585020577626764
0.001585020577362211
0.00158502057761148
0.001585020577601369
0.001585020577393843
0.001585020577590336
0.001585020577628924
0.001585020577374659
0.001585020577600547
0.001585020577593151
0.001585020577424518
0.001585020577568632
0.001585020577616388
0.001585020577383261
0.001585020577571813
0.001585020577533843
0.001585020577536475
0.001585020577147213
0.00158502057794165
0.002011491389621482
0.002011491391193456
0.002011491392676369
0.002011491392805318
0.002011491392712159
0.002011491393167579
0.002011491393352508
0.002011491393017327
0.002011491393406813
0.002011491393445118
0.002011491393089842
0.002011491393458265
0.002011491393480129
0.002011491393100982
0.002011491393467694
0.002011491393488624
0.002011491393118307
0.002011491393476399
0.002011491393484716
0.002011491393113593
0.002011491393487245
0.00201149139350845
0.002011491393125931
0.002011491393485499
0.002011491393501002
0.002011491393124968
0.0020114913934614
0.002011491393471721
0.002011491393131794
0.002011491393512881
0.002011491393546752
0.00201149139315729
0.002011491393517684
0.002011491393540515
0.002011491393186832
0.002011491393547467
0.002011491393559777
0.002011491393192948
0.002011491393557452
0.002011491393564966
0.002011491393185455
0.002011491393549731
0.00201149139356855
0.002011491393202845
0.002011491393536494
0.00201149139355184
0.002011491393223446
0.00201149139356855
0.002011491393601042
0.002011491393217413
0.002011491393516178
0.002011491393519871
0.002011491393251825
0.002011491393527907
0.002011491393526908
0.002011491393458217
0.00201149139289414
0.002011491394064211
0.002434629209956974
0.002434629211089341
0.002434629212865604
0.002434629213089685
0.00243462921295737
0.002434629213595163
0.002434629213893904
0.00243462921345157
0.002434629213988605
0.002434629214078122
0.002434629213595674
0.002434629214095156
0.002434629214155865
0.002434629213640168
0.002434629214134372
0.002434629214188476
0.002434629213682896
0.002434629214168316
0.002434629214202995
0.002434629213689544
0.002434629214189412
0.002434629214241516
0.002434629213715337
0.002434629214194219
0.002434629214238888
0.002434629213719094
0.002434629214190346
0.002434629214219325
0.002434629213739347
0.00243462921424606
0.002434629214318186
0.002434629213775521
0.002434629214259744
0.00243462921430678
0.002434629213825873
0.002434629214315333
0.002434629214355877
0.002434629213828016
0.002434629214327147
0.002434629214343584
0.002434629213834238
0.002434629214305231
0.002434629214374456
0.002434629213837702
0.002434629214315524
0.002434629214317704
0.002434629213901109
0.002434629214337091
0.002434629214438485
0.00243462921384255
0.002434629214292349
0.002434629214266487
0.002434629213946791
0.002434629214305454
0.002434629214348105
0.002434629214235176
0.002434629213488856
0.002434629214988974
0.002855752023111565
0.002855752023633789
0.00285575202551223
0.002855752025872941
0.002855752025675952
0.002855752026485619
0.002855752026926215
0.002855752026373937
0.002855752027048833
0.002855752027218142
0.00285575202660156
0.002855752027223273
0.002855752027348998
0.002855752026689283
0.002855752027300602
0.002855752027412535
0.002855752026764275
0.002855752027365868
0.002855752027452302
0.002855752026787527
0.002855752027402179
0.002855752027510046
0.002855752026830337
0.002855752027414339
0.002855752027511782
0.002855752026840354
0.002855752027428738
0.002855752027503335
0.002855752026879683
0.002855752027501717
0.002855752027635472
0.002855752026928887
0.002855752027524243
0.00285575202761916
0.002855752027002281
0.002855752027603351
0.002855752027696752
0.002855752027003442
0.002855752027624881
0.0028557520276754
0.002855752027024645
0.002855752027589773
0.002855752027732756
0.002855752027016623
0.002855752027642586
0.002855752027650526
0.002855752027121453
0.002855752027633474
0.002855752027823677
0.002855752027015814
0.002855752027622142
0.002855752027585041
0.002855752027180288
0.002855752027612735
0.002855752027708994
0.00285575202756649
0.002855752026655848
0.002855752028410638
0.003280099776945875
0.003280099776798443
0.003280099778575862
0.003280099779071886
0.003280099778782665
0.003280099779736399
0.003280099780350316
0.003280099779687667
0.003280099780477794
0.00328009978076307
0.003280099780006986
0.003280099780728637
0.003280099780954115
0.003280099780146667
0.00328009978085258
0.003280099781055252
0.00328009978026033
0.003280099780955292
0.003280099781127244
0.003280099780305799
0.003280099781012704
0.003280099781208557
0.003280099780368853
0.003280099781031772
0.003280099781212027
0.003280099780385757
0.003280099781066202
0.003280099781222335
0.003280099780452006
0.003280099781167064
0.003280099781394039
0.003280099780515854
0.003280099781196667
0.003280099781372315
0.003280099780613963
0.003280099781302285
0.003280099781478268
0.003280099780618068
0.003280099781335722
0.003280099781455834
0.003280099780655312
0.003280099781291411
0.003280099781537921
0.003280099780640425
0.003280099781377826
0.00328009978142748
0.003280099780780883
0.003280099781350615
0.003280099781651621
0.003280099780637116
0.003280099781391542
0.003280099781376713
0.003280099780851491
0.003280099781347856
0.003280099781511666
0.003280099781344753
0.003280099780305272
0.00328009978222323
0.003717653431005894
0.003717653430277447
0.003717653431875116
0.003717653432436278
0.003717653432028472
0.003717653433083335
0.003717653433907486
0.003717653433135507
0.003717653434004662
0.003717653434453972
0.00371765343355225
0.00371765343433772
0.003717653434709343
0.00371765343375177
0.003717653434519237
0.00371765343485487
0.003717653433910833
0.00371765343466945
0.003717653434965386
0.003717653433984816
0.003717653434755422
0.00371765343507568
0.003717653434071944
0.003717653434776956
0.003717653435075283
0.003717653434095734
0.0037176534348328
0.003717653435118303
0.003717653434199323
0.003717653434971496
0.003717653435335367
0.003717653434278905
0.003717653435005917
0.003717653435305984
0.003717653434403054
0.003717653435141474
0.003717653435441733
0.003717653434415141
0.003717653435190527
0.003717653435423157
0.003717653434468531
0.003717653435144312
0.003717653435529023
0.00371765343445476
0.003717653435256815
0.003717653435390102
0.003717653434621583
0.003717653435225535
0.003717653435663396
0.003717653434451246
0.003717653435323421
0.003717653435389027
0.003717653434708139
0.003717653435251636
0.003717653435501222
0.003717653435306193
0.003717653434193532
0.003717653436175388
0.004183898330208027
0.004183898329045517
0.004183898330345626
0.004183898330927704
0.004183898330376037
0.004183898331459433
0.004183898332551631
0.004183898331672061
0.004183898332561505
0.004183898333247
0.004183898332192073
0.004183898332984817
0.004183898333566386
0.004183898332458261
0.004183898333230862
0.004183898333765612
0.004183898332670783
0.004183898333441394
0.004183898333922379
0.004183898332780788
0.004183898333565449
0.004183898334069234
0.004183898332894572
0.004183898333585759
0.004183898334054019
0.004183898332925424
0.004183898333668418
0.00418389833415033
0.004183898333082499
0.004183898333849322
0.00418389833441733
0.004183898333178974
0.004183898333883841
0.004183898334375495
0.004183898333330385
0.004183898334048757
0.004183898334546085
0.004183898333356954
0.004183898334121931
0.004183898334531362
0.004183898333422793
0.004183898334087912
0.004183898334667482
0.004183898333425508
0.004183898334215653
0.004183898334494269
0.004183898333603068
0.004183898334197614
0.004183898334821128
0.00418389833342429
0.004183898334323543
0.00418389833456484
0.004183898333715368
0.004183898334263372
0.004183898334648996
0.004183898334407972
0.004183898333300666
0.004183898335242755
0.004699267886161586
0.0046992678848373
0.004699267885627805
0.004699267886264377
0.004699267885545438
0.004699267886521111
0.004699267887979492
0.004699267887000276
0.004699267887808314
0.004699267888847402
0.004699267887628915
0.004699267888332509
0.004699267889225362
0.004699267887967934
0.004699267888620071
0.004699267889494944
0.00469926788824409
0.004699267888901511
0.004699267889708194
0.004699267888399457
0.004699267889076737
0.004699267889900671
0.004699267888535316
0.004699267889134266
0.004699267889855783
0.004699267888576077
0.00469926788923641
0.004699267890026644
0.004699267888811465
0.004699267889453698
0.004699267890334984
0.004699267888927869
0.004699267889479843
0.004699267890276458
0.004699267889106762
0.004699267889670312
0.004699267890486126
0.004699267889157846
0.004699267889778387
0.004699267890490889
0.004699267889228617
0.004699267889785352
0.004699267890669827
0.004699267889276871
0.004699267889903499
0.004699267890447055
0.004699267889430387
0.004699267889948207
0.004699267890838056
0.004699267889277668
0.004699267890042423
0.004699267890636908
0.004699267889593612
0.004699267890028089
0.004699267890684568
0.00469926789030871
0.004699267889360576
0.004699267891172659
0.005286141899731891
0.00528614189853165
0.005286141898713295
0.005286141899315807
0.005286141898405795
0.005286141899260507
0.00528614190099887
0.005286141899942757
0.005286141900742348
0.00528614190206958
0.005286141900673832
0.00528614190140137
0.005286141902480493
0.005286141901101544
0.005286141901585845
0.005286141902863512
0.005286141901451622
0.005286141901912232
0.005286141903159459
0.005286141901665108
0.005286141902165639
0.005286141903408936
0.005286141901827691
0.005286141902427027
0.00528614190331003
0.005286141901889094
0.005286141902518104
0.005286141903575897
0.00528614190220587
0.005286141902789877
0.005286141903869843
0.005286141902363154
0.005286141902812222
0.005286141903782354
0.005286141902550667
0.005286141902996379
0.005286141904040882
0.005286141902650186
0.005286141903087979
0.005286141904127975
0.005286141902728558
0.005286141903220925
0.005286141904362771
0.005286141902873014
0.005286141903277747
0.005286141904060154
0.005286141902934571
0.005286141903499941
0.005286141904538396
0.005286141902846316
0.005286141903406164
0.005286141904457571
0.005286141903208845
0.005286141903480266
0.00528614190445271
0.005286141903677391
0.005286141903168933
0.00528614190484713
0.005963118304951021
0.005963118304123036
0.005963118303812872
0.005963118304164128
0.005963118303085027
0.005963118303883395
0.005963118305631581
0.005963118304532197
0.005963118305365958
0.005963118306972708
0.005963118305352854
0.005963118306093638
0.005963118307395827
0.00596311830591547
0.005963118306239545
0.005963118307868891
0.005963118306335029
0.005963118306525519
0.005963118308300209
0.005963118306609583
0.005963118306845718
0.005963118308622714
0.005963118306797596
0.005963118307246361
0.005963118308527933
0.005963118306887644
0.005963118307203905
0.005963118308921267
0.005963118307306714
0.005963118307713887
0.005963118309058072
0.005963118307437453
0.005963118307836939
0.005963118308960587
0.005963118307708055
0.005963118307959243
0.00596311830928029
0.005963118307885575
0.005963118308358492
0.005963118309429581
0.005963118307990912
0.005963118308424368
0.005963118309811334
0.00596311830818104
0.005963118308680219
0.005963118309301547
0.005963118308135241
0.005963118308589313
0.005963118310047153
0.00596311830818451
0.005963118308583534
0.005963118310083428
0.005963118308540654
0.005963118308884205
0.005963118309959459
0.005963118308808637
0.005963118308536275
0.005963118310391354
0.006737964529283354
0.006737964528982056
0.006737964528199369
0.006737964528823589
0.006737964527073523
0.006737964527637037
0.00673796452940339
0.006737964528234256
0.006737964528783827
0.006737964531040261
0.006737964529040485
0.006737964529648065
0.006737964531414802
0.00673796452971048
0.006737964530151372
0.00673796453186066
0.006737964530196171
0.006737964530558728
0.006737964532427317
0.006737964530665565
0.006737964530850777
0.006737964532860391
0.006737964530773364
0.006737964530735967
0.006737964533069542
0.006737964531041477
0.006737964530885986
0.006737964533421543
0.006737964531501498
0.006737964531636455
0.006737964533453822
0.006737964531319136
0.006737964532121715
0.006737964533445225
0.006737964532006426
0.006737964532147082
0.006737964533912048
0.006737964532166482
0.006737964532567027
0.006737964533917199
0.006737964532338605
0.00673796453261661
0.006737964534360341
0.00673796453224557
0.00673796453333211
0.006737964533727546
0.00673796453245658
0.006737964532329557
0.006737964535074531
0.00673796453270063
0.006737964532939372
0.006737964534986318
0.006737964532688994
0.006737964533400384
0.006737964534574484
0.006737964532906271
0.006737964533237077
0.006737964535161718
0.007602317589918946
0.007602317591205553
0.007602317589268259
0.007602317589197939
0.007602317587327045
0.007602317587472285
0.00760231758941821
0.007602317588053197
0.007602317588683761
0.007602317591230984
0.007602317588794765
0.007602317588739025
0.007602317591973598
0.007602317589056776
0.007602317590293475
0.00760231759203575
0.007602317589589251
0.007602317590587607
0.007602317592731569
0.007602317590827578
0.007602317590856492
0.007602317593209821
0.007602317590514279
0.007602317591602486
0.007602317593565736
0.007602317591524519
0.007602317591550148
0.007602317594003136
0.007602317591745587
0.007602317591435053
0.00760231759455522
0.007602317592012438
0.00760231759176797
0.007602317594882739
0.007602317592466278
0.007602317592027761
0.007602317595241108
0.007602317592153047
0.007602317593295676
0.007602317594966945
0.007602317592564194
0.007602317593683404
0.007602317595420269
0.007602317592588662
0.007602317594006254
0.007602317594926872
0.007602317593324436
0.007602317592585326
0.007602317596371141
0.007602317593438959
0.00760231759285749
0.007602317596361876
0.007602317593265129
0.007602317594087618
0.007602317595846845
0.007602317593299389
0.007602317594126869
0.007602317596340867
0.008531228566496218
0.008531228568517783
0.008531228566178405
0.008531228566200018
0.00853122856363016
0.008531228563535933
0.008531228565761407
0.008531228562855014
0.008531228564185055
0.008531228567072039
0.00853122856454654
0.008531228563564275
0.008531228568522523
0.008531228564544895
0.00853122856631079
0.00853122856830035
0.008531228564977587
0.008531228566517658
0.008531228569135811
0.008531228565909399
0.008531228567213533
0.008531228569678367
0.00853122856624468
0.008531228568113437
0.008531228570249585
0.00853122856690793
0.008531228567964497
0.008531228570581825
0.008531228567202538
0.008531228568117532
0.008531228571023177
0.008531228568371492
0.008531228567438671
0.008531228572021285
0.008531228568140144
0.00853122856954157
0.008531228571848366
0.008531228568974114
0.008531228569253257
0.008531228572441124
0.008531228569810275
0.008531228570210202
0.008531228572706783
0.00853122856955181
0.008531228568922465
0.008531228572855742
0.008531228570312351
0.008531228569762964
0.008531228573069313
0.008531228570108879
0.008531228568991186
0.008531228573651715
0.008531228570469493
0.008531228569630017
0.00853122857359194
0.008531228569717862
0.008531228571043499
0.008531228573545688
0.0094883176324231
0.009488317632716795
0.009488317630943884
0.009488317631637065
0.009488317627007546
0.009488317628752201
0.009488317630632162
0.009488317626491848
0.009488317627979999
0.009488317631441003
0.009488317628654977
0.009488317627024944
0.009488317633188508
0.009488317629234588
0.009488317628609877
0.00948831763361385
0.00948831762878947
0.009488317630456157
0.009488317633822903
0.009488317629864936
0.009488317631730343
0.009488317634382133
0.009488317630212637
0.009488317632568875
0.009488317635127985
0.009488317630816784
0.009488317632368376
0.009488317635435043
0.009488317631090357
0.009488317632645328
0.009488317635896495
0.00948831763175181
0.009488317633390791
0.009488317636541675
0.009488317632534621
0.009488317634457868
0.009488317636925333
0.009488317633694269
0.009488317632310476
0.009488317638088864
0.009488317634383864
0.009488317632970308
0.009488317638498833
0.009488317634417626
0.009488317632654016
0.009488317638535977
0.009488317633912856
0.009488317635206371
0.009488317638376523
0.009488317633998074
0.009488317635053216
0.009488317638466982
0.009488317634437238
0.009488317635559998
0.00948831763860304
0.009488317635336646
0.009488317635354973
0.009488317639352735
0.01043417688303692
0.01043417688305595
0.01043417688151786
0.01043417688256955
0.01043417687680866
0.01043417687921287
0.0104341768812614
0.01043417687607723
0.01043417687765388
0.01043417688161025
0.01043417687839594
0.01043417687668695
0.01043417688334326
0.01043417687907255
0.01043417687679385
0.01043417688419965
0.01043417687965255
0.0104341768779285
0.01043417688486207
0.01043417688122402
0.01043417688132409
0.0104341768847148
0.01043417688095129
0.0104341768794685
0.01043417688628101
0.01043417688044975
0.01043417688226195
0.01043417688584064
0.01043417688073642
0.0104341768828235
0.01043417688641423
0.01043417688137204
0.01043417688341489
0.01043417688717498
0.01043417688420373
0.0104341768843545
0.01043417688756648
0.0104341768839597
0.01043417688160477
0.01043417688904386
0.01043417688463449
0.0104341768822353
0.0104341768894488
0.01043417688478943
0.01043417688216455
0.01043417688959629
0.01043417688379151
0.01043417688593387
0.01043417688924126
0.01043417688399691
0.0104341768857275
0.01043417688930216
0.01043417688444546
0.0104341768862113
0.01043417688951754
0.010434176885985
0.01043417688419466
0.01043417689064439
0.01133423870592395
0.01133423870592455
0.01133423870481337
0.01133423870599284
0.01133423869959145
0.01133423870269536
0.0113342387045865
0.01133423869853433
0.01133423870033758
0.01133423870460317
0.01133423869933574
0.01133423870162151
0.01133423870546721
0.0113342387017874
0.01133423869896817
0.01133423870704296
0.01133423870258227
0.01133423869995344
0.01133423870784391
0.01133423870335936
0.0113342387010754
0.01133423870856809
0.01133423870372553
0.01133423870085905
0.01133423870945068
0.011334238702721
0.01133423870461787
0.01133423870884113
0.01133423870472447
0.01133423870472262
0.01133423871008407
0.01133423870544888
0.01133423870356247
0.01133423871130229
0.01133423870666442
0.01133423870456947
0.0113342387117895
0.01133423870717645
0.0113342387042939
0.01133423871228219
0.01133423870772741
0.01133423870510286
0.01133423871279687
0.01133423870776937
0.0113342387045299
0.01133423871313052
0.01133423870802234
0.01133423870897579
0.01133423871297657
0.01133423870666306
0.01133423870893927
0.01133423871277798
0.01133423870710405
0.01133423870940253
0.01133423871300305
0.0113342387091288
0.0113342387061024
0.0113342387143241
0.01216339556274258
0.01216339556289832
0.01216339556245453
0.01216339556387306
0.01216339555847614
0.0121633955564202
0.01216339556344313
0.01216339555566366
0.01216339555761168
0.01216339556219946
0.01216339555602481
0.01216339555936734
0.01216339556292263
0.01216339555934329
0.01216339555820073
0.01216339556325588
0.01216339555999355
0.01216339555933381
0.01216339556427287
0.01216339556011766
0.01216339555705939
0.01216339556610727
0.01216339556101838
0.01216339555794535
0.01216339556684858
0.01216339555944528
0.012163395561331
0.01216339556617809
0.0121633955620857
0.01216339555916912
0.01216339556815714
0.01216339556298852
0.01216339556001886
0.01216339556908212
0.01216339556362584
0.01216339556074637
0.01216339556958622
0.01216339556491425
0.01216339556390581
0.0121633955688465
0.01216339556531187
0.01216339556523077
0.0121633955698052
0.01216339556489923
0.01216339556189647
0.01216339557073762
0.01216339556548676
0.01216339556491263
0.01216339557086798
0.01216339556383343
0.01216339556644122
0.01216339557060754
0.01216339556426039
0.01216339556693542
0.01216339557079097
0.01216339556640502
0.01216339556344927
0.01216339557194707
0.01290685284996455
0.01290685285071046
0.01290685285056012
0.01290685285348226
0.0129068528477219
0.01290685284388802
0.01290685285273284
0.01290685284428439
0.01290685284621354
0.01290685285128487
0.01290685284464495
0.01290685284861032
0.01290685285183379
0.0129068528452356
0.01290685284739105
0.01290685285199446
0.01290685284587273
0.01290685284814953
0.01290685285272425
0.01290685284836959
0.01290685284541112
0.01290685285465849
0.01290685284988315
0.01290685284934435
0.01290685285500227
0.01290685284749269
0.0129068528494919
0.0129068528548121
0.01290685285039352
0.01290685284735863
0.01290685285687429
0.01290685285138296
0.01290685284851048
0.01290685285774889
0.01290685285197716
0.01290685284864104
0.01290685285844739
0.01290685285077263
0.01290685285305214
0.01290685285748729
0.01290685285112759
0.01290685285404931
0.01290685285810246
0.01290685285142043
0.01290685285397536
0.01290685285850364
0.01290685285392377
0.01290685285326995
0.01290685285972999
0.01290685285422505
0.01290685285357803
0.01290685286026854
0.01290685285471717
0.01290685285445226
0.01290685286029611
0.01290685285302547
0.0129068528555289
0.01290685285968067
0.01355835055342464
0.01355835055735682
0.01355835055561823
0.01355835056297856
0.01355835055556153
0.01355835055123849
0.01355835056037347
0.01355835055373448
0.01355835055094131
0.01355835056007275
0.01355835055404771
0.01355835055143945
0.01355835056063447
0.01355835055214583
0.01355835055502479
0.01355835055962564
0.01355835055241246
0.01355835055507211
0.01355835056020556
0.01355835055342693
0.01355835055542286
0.01355835056093617
0.01355835055411469
0.01355835055724078
0.0135583505615973
0.01355835055425952
0.01355835055676545
0.01355835056219013
0.0135583505552894
0.0135583505582909
0.01355835056314396
0.01355835055622093
0.01355835055824295
0.01355835056402117
0.01355835055908213
0.01355835055543304
0.01355835056593106
0.01355835055738334
0.01355835056032488
0.01355835056500557
0.01355835055778381
0.01355835056107164
0.01355835056559209
0.01355835055833174
0.01355835056179856
0.01355835056594182
0.01355835056115845
0.01355835056061009
0.01355835056722573
0.01355835056179747
0.01355835055816685
0.01355835056847658
0.01355835056237081
0.01355835055872081
0.01355835056847778
0.01355835055985878
0.01355835056302999
0.01355835056702782
0.01411736338812653
0.01411736339275972
0.01411736339014436
0.0141173633996779
0.0141173633896008
0.01411736339101976
0.01411736339557681
0.01411736339021306
0.01411736338594436
0.01411736339685006
0.01411736339042489
0.01411736338671859
0.01411736339702017
0.01411736339044254
0.01411736339028403
0.01411736339658199
0.01411736338836656
0.0141173633907495
0.01411736339654819
0.0141173633889943
0.01411736339245316
0.01411736339697653
0.01411736338924779
0.0141173633927172
0.01411736339756509
0.01411736339004861
0.01411736339338517
0.01411736339832146
0.01411736339079791
0.014117363393798
0.0141173633993339
0.01411736339163852
0.01411736339439454
0.01411736339995615
0.01411736339483044
0.01411736339166202
0.01411736340188348
0.01411736339533219
0.01411736339430813
0.01411736340194865
0.01411736339594062
0.01411736339484982
0.01411736340262912
0.01411736339455633
0.01411736339855884
0.01411736340203609
0.01411736339711289
0.01411736339633789
0.01411736340343674
0.01411736339783818
0.01411736339339468
0.01411736340479053
0.01411736339838806
0.01411736339401953
0.0141173634047666
0.01411736339572325
0.01411736339910783
0.01411736340313512
0.01458649265666735
0.01458649266141356
0.01458649266043968
0.01458649266741238
0.01458649265748925
0.01458649265989897
0.01458649266434349
0.01458649265891465
0.0145864926558039
0.01458649266542464
0.01458649265687252
0.01458649265895516
0.01458649266467251
0.01458649265971574
0.01458649265638743
0.01458649266609968
0.01458649265929136
0.0145864926558637
0.01458649266650076
0.01458649265781701
0.01458649266200313
0.01458649266567752
0.01458649265759921
0.01458649266116375
0.01458649266626162
0.01458649266079905
0.01458649266207238
0.01458649266744179
0.01458649266150267
0.01458649265852147
0.01458649266916787
0.01458649265995457
0.01458649266288159
0.01458649266854415
0.01458649266097521
0.01458649266417766
0.01458649266919885
0.01458649266401701
0.01458649266033285
0.01458649267114944
0.01458649266501868
0.01458649266116194
0.01458649267193799
0.01458649266520521
0.01458649266338575
0.01458649267185763
0.01458649266582861
0.01458649266483254
0.01458649267209939
0.01458649266637358
0.01458649266193734
0.01458649267332862
0.01458649266681734
0.01458649266223478
0.01458649267342198
0.01458649266644607
0.01458649266537228
0.01458649267247488
0.01496959720928735
0.01496959721009761
0.01496959721088306
0.014969597214595
0.01496959720581813
0.01496959720866606
0.01496959721360769
0.01496959720580825
0.01496959720737181
0.0149695972138072
0.01496959720555348
0.0149695972083755
0.01496959721391767
0.01496959720962776
0.01496959720920998
0.0149695972145667
0.01496959720870904