/*--------------------------------*- C++ -*----------------------------------*\
| =========                 |                                                 |
| \\      /  F ield         | OpenFOAM: The Open Source CFD Toolbox           |
|  \\    /   O peration     | Version:  v1812                                 |
|   \\  /    A nd           | Web:      www.OpenFOAM.com                      |
|    \\/     M anipulation  |                                                 |
\*---------------------------------------------------------------------------*/
FoamFile
{
    version     2.0;
    format      ascii;
    class       volScalarField;
    location    "20000";
    object      nuTilda;
}
// * * * * * * * * * * * * * * * * * * * * * * * * * * * * * * * * * * * * * //

dimensions      [0 2 -1 0 0 0 0];


internalField   nonuniform List<scalar> 
3770
(
0.0004811430159754083
0.0004811430159852684
0.0004811430159820812
0.0004811430159828472
0.0004811430159803669
0.0004811430159812324
0.0004811430159804159
0.0004811430159794951
0.0004811430159799361
0.000481143015979541
0.0004811430159785559
0.0004811430159791057
0.0004811430159789835
0.0004811430159781115
0.0004811430159788468
0.0004811430159785919
0.0004811430159777397
0.0004811430159788646
0.0004811430159784444
0.0004811430159775558
0.0004811430159783871
0.0004811430159782107
0.0004811430159773551
0.0004811430159783383
0.000481143015977964
0.0004811430159773342
0.0004811430159782455
0.0004811430159780556
0.000481143015977111
0.0004811430159783712
0.0004811430159779581
0.0004811430159774048
0.0004811430159778638
0.0004811430159780146
0.0004811430159769877
0.000481143015978216
0.0004811430159775686
0.0004811430159775473
0.0004811430159775629
0.0004811430159783092
0.0004811430159766253
0.0004811430159785711
0.0004811430159771951
0.0004811430159781231
0.0004811430159768134
0.000481143015978999
0.0004811430159758456
0.0004811430159794575
0.0004811430159761345
0.0004811430159795421
0.0004811430159754263
0.0004811430159804266
0.0004811430159745083
0.0004811430159809778
0.0004811430159748754
0.0004811430159810066
0.0004811430159753149
0.0004811430159807304
0.0006876258485391421
0.0006876258495365125
0.0006876258495766335
0.0006876258495826942
0.0006876258495009147
0.0006876258495277887
0.0006876258495235447
0.0006876258494557381
0.0006876258494826868
0.0006876258494791552
0.0006876258494156439
0.000687625849448807
0.000687625849449939
0.0006876258493909472
0.0006876258494330043
0.00068762584943647
0.0006876258493746725
0.0006876258494238523
0.0006876258494223519
0.0006876258493633668
0.0006876258494103948
0.000687625849418166
0.0006876258493555567
0.000687625849404929
0.0006876258494068594
0.0006876258493535972
0.0006876258493963631
0.00068762584940384
0.0006876258493425645
0.000687625849401076
0.0006876258494015021
0.0006876258493528651
0.0006876258493894781
0.0006876258494105687
0.0006876258493399419
0.000687625849400713
0.0006876258493887233
0.0006876258493650524
0.0006876258493806133
0.00068762584942409
0.0006876258493245333
0.0006876258494113974
0.0006876258493662622
0.0006876258493884806
0.0006876258493489554
0.0006876258494507013
0.0006876258492939488
0.0006876258494500363
0.0006876258493299372
0.0006876258494477289
0.0006876258492960503
0.0006876258494934013
0.0006876258492466079
0.0006876258494914856
0.0006876258492788441
0.0006876258494738708
0.0006876258492495739
0.0006876258494372768
0.00115821966549332
0.001158219667014579
0.001158219667578914
0.001158219667600299
0.001158219667532713
0.001158219667674689
0.001158219667714685
0.001158219667569766
0.001158219667701632
0.001158219667699325
0.001158219667555459
0.00115821966766538
0.001158219667670673
0.001158219667536483
0.001158219667670197
0.001158219667671507
0.001158219667526623
0.0011582196676636
0.001158219667659644
0.00115821966751484
0.001158219667654499
0.001158219667659748
0.001158219667511916
0.001158219667648845
0.001158219667649687
0.001158219667508563
0.00115821966763955
0.001158219667641064
0.001158219667502643
0.001158219667651406
0.001158219667655351
0.00115821966751402
0.001158219667644165
0.001158219667658143
0.001158219667513143
0.001158219667655917
0.001158219667646447
0.001158219667528165
0.001158219667648606
0.001158219667672744
0.001158219667503723
0.001158219667632522
0.00115821966762779
0.001158219667551459
0.001158219667627764
0.001158219667684998
0.001158219667496127
0.001158219667653321
0.001158219667625692
0.001158219667614574
0.001158219667596311
0.001158219667678568
0.001158219667485017
0.001158219667649294
0.001158219667565623
0.001158219667625504
0.001158219667369708
0.001158219667811987
0.001585020580763311
0.001585020582509898
0.00158502058355475
0.001585020583618259
0.001585020583542686
0.001585020583823726
0.001585020583922636
0.00158502058368913
0.001585020583940699
0.00158502058394925
0.001585020583706933
0.001585020583941183
0.001585020583946823
0.001585020583696781
0.001585020583937655
0.001585020583942952
0.001585020583695942
0.001585020583936221
0.001585020583934013
0.0015850205836851
0.001585020583932388
0.001585020583941315
0.00158502058368773
0.001585020583929617
0.001585020583933181
0.001585020583684277
0.001585020583917454
0.001585020583918554
0.001585020583683699
0.001585020583939489
0.001585020583952386
0.001585020583700182
0.001585020583936457
0.001585020583951253
0.001585020583711117
0.00158502058395889
0.001585020583953045
0.001585020583722493
0.001585020583955245
0.001585020583970996
0.00158502058370577
0.001585020583922137
0.001585020583927616
0.001585020583739731
0.001585020583938792
0.001585020583973677
0.001585020583716404
0.001585020583941488
0.001585020583933583
0.001585020583766035
0.001585020583913734
0.001585020583960524
0.001585020583725535
0.001585020583905946
0.001585020583874108
0.001585020583880472
0.001585020583489674
0.001585020584282665
0.002011491397662576
0.002011491399233488
0.002011491400715069
0.002011491400844654
0.002011491400750512
0.002011491401204876
0.002011491401390454
0.002011491401056642
0.002011491401448916
0.002011491401486289
0.002011491401129366
0.002011491401495449
0.002011491401518492
0.00201149140114149
0.002011491401507979
0.002011491401527781
0.002011491401158036
0.0020114914015204
0.002011491401528739
0.00201149140115356
0.00201149140152612
0.002011491401548077
0.002011491401165918
0.002011491401525279
0.002011491401541254
0.00201149140116443
0.002011491401518706
0.002011491401526734
0.002011491401173956
0.002011491401554165
0.002011491401586908
0.002011491401198098
0.002011491401557837
0.002011491401580564
0.002011491401225836
0.002011491401597628
0.002011491401604964
0.002011491401232685
0.002011491401598067
0.002011491401608671
0.00201149140122829
0.002011491401581378
0.002011491401604501
0.002011491401245135
0.002011491401590708
0.002011491401599773
0.002011491401263259
0.002011491401607134
0.00201149140163834
0.002011491401256566
0.002011491401548257
0.00201149140156119
0.002011491401293447
0.002011491401530536
0.002011491401543121
0.002011491401505596
0.002011491400937546
0.002011491402102831
0.002434629219637223
0.002434629220769205
0.002434629222543497
0.00243462922276791
0.002434629222634527
0.002434629223270937
0.00243462922357038
0.002434629223130278
0.002434629223668818
0.002434629223758453
0.002434629223274606
0.002434629223772949
0.002434629223834687
0.002434629223320287
0.002434629223814308
0.002434629223866983
0.002434629223361824
0.002434629223849095
0.002434629223885181
0.002434629223369149
0.002434629223868069
0.00243462922392047
0.00243462922339492
0.002434629223871468
0.002434629223916013
0.002434629223397184
0.002434629223875953
0.002434629223907549
0.002434629223422018
0.002434629223927637
0.002434629223998146
0.00243462922345627
0.002434629223939294
0.002434629223986208
0.00243462922350386
0.002434629223995755
0.002434629224034417
0.002434629223507669
0.002434629224006982
0.002434629224027598
0.002434629223517846
0.002434629223984145
0.002434629224053917
0.002434629223519817
0.002434629224014761
0.002434629224008889
0.002434629223579908
0.002434629224014703
0.002434629224114482
0.00243462922352086
0.002434629223912112
0.002434629223922654
0.002434629223633362
0.002434629223976809
0.002434629224023267
0.002434629223920745
0.002434629223171625
0.002434629224666451
0.002855752034387329
0.002855752034910241
0.002855752036786564
0.002855752037145701
0.002855752036948459
0.002855752037756501
0.002855752038197505
0.002855752037648438
0.002855752038324605
0.002855752038495662
0.002855752037876547
0.00285575203849681
0.002855752038623985
0.002855752037965374
0.002855752038576729
0.002855752038687092
0.002855752038038825
0.002855752038642328
0.002855752038730066
0.002855752038063473
0.002855752038678463
0.002855752038784812
0.002855752038105962
0.002855752038687177
0.002855752038781891
0.00285575203811316
0.002855752038705862
0.00285575203878624
0.002855752038159735
0.002855752038779726
0.002855752038912005
0.002855752038206254
0.002855752038799279
0.002855752038894049
0.00285575203827557
0.002855752038875725
0.002855752038968666
0.002855752038279201
0.002855752038899894
0.002855752038954517
0.002855752038305067
0.002855752038867399
0.00285575203900937
0.002855752038295981
0.002855752038928979
0.002855752038929179
0.002855752038394892
0.002855752038906877
0.002855752039095673
0.002855752038290031
0.002855752038815469
0.002855752038824671
0.002855752038465957
0.00285575203889191
0.002855752038987819
0.002855752038847545
0.002855752037935765
0.002855752039683623
0.003280099789800871
0.003280099789654695
0.00328009979143126
0.00328009979192178
0.00328009979163457
0.003280099792586629
0.003280099793199782
0.003280099792541407
0.003280099793333885
0.003280099793623049
0.003280099792862214
0.003280099793582779
0.003280099793808979
0.003280099793002293
0.003280099793708563
0.00328009979391024
0.003280099793114213
0.003280099793813016
0.003280099793984897
0.003280099793161909
0.00328009979387181
0.003280099794063325
0.003280099793223875
0.003280099793887159
0.00328009979405879
0.003280099793236583
0.003280099793922831
0.003280099794086081
0.003280099793313424
0.003280099794024399
0.003280099794250092
0.003280099793373941
0.003280099794050499
0.003280099794225072
0.00328009979346597
0.003280099794149522
0.003280099794328035
0.003280099793473473
0.003280099794189291
0.00328009979431098
0.003280099793515097
0.003280099794150836
0.003280099794394391
0.003280099793501494
0.003280099794241079
0.003280099794278716
0.00328009979363168
0.003280099794204904
0.003280099794504574
0.003280099793491519
0.003280099794166126
0.003280099794188008
0.003280099793715153
0.003280099794213358
0.003280099794376136
0.003280099794205897
0.003280099793168112
0.003280099795076693
0.003717653445467751
0.003717653444738925
0.003717653446336464
0.003717653446892147
0.00371765344648796
0.003717653447541617
0.003717653448360682
0.003717653447594091
0.003717653448473015
0.003717653448924555
0.003717653448014839
0.003717653448807527
0.003717653449170334
0.003717653448213515
0.003717653448979039
0.003717653449318506
0.003717653448370772
0.00371765344912998
0.003717653449432171
0.00371765344844795
0.003717653449219006
0.003717653449539562
0.003717653448531854
0.003717653449249229
0.003717653449527699
0.003717653448550575
0.003717653449302164
0.003717653449590998
0.003717653448668101
0.003717653449436887
0.003717653449793122
0.003717653448744674
0.003717653449467821
0.003717653449758706
0.003717653448858975
0.003717653449589015
0.003717653449892471
0.003717653448876001
0.003717653449646963
0.003717653449878597
0.003717653448932728
0.003717653449613171
0.00371765344999334
0.003717653448925525
0.003717653449725805
0.003717653449839246
0.003717653449073725
0.003717653449690528
0.003717653450125702
0.003717653448912824
0.003717653449762863
0.003717653449845016
0.003717653449178886
0.003717653449723191
0.003717653449981709
0.003717653449779232
0.003717653448666651
0.003717653450638866
0.004183898346367752
0.004183898345202199
0.004183898346492786
0.004183898347082162
0.0041838983465365
0.004183898347621259
0.004183898348694269
0.004183898347821353
0.004183898348734291
0.004183898349419376
0.00418389834834973
0.004183898349163794
0.004183898349723842
0.004183898348615374
0.004183898349378415
0.004183898349926766
0.004183898348825239
0.004183898349578738
0.004183898350089373
0.004183898348939539
0.004183898349708496
0.004183898350233443
0.004183898349047048
0.004183898349764796
0.004183898350210646
0.00418389834907325
0.004183898349828769
0.004183898350325425
0.004183898349244698
0.004183898350006687
0.004183898350556532
0.00418389834933737
0.004183898350046419
0.004183898350509587
0.004183898349474547
0.00418389835018631
0.004183898350677248
0.004183898349509114
0.004183898350276434
0.004183898350674524
0.004183898349580245
0.004183898350257055
0.004183898350830611
0.004183898349593691
0.004183898350386667
0.004183898350627597
0.004183898349739894
0.004183898350356947
0.004183898350986441
0.004183898349580122
0.00418389835047026
0.004183898350734571
0.004183898349884665
0.004183898350422328
0.004183898350832118
0.004183898350591042
0.00418389834946593
0.004183898351408767
0.004699267904188744
0.004699267902877767
0.004699267903644787
0.004699267904291824
0.004699267903583262
0.004699267904550522
0.004699267905980256
0.004699267905003619
0.004699267905818668
0.004699267906895769
0.00469926790564602
0.004699267906357079
0.004699267907253107
0.004699267905988333
0.004699267906636785
0.00469926790750389
0.004699267906256983
0.004699267906878775
0.004699267907725511
0.004699267906421487
0.004699267907061295
0.004699267907919161
0.004699267906550828
0.0046992679071454
0.00469926790790489
0.004699267906594467
0.004699267907200948
0.004699267908074592
0.004699267906830664
0.004699267907448333
0.004699267908318642
0.004699267906930696
0.004699267907527942
0.004699267908261078
0.004699267907101593
0.004699267907675073
0.00469926790846091
0.004699267907161921
0.004699267907816603
0.004699267908487927
0.004699267907249977
0.004699267907825604
0.004699267908695012
0.004699267907292221
0.004699267907948774
0.004699267908435004
0.004699267907418205
0.004699267907914956
0.004699267908891693
0.00469926790729241
0.004699267908035486
0.004699267908677876
0.004699267907620435
0.004699267908060063
0.004699267908714911
0.004699267908385093
0.00469926790738414
0.004699267909200323
0.005286141919856034
0.005286141918742037
0.005286141918950997
0.005286141919400488
0.005286141918570473
0.005286141919354794
0.005286141921120677
0.00528614192004526
0.005286141920690845
0.005286141922257535
0.005286141920802895
0.005286141921334389
0.005286141922671912
0.005286141921225795
0.00528614192184752
0.005286141922910048
0.005286141921553235
0.005286141922092951
0.005286141923194774
0.005286141921800799
0.005286141922332302
0.00528614192345313
0.005286141921957871
0.005286141922416212
0.005286141923512077
0.005286141922054802
0.005286141922424726
0.005286141923721266
0.005286141922332019
0.005286141922753587
0.00528614192396985
0.005286141922439775
0.005286141922951792
0.005286141923936691
0.005286141922658178
0.00528614192310972
0.005286141924125127
0.005286141922737906
0.00528614192334987
0.005286141924230119
0.005286141922859013
0.005286141923414237
0.005286141924485503
0.005286141922931508
0.005286141923398869
0.005286141924196379
0.005286141923055052
0.005286141923368575
0.005286141924751707
0.005286141922975117
0.005286141923471206
0.0052861419245919
0.005286141923306337
0.005286141923736159
0.005286141924526249
0.005286141923808409
0.005286141923297265
0.005286141924965637
0.00596311832742178
0.005963118326788645
0.005963118326578173
0.005963118326629663
0.005963118325666699
0.005963118326297318
0.005963118328204495
0.005963118327027972
0.00596311832751316
0.005963118329575638
0.005963118327926297
0.005963118328200068
0.005963118330063456
0.00596311832840988
0.005963118328975678
0.005963118330244155
0.005963118328790852
0.005963118329181286
0.00596311833057639
0.005963118329158773
0.005963118329448695
0.005963118330855059
0.005963118329265277
0.005963118329888255
0.005963118331097028
0.005963118329467985
0.005963118329787727
0.005963118331242944
0.005963118329842109
0.005963118330229649
0.005963118331523624
0.005963118329947081
0.005963118330396575
0.005963118331667999
0.005963118330261735
0.005963118330533512
0.005963118331744343
0.005963118330343515
0.005963118330846298
0.005963118332068056
0.005963118330540957
0.005963118331081137
0.005963118332313348
0.00596311833058647
0.005963118330852096
0.005963118332065414
0.005963118330725287
0.005963118331036522
0.005963118332601907
0.005963118330758256
0.005963118331159444
0.00596311833249036
0.005963118331024897
0.005963118331416747
0.005963118332531348
0.005963118331213756
0.005963118331235551
0.005963118332875225
0.006737964554457384
0.006737964554731972
0.006737964553673878
0.006737964553792918
0.006737964552386645
0.006737964553043371
0.006737964554653799
0.006737964553400332
0.006737964554138747
0.006737964556182347
0.006737964554347055
0.006737964554800672
0.006737964556755442
0.006737964554924388
0.006737964555455081
0.006737964557163423
0.006737964555364095
0.006737964555771703
0.006737964557585808
0.006737964555949163
0.006737964556109412
0.006737964557731687
0.006737964555646253
0.006737964556572869
0.006737964558121202
0.006737964556071163
0.006737964556755015
0.006737964558222457
0.006737964556657402
0.006737964556987848
0.006737964558527518
0.006737964556782653
0.006737964556780973
0.006737964559053593
0.006737964557231683
0.006737964557488596
0.006737964559000681
0.006737964557400714
0.00673796455786803
0.00673796455943772
0.006737964557719306
0.006737964557973665
0.006737964559685135
0.006737964557679534
0.006737964557622061
0.006737964559570751
0.006737964557563639
0.006737964558180972
0.006737964559914694
0.006737964557965688
0.006737964558235088
0.006737964559900847
0.006737964558189595
0.006737964557968765
0.006737964560223085
0.00673796455836935
0.006737964558511796
0.006737964560530984
0.007602317618677417
0.007602317618897238
0.007602317616816746
0.007602317617943112
0.00760231761562512
0.007602317616108968
0.007602317617606589
0.007602317616204061
0.007602317616935742
0.007602317619455914
0.007602317616622362
0.007602317617710449
0.007602317619811399
0.007602317617800336
0.007602317617403507
0.007602317620865731
0.007602317618305435
0.007602317617955484
0.00760231762144702
0.007602317619223692
0.007602317619088716
0.007602317621262164
0.007602317619090061
0.007602317618865321
0.007602317622332174
0.007602317619821623
0.007602317619925716
0.007602317621954593
0.00760231761940306
0.007602317620673803
0.007602317622394227
0.007602317619669391
0.007602317620764147
0.007602317622750076
0.007602317620193158
0.007602317621145255
0.007602317623115183
0.007602317621028859
0.007602317620551615
0.007602317623700557
0.007602317621516624
0.00760231762098226
0.007602317624115559
0.007602317621349786
0.007602317620865084
0.007602317623821178
0.007602317621001476
0.007602317622115712
0.007602317623991012
0.007602317621078184
0.007602317622177897
0.007602317624001757
0.007602317621901273
0.007602317621535095
0.007602317624532979
0.007602317622168787
0.00760231762199989
0.007602317625026941
0.008531228598859365
0.008531228599127224
0.008531228597423274
0.008531228597618354
0.008531228594069356
0.008531228595733405
0.008531228597200289
0.008531228594945039
0.008531228594543614
0.008531228599055755
0.008531228595165615
0.00853122859657569
0.008531228599210275
0.00853122859674533
0.008531228595898322
0.008531228600471933
0.008531228597407674
0.008531228596100882
0.008531228601329148
0.008531228598361498
0.008531228597174378
0.008531228601685118
0.008531228598575486
0.008531228597516033
0.008531228602456647
0.008531228599161186
0.008531228598675736
0.008531228602430243
0.008531228599260638
0.008531228599779435
0.008531228602761811
0.008531228598873239
0.008531228600163442
0.008531228602901519
0.008531228600303913
0.008531228599492112
0.008531228603873408
0.008531228600927665
0.008531228600645936
0.008531228603571386
0.008531228601483152
0.008531228601415029
0.008531228604112769
0.008531228600342554
0.008531228601249623
0.008531228603778251
0.008531228600582677
0.008531228602264828
0.008531228604271888
0.008531228600555177
0.008531228602219774
0.008531228604407057
0.008531228601074758
0.008531228602233475
0.008531228604647913
0.008531228602247493
0.008531228600918282
0.00853122860555322
0.009488317667333631
0.009488317667151061
0.00948831766579292
0.009488317666017779
0.009488317662380225
0.009488317661381866
0.009488317666129967
0.009488317662323428
0.009488317661309566
0.009488317666778909
0.009488317661940273
0.00948831766387096
0.009488317666907701
0.009488317662901565
0.009488317664318634
0.009488317667641796
0.009488317664628767
0.009488317662917833
0.009488317669177499
0.009488317666024173
0.009488317664207076
0.009488317669705133
0.009488317666026435
0.00948831766450612
0.009488317670496699
0.009488317666664506
0.009488317664835638
0.009488317670920629
0.009488317667053303
0.009488317665603182
0.009488317671344192
0.009488317667395267
0.009488317665909374
0.009488317671891167
0.009488317668628765
0.009488317666902937
0.009488317672270563
0.009488317667522922
0.009488317668714682
0.009488317671813719
0.009488317668020076
0.009488317669345771
0.009488317672335803
0.009488317667844874
0.009488317669155878
0.009488317672216293
0.009488317669311814
0.009488317668950051
0.009488317673556528
0.009488317669459151
0.009488317669898225
0.009488317673416883
0.009488317669857988
0.009488317669598815
0.00948831767374873
0.00948831767069561
0.009488317669832397
0.009488317673405303
0.01043417692083246
0.01043417692062763
0.01043417691954535
0.01043417691995906
0.01043417691591758
0.0104341769137637
0.01043417692009735
0.01043417691538739
0.01043417691401433
0.0104341769200525
0.01043417691441915
0.01043417691654332
0.01043417692024463
0.01043417691522021
0.01043417691715969
0.01043417692075294
0.01043417691608154
0.01043417691752865
0.01043417692167874
0.01043417691923913
0.01043417691854161
0.01043417692214484
0.01043417691745951
0.01043417691880823
0.01043417692308217
0.01043417691952497
0.01043417691706109
0.01043417692455031
0.01043417692006941
0.010434176918045
0.0104341769249699
0.01043417692061555
0.01043417691831572
0.01043417692567
0.0104341769223632
0.01043417692162785
0.01043417692510781
0.01043417692014117
0.01043417692203894
0.0104341769255287
0.01043417692069259
0.01043417692269199
0.01043417692607841
0.0104341769208279
0.01043417692241774
0.0104341769260749
0.01043417692307629
0.0104341769214438
0.01043417692788465
0.01043417692318653
0.01043417692121279
0.01043417692791235
0.01043417692358892
0.01043417692130963
0.01043417692822618
0.01043417692263989
0.01043417692387098
0.01043417692728131
0.01133423874631907
0.0113342387462485
0.01133423874553558
0.01133423874624248
0.01133423874169495
0.01133423873925387
0.0113342387461806
0.01133423874096363
0.01133423873885821
0.011334238745968
0.01133423874111822
0.01133423873923343
0.0113342387469612
0.01133423874030786
0.01133423874282559
0.01133423874628574
0.01133423874080994
0.01133423874358918
0.01133423874716081
0.01133423874219623
0.01133423874402449
0.01133423874787315
0.01133423874226375
0.01133423874445762
0.01133423874866803
0.01133423874480228
0.01133423874247779
0.01133423875026082
0.01133423874383118
0.0113342387460716
0.01133423874992383
0.01133423874442999
0.0113342387459087
0.01133423875073203
0.01133423874558908
0.01133423874736
0.01133423875112965
0.01133423874543022
0.01133423874810919
0.01133423875149641
0.01133423874589328
0.01133423874889245
0.01133423875216165
0.01133423874609135
0.0113342387481564
0.01133423875224728
0.01133423874922042
0.01133423874980316
0.01133423875369738
0.01133423874902865
0.01133423874597436
0.01133423875439303
0.01133423874953898
0.01133423874638359
0.01133423875465798
0.01133423874780327
0.0113342387496611
0.01133423875349564
0.01216339560541995
0.0121633956055632
0.01216339560525551
0.01216339560655371
0.01216339559978693
0.01216339560113956
0.0121633956053709
0.01216339560066371
0.0121633955981387
0.01216339560599914
0.01216339560102763
0.01216339559807367
0.01216339560712521
0.01216339559979224
0.01216339560277831
0.01216339560588664
0.01216339560005226
0.01216339560351672
0.0121633956067879
0.01216339560065782
0.01216339560329848
0.01216339560761327
0.0121633956013493
0.01216339560451011
0.01216339560845235
0.012163395604167
0.01216339560234465
0.01216339560989006
0.01216339560271331
0.01216339560534393
0.01216339560972022
0.01216339560339856
0.01216339560596904
0.01216339561053345
0.01216339560431376
0.01216339560663489
0.01216339561105801
0.01216339560497921
0.01216339560821649
0.01216339561137703
0.01216339560538215
0.01216339560918047
0.012163395612219
0.01216339560553122
0.01216339560772397
0.01216339561244272
0.01216339560649013
0.01216339561021946
0.01216339561314897
0.01216339560859878
0.01216339560565317
0.01216339561449922
0.01216339560920968
0.01216339560621151
0.01216339561471418
0.01216339560723827
0.01216339560922619
0.01216339561368207
0.01290685289489245
0.01290685289542391
0.01290685289526828
0.01290685289785535
0.01290685289021078
0.01290685289219783
0.01290685289627328
0.01290685289124854
0.01290685288922171
0.01290685289677541
0.01290685289156604
0.01290685288870183
0.01290685289788825
0.01290685289194239
0.0129068528895802
0.01290685289786345
0.01290685289226125
0.01290685288966123
0.01290685289867753
0.01290685289089145
0.01290685289365651
0.0129068528983174
0.01290685289166536
0.0129068528955691
0.01290685289918758
0.01290685289450002
0.01290685289255741
0.01290685290054534
0.01290685289289895
0.01290685289529848
0.0129068529005303
0.01290685289363492
0.01290685289652573
0.01290685290131626
0.01290685289435131
0.01290685289690514
0.01290685290178417
0.01290685289708925
0.01290685289455965
0.01290685290343638
0.01290685289772574
0.01290685289542885
0.01290685290414798
0.01290685289803902
0.01290685289532462
0.01290685290445361
0.01290685289643294
0.01290685290098902
0.01290685290385326
0.01290685289714984
0.01290685289948554
0.01290685290429438
0.01290685289767278
0.01290685290017331
0.01290685290447802
0.01290685289944168
0.0129068528967659
0.01290685290559634
0.01355835060185693
0.01355835060353409
0.01355835060294988
0.01355835060760585
0.01355835059938358
0.01355835060148822
0.01355835060562518
0.01355835059817186
0.01355835059997585
0.01355835060525051
0.01355835059822644
0.01355835060026555
0.01355835060588569
0.01355835060079219
0.01355835059774878
0.01355835060720441
0.01355835060137003
0.01355835059723356
0.01355835060792092
0.01355835060169001
0.01355835060064269
0.01355835060807275
0.01355835060222489
0.01355835059988994
0.01355835060923803
0.0135583506033663
0.0135583505999253
0.01355835060984304
0.0135583506036549
0.01355835060060015
0.01355835061065569
0.01355835060441501
0.01355835060347203
0.0135583506109923
0.01355835060282639
0.01355835060566478
0.01355835061079059
0.01355835060589212
0.01355835060269289
0.01355835061256691
0.01355835060662562
0.01355835060343515
0.01355835061323494
0.01355835060733518
0.01355835060358462
0.01355835061382746
0.01355835060502387
0.0135583506099688
0.01355835061289727
0.01355835060558869
0.01355835060805517
0.01355835061331926
0.01355835060612005
0.01355835060861921
0.0135583506134641
0.01355835060860948
0.01355835060481851
0.01355835061482866
0.01411736343815831
0.01411736344014591
0.01411736343956334
0.01411736344509686
0.01411736343876059
0.01411736343782478
0.01411736344380697
0.01411736343507252
0.01411736343757538
0.01411736344274124
0.01411736343514159
0.01411736343783159
0.01411736344325205
0.01411736343580361
0.01411736343913717
0.01411736344354833
0.01411736343832539
0.01411736343528979
0.01411736344488012
0.01411736343917615
0.01411736343562959
0.01411736344597319
0.01411736343961902
0.01411736343562144
0.01411736344663679
0.01411736344076732
0.01411736343698547
0.01411736344730225
0.01411736344087785
0.01411736343693903
0.01411736344793664
0.01411736344175944
0.01411736343783467
0.0141173634487812
0.01411736343985781
0.01411736344248809
0.014117363448149
0.01411736344069798
0.01411736344334473
0.0141173634486262
0.0141173634413553
0.01411736344399142
0.01411736344933872
0.01411736344432251
0.01411736344102669
0.01411736345101384
0.01411736344194748
0.01411736344708368
0.01411736345020203
0.01411736344256311
0.01411736344493471
0.01411736345059461
0.01411736344306772
0.01411736344536629
0.01411736345070815
0.01411736344560518
0.01411736344209917
0.0141173634519134
0.01458649270747177
0.01458649270887479
0.01458649270999015
0.01458649271440342
0.01458649270822694
0.01458649270399356
0.01458649271405338
0.01458649270458503
0.01458649270774953
0.01458649271244528
0.01458649270680134
0.01458649270544824
0.01458649271364493
0.01458649270499623
0.01458649270900261
0.01458649271315864
0.01458649270542679
0.01458649270695458
0.01458649271337095
0.0145864927083359
0.01458649270496244
0.01458649271534816
0.01458649270870229
0.01458649270502446
0.01458649271584905
0.01458649271059653
0.01458649271019599
0.01458649271607555
0.01458649270764903
0.0145864927094185
0.01458649271606098
0.0145864927108896
0.01458649270629972
0.01458649271818657
0.01458649271129653
0.01458649270816917
0.01458649271866851
0.01458649270949361
0.01458649271263266
0.01458649271789481
0.01458649271012287
0.01458649271332581
0.01458649271867085
0.01458649271118868
0.01458649271338251
0.01458649271915232
0.01458649271097803
0.01458649271636053
0.01458649271958293
0.01458649271167272
0.01458649271434994
0.01458649271991345
0.01458649271212
0.01458649271435397
0.01458649271999173
0.014586492712474
0.01458649271501808
0.01458649271996402
0.01496959725771484
0.01496959725508592
0.01496959726140284
0.01496959726420663
0.01496959725741123
0.01496959725241868
0.01496959726372978
0.01496959725652713
0.0149695972568898
0.01496959726269113
0.01496959725685637
0.01496959725264666
0.01496959726389786
0.01496959725486272
0.01496959725926878
0.01496959726283793
0.01496959725450057
0.01496959725678964