/*--------------------------------*- C++ -*----------------------------------*\
| =========                 |                                                 |
| \\      /  F ield         | OpenFOAM: The Open Source CFD Toolbox           |
|  \\    /   O peration     | Version:  v1812                                 |
|   \\  /    A nd           | Web:      www.OpenFOAM.com                      |
|    \\/     M anipulation  |                                                 |
\*---------------------------------------------------------------------------*/
FoamFile
{
    version     2.0;
    format      ascii;
    class       volScalarField;
    location    "20000";
    object      p;
}
// * * * * * * * * * * * * * * * * * * * * * * * * * * * * * * * * * * * * * //

dimensions      [0 2 -2 0 0 0 0];


internalField   nonuniform List<scalar> 
3770
(
-4.975963125233244e-14
-9.584710965750546e-10
-7.106334077119819e-10
-9.407223732028184e-10
-8.7150991940985e-10
-9.287103061209995e-10
-8.996400465656717e-10
-9.098924749918784e-10
-8.944695166824632e-10
-8.866719664233746e-10
-8.757710026314174e-10
-8.632423292180698e-10
-8.485471902428035e-10
-8.351797096846322e-10
-8.212814524905355e-10
-8.047066110126047e-10
-7.919991412753051e-10
-7.751414290695908e-10
-7.605741084864834e-10
-7.450463484850685e-10
-7.301594140997633e-10
-7.111725110448458e-10
-6.98852791548456e-10
-6.80703835806258e-10
-6.653257530424542e-10
-6.479102268151494e-10
-6.340360160497599e-10
-6.145687407973337e-10
-6.025222040557104e-10
-5.813539989365029e-10
-5.669581351628798e-10
-5.473847608886858e-10
-5.357688575054304e-10
-5.123697191528365e-10
-5.043200320312058e-10
-4.77913928961742e-10
-4.68553300630018e-10
-4.419213244857799e-10
-4.384546128641361e-10
-4.054902684575325e-10
-4.091279628684961e-10
-3.693627198092473e-10
-3.760589947687849e-10
-3.291700063390143e-10
-3.483442361071297e-10
-2.862555954632142e-10
-3.224295374121071e-10
-2.438302339812198e-10
-2.944425203947798e-10
-1.946625506790368e-10
-2.778592964031149e-10
-1.451568157233888e-10
-2.580867240480422e-10
-9.42502866813978e-11
-2.375537624464011e-10
-4.871198922739311e-11
-2.084660706384649e-10
-7.248976972664937e-11
-1.232726702512168e-12
-9.570766618259592e-10
-7.101034341768333e-10
-9.404439077431588e-10
-8.712911653744315e-10
-9.285960671892293e-10
-8.994777389639407e-10
-9.098418745931454e-10
-8.944018734679147e-10
-8.86582606440414e-10
-8.757472849539893e-10
-8.632086274310224e-10
-8.484831239309512e-10
-8.351810643141374e-10
-8.212575581150419e-10
-8.046534944191733e-10
-7.920147210881578e-10
-7.751303486151045e-10
-7.605259388626907e-10
-7.450644317289864e-10
-7.301478736272163e-10
-7.111280727286145e-10
-6.988725621298669e-10
-6.806964322970323e-10
-6.652875850759386e-10
-6.479345819884699e-10
-6.340310981878711e-10
-6.145292593060353e-10
-6.025501595841288e-10
-5.813547631802264e-10
-5.669281240802041e-10
-5.47407438430844e-10
-5.357723268371946e-10
-5.123317852609325e-10
-5.043570277101621e-10
-4.779155489145289e-10
-4.685245381200252e-10
-4.419394276221884e-10
-4.384624653605635e-10
-4.054428158049111e-10
-4.091732893978475e-10
-3.693598146605798e-10
-3.760426337494755e-10
-3.291753491209054e-10
-3.483693261927806e-10
-2.862003454346296e-10
-3.224849976812031e-10
-2.438170160755794e-10
-2.944362409479017e-10
-1.946500462753492e-10
-2.778859432085709e-10
-1.45123127186854e-10
-2.581212833193695e-10
-9.431917298885282e-11
-2.375127138415253e-10
-4.900839336088573e-11
-2.083092374825225e-10
-7.434972403687495e-11
-4.028275706872754e-12
-9.554607373745956e-10
-7.084277086751786e-10
-9.401352309618078e-10
-8.706656708742014e-10
-9.28370556265438e-10
-8.991468544147326e-10
-9.097155326198507e-10
-8.942365998564182e-10
-8.864405036027693e-10
-8.756643408832108e-10
-8.631251939688572e-10
-8.483892146165014e-10
-8.35147578041505e-10
-8.211972661276764e-10
-8.045872567574221e-10
-7.920182214810278e-10
-7.750977072463336e-10
-7.60466391423652e-10
-7.450636157418558e-10
-7.301140167958145e-10
-7.110801894817409e-10
-6.988865196484812e-10
-6.806707728410095e-10
-6.652510897302809e-10
-6.479546797491508e-10
-6.340155033674661e-10
-6.144789154029087e-10
-6.025677029735043e-10
-5.813393207856423e-10
-5.669157770751298e-10
-5.474176545854253e-10
-5.357710392799778e-10
-5.122935352741692e-10
-5.044092123536106e-10
-4.779014883055348e-10
-4.685117373528027e-10
-4.419318315407016e-10
-4.384776414468071e-10
-4.053816613288247e-10
-4.092575393655661e-10
-3.69323687800658e-10
-3.760604177371599e-10
-3.291280455380091e-10
-3.48435678174784e-10
-2.8609942056908e-10
-3.226168354049021e-10
-2.43725401004932e-10
-2.944965938820362e-10
-1.945478200668459e-10
-2.780161906262374e-10
-1.450033151701232e-10
-2.582599878051544e-10
-9.433414597711449e-11
-2.375332732927371e-10
-4.944707434821108e-11
-2.079711143776412e-10
-7.72551913989086e-11
-7.944616786957788e-12
-9.551916013720618e-10
-7.062480908092726e-10
-9.398098109193762e-10
-8.698184682784314e-10
-9.280480739782393e-10
-8.987464797713831e-10
-9.09494477888294e-10
-8.940161559241762e-10
-8.862868073716634e-10
-8.755111640450689e-10
-8.630124583042024e-10
-8.482981481409172e-10
-8.350638835054313e-10
-8.21125643575219e-10
-8.045308381200227e-10
-7.919784413108296e-10
-7.750612101384722e-10
-7.604192942429784e-10
-7.450219707632644e-10
-7.300769138685226e-10
-7.110488414637479e-10
-6.988630876984886e-10
-6.806443140780939e-10
-6.652361481016766e-10
-6.479435377557356e-10
-6.340043764643436e-10
-6.144370197704108e-10
-6.025410617727414e-10
-5.813242628919356e-10
-5.669358104829723e-10
-5.473895224662581e-10
-5.357797448017749e-10
-5.122777905022629e-10
-5.044327256897952e-10
-4.778879541763751e-10
-4.685296754560251e-10
-4.41879127439582e-10
-4.385032979580453e-10
-4.053397580381083e-10
-4.093247392265268e-10
-3.692778740459462e-10
-3.761163552764218e-10
-3.290262544082779e-10
-3.485238954012062e-10
-2.860087557359249e-10
-3.22746162912073e-10
-2.436110044030574e-10
-2.946139109356473e-10
-1.943920496666656e-10
-2.78169940164798e-10
-1.448798840695438e-10
-2.583857241254724e-10
-9.434631828793006e-11
-2.3753002550613e-10
-4.992327365955917e-11
-2.073872489540327e-10
-7.929090543201649e-11
-1.188029650509914e-11
-9.566182343147045e-10
-7.042910202727702e-10
-9.395447083163677e-10
-8.690063123447416e-10
-9.276866223176063e-10
-8.983876840678258e-10
-9.092266756681618e-10
-8.937867967715273e-10
-8.861689210799295e-10
-8.75324350285829e-10
-8.628864481089516e-10
-8.482444361572244e-10
-8.349529902703476e-10
-8.210510354778187e-10
-8.045067029410842e-10
-7.91898910792867e-10
-7.750166562510684e-10
-7.604106573126695e-10
-7.449551998278322e-10
-7.300341885208552e-10
-7.110502516425123e-10
-6.988054101361214e-10
-6.806129231592699e-10
-6.652587149060448e-10
-6.479014511293746e-10
-6.33987910437116e-10
-6.144272215210683e-10
-6.02476869437357e-10
-5.813039318177873e-10
-5.669924410224901e-10
-5.473292551716053e-10
-5.357872303916592e-10
-5.122988375916298e-10
-5.044136465852028e-10
-4.778655432110352e-10
-4.685846128881777e-10
-4.417994915208455e-10
-4.385219331109376e-10
-4.053408285571134e-10
-4.093485436430546e-10
-3.692256569911333e-10
-3.762066743739777e-10
-3.289050510780691e-10
-3.485974408644966e-10
-2.859674742776931e-10
-3.22814640656583e-10
-2.435003077118361e-10
-2.947771874340556e-10
-1.942464779647502e-10
-2.782737330780922e-10
-1.448049897955137e-10
-2.584290322892864e-10
-9.435653766142097e-11
-2.374868809464907e-10
-5.03191122920381e-11
-2.067287536716791e-10
-7.961878567883791e-11
-1.571910708441247e-11
-9.593182513306464e-10
-7.02605245863589e-10
-9.393090450436645e-10
-8.682386100878113e-10
-9.272805993576543e-10
-8.980513245291174e-10
-9.089243545186247e-10
-8.935431053045043e-10
-8.860684738307336e-10
-8.751144496614471e-10
-8.627438608913745e-10
-8.482121876677721e-10
-8.348243412036066e-10
-8.209673704298781e-10
-8.045025072411381e-10
-7.917912477559236e-10
-7.749581684175955e-10
-7.604299915167416e-10
-7.448768518571445e-10
-7.299807541868963e-10
-7.110725826086505e-10
-6.98729335993196e-10
-6.805743908377782e-10
-6.653054187278031e-10
-6.478335992675488e-10
-6.339574323744385e-10
-6.14445380420756e-10
-6.023948707083914e-10
-5.812747456746909e-10
-5.670737804276212e-10
-5.472500000485024e-10
-5.357900036954763e-10
-5.123450822588945e-10
-5.043660019234033e-10
-4.778295599702022e-10
-4.686665310881109e-10
-4.417067529518954e-10
-4.385304307586188e-10
-4.053721438931425e-10
-4.093475115132959e-10
-3.691649747775891e-10
-3.763186778580627e-10
-3.287762725630528e-10
-3.486577123679135e-10
-2.859608982785251e-10
-3.228366269180467e-10
-2.433829524594347e-10
-2.949691509391987e-10
-1.941264248350253e-10
-2.783463487633225e-10
-1.447631666062264e-10
-2.583957006263916e-10
-9.436163095121546e-11
-2.374123234601758e-10
-5.06608742009388e-11
-2.060552101320488e-10
-7.871318457960639e-11
-1.945005839586299e-11
-9.630915172735318e-10
-7.011902329158048e-10
-9.390809016177449e-10
-8.67508794748429e-10
-9.2682373569187e-10
-8.977195250287419e-10
-9.085891420645344e-10
-8.932789077474017e-10
-8.859709997778869e-10
-8.748858907883772e-10
-8.625825608582487e-10
-8.481879039215956e-10
-8.346802205615231e-10
-8.208713714196772e-10
-8.045083631023893e-10
-7.916637162851591e-10
-7.748855778666279e-10
-7.60466233934077e-10
-7.447910467940024e-10
-7.299145974020217e-10
-7.111071608543574e-10
-6.986442442821041e-10
-6.8052920235267e-10
-6.653656116226741e-10
-6.477456117135877e-10
-6.33912357661938e-10
-6.144829294552491e-10
-6.023014676666605e-10
-5.812350649071042e-10
-5.67172745871026e-10
-5.471596223041206e-10
-5.357869721267043e-10
-5.124075241714292e-10
-5.043028343065723e-10
-4.777829174561486e-10
-4.687641683036755e-10
-4.416034622214836e-10
-4.385294693705031e-10
-4.054242534278251e-10
-4.093366943712114e-10
-3.690970393028776e-10
-3.764417230735034e-10
-3.286374843971676e-10
-3.487062302696123e-10
-2.859813026875005e-10
-3.228353767635477e-10
-2.432594036210276e-10
-2.951749680019115e-10
-1.940225285116352e-10
-2.783970583519086e-10
-1.447465950474102e-10
-2.583059835034555e-10
-9.436403320958948e-11
-2.373060816120239e-10
-5.095572753380063e-11
-2.053868167449499e-10
-7.685580408273452e-11
-2.301375315902046e-11
-9.679000000720236e-10
-7.001063405653712e-10
-9.388507928970317e-10
-8.668307916039863e-10
-9.263139788512264e-10
-8.973874821284889e-10
-9.08221099439407e-10
-8.929932079749809e-10
-8.858701438490821e-10
-8.746405752852077e-10
-8.624013303308758e-10
-8.481648872232553e-10
-8.345223097909097e-10
-8.207620359771301e-10
-8.045187062102113e-10
-7.915203742403042e-10
-7.747994404513598e-10
-7.60512517834858e-10
-7.446988247097982e-10
-7.298357483144886e-10
-7.111493435813562e-10
-6.985533440809354e-10
-6.804779401406063e-10
-6.65434525797311e-10
-6.476439928141978e-10
-6.338547668272701e-10
-6.145312520702837e-10
-6.02197605639365e-10
-5.811851282458981e-10
-5.672851154335554e-10
-5.470623079411843e-10
-5.357791636536014e-10
-5.124816981806224e-10
-5.042286752525698e-10
-4.777265119644957e-10
-4.688717628078142e-10
-4.414924841860899e-10
-4.385191972184575e-10
-4.054921919832295e-10
-4.093202013818981e-10
-3.69023582353349e-10
-3.76570636827844e-10
-3.284889248227406e-10
-3.487407407650486e-10
-2.860278074954573e-10
-3.228187816743657e-10
-2.431333308402353e-10
-2.953867609769868e-10
-1.939281355985184e-10
-2.784192704949194e-10
-1.447635468688723e-10
-2.581707279757794e-10
-9.437037468375029e-11
-2.37158120389411e-10
-5.119649791670756e-11
-2.047324033989848e-10
-7.410765383872573e-11
-2.638301560688945e-11
-9.737817276364703e-10
-6.994393238707106e-10
-9.386142502919621e-10
-8.662226630945047e-10
-9.257425833475643e-10
-8.970513652082905e-10
-9.078162504697322e-10
-8.926831389214542e-10
-8.857574751963967e-10
-8.743783497443511e-10
-8.621969106316358e-10
-8.481365024098761e-10
-8.343500863525455e-10
-8.206370486423116e-10
-8.045284292145698e-10
-7.913628125817073e-10
-7.746994232472231e-10
-7.605637432681991e-10
-7.446000743498182e-10
-7.297436814167362e-10
-7.111955072736624e-10
-6.984575289980608e-10
-6.804204478534997e-10
-6.655089986190037e-10
-6.475322366548042e-10
-6.337853797616489e-10
-6.145849175634833e-10
-6.020836272563259e-10
-5.811244741809597e-10
-5.674066245882542e-10
-5.469621912127458e-10
-5.357657871773274e-10
-5.125630869144464e-10
-5.041453065835085e-10
-4.77661747379911e-10
-4.689860816355568e-10
-4.413770870596444e-10
-4.385004370728536e-10
-4.055727611902783e-10
-4.092981825840861e-10
-3.689450361229005e-10
-3.767012458910941e-10
-3.283376730002521e-10
-3.48761838477895e-10
-2.860971214886338e-10
-3.227845393153192e-10
-2.430090126192461e-10
-2.955973302183578e-10
-1.938440474824331e-10
-2.784000882643295e-10
-1.44824794815991e-10
-2.579895253934567e-10
-9.438953675346274e-11
-2.369513905500492e-10
-5.137670021072368e-11
-2.040891360001441e-10
-7.044867483217834e-11
-2.954430475202704e-11
-9.808883048876789e-10
-6.993174745316872e-10
-9.383582104946047e-10
-8.657104187679076e-10
-9.25091706493621e-10
-8.967028572421813e-10
-9.073663573016231e-10
-8.923419314880416e-10
-8.856195137102609e-10
-8.740973404392916e-10
-8.61962703330222e-10
-8.480920187885636e-10
-8.34163326093351e-10
-8.204917422652437e-10
-8.04528151529207e-10
-7.911925414403751e-10
-7.745835338612327e-10
-7.606118598001192e-10
-7.444947942100709e-10
-7.296369875081025e-10
-7.112401313381626e-10
-6.983585947528098e-10
-6.803566689169057e-10
-6.655839823320823e-10
-6.474127392218397e-10
-6.33702810994913e-10
-6.146371015427623e-10
-6.019638990903204e-10
-5.810530093314518e-10
-5.67529915594372e-10
-5.468652813239921e-10
-5.357481327983821e-10
-5.126448696756301e-10
-5.040545805947706e-10
-4.775883465499489e-10
-4.691013794152607e-10
-4.412640534992254e-10
-4.384745599483625e-10
-4.056602368003223e-10
-4.09270186640388e-10
-3.688620291545742e-10
-3.768272877469281e-10
-3.281935283645685e-10
-3.487691750175447e-10
-2.861860118220185e-10
-3.227286999946087e-10
-2.428920353664874e-10
-2.95796157293831e-10
-1.937855374564401e-10
-2.783241469721364e-10
-1.449356343174132e-10
-2.577515844042325e-10
-9.443408356659061e-11
-2.366541406769281e-10
-5.148761698915281e-11
-2.034427638515119e-10
-6.577175194990807e-11
-3.243576151183012e-11
-9.895308328722331e-10
-6.999805743114699e-10
-9.380530915878278e-10
-8.653461097600777e-10
-9.243349607977567e-10
-8.963269587635612e-10
-9.068615271405946e-10
-8.919594663976981e-10
-8.854298093365646e-10
-8.737985253607956e-10
-8.61690150213577e-10
-8.480114833412274e-10
-8.339647275676894e-10
-8.20319656976315e-10
-8.044978149921347e-10
-7.91015967587158e-10
-7.744500848600696e-10
-7.606400025757986e-10
-7.443881290240013e-10
-7.295133234242956e-10
-7.112689020040934e-10
-6.982629636951928e-10
-6.802877634555629e-10
-6.656467564828277e-10
-6.472923616931303e-10
-6.336066884468563e-10
-6.146729195438356e-10
-6.018476744688795e-10
-5.809710231562385e-10
-5.676378238839787e-10
-5.467840296226498e-10
-5.3572912630775e-10
-5.127112618571495e-10
-5.039630443992311e-10
-4.775096501385097e-10
-4.69203400784864e-10
-4.411667507019525e-10
-4.384454829471559e-10
-4.057409905712028e-10
-4.092376174031685e-10
-3.687760522828383e-10
-3.769343754433366e-10
-3.28074514153638e-10
-3.487630730577637e-10
-2.862864455642131e-10
-3.226468009826264e-10
-2.427938692871781e-10
-2.959631331363533e-10
-1.937856714211744e-10
-2.781722551999474e-10
-1.450925053198704e-10
-2.574402601373335e-10
-9.452186781069186e-11
-2.362182772253036e-10
-5.150235230911904e-11
-2.027663178669066e-10
-5.985800818048445e-11
-3.483105562740728e-11
-1.000128527009616e-09
-7.01836163099108e-10
-9.37680553877845e-10
-8.652108433623484e-10
-9.234542178230617e-10
-8.959223575060752e-10
-9.062783603678756e-10
-8.915291637682253e-10
-8.85164156106309e-10
-8.734718822104356e-10
-8.613744621869585e-10
-8.478785724974205e-10
-8.337474126446411e-10
-8.201183327706761e-10
-8.044163921651788e-10
-7.908300316733536e-10
-7.743010023621681e-10
-7.606303503532472e-10
-7.442763020522598e-10
-7.293749133855446e-10
-7.112685664647128e-10
-6.981674330601215e-10
-6.802221851415738e-10
-6.656865728115444e-10
-6.471664057024437e-10
-6.335017303635651e-10
-6.146791783732541e-10
-6.017373308780103e-10
-5.808863734813647e-10
-5.677139540075959e-10
-5.467186657577417e-10
-5.357217527125113e-10
-5.127507039470295e-10
-5.038643717464723e-10
-4.774352184317481e-10
-4.692782153224416e-10
-4.410899280156258e-10
-4.384233083490734e-10
-4.05802499494008e-10
-4.091848103413137e-10
-3.686960687494361e-10
-3.770137819417073e-10
-3.279934155158146e-10
-3.487516783874638e-10
-2.863954501905664e-10
-3.225156722030228e-10
-2.427371736127683e-10
-2.960787578949837e-10
-1.93873277464469e-10
-2.779201747876089e-10
-1.452975959613581e-10
-2.570235510775789e-10
-9.467571201991707e-11
-2.356189005498973e-10
-5.136014672398879e-11
-2.020116188526541e-10
-5.239776726131318e-11
-3.62706849158792e-11
-1.013108339425853e-09
-7.054401487457027e-10
-9.372690314560741e-10
-8.654146725824853e-10
-9.224632746711582e-10
-8.955261942516644e-10
-9.055712452123189e-10
-8.91055953256403e-10
-8.848128235955537e-10
-8.730920662762778e-10
-8.610207501387008e-10
-8.476862699389699e-10
-8.334797479209475e-10
-8.198974760507618e-10
-8.04276793837525e-10
-7.906089521740598e-10
-7.741459441863104e-10
-7.605729008634417e-10
-7.441357896893231e-10
-7.2923396271282e-10
-7.112411605414283e-10
-6.980587117413455e-10
-6.801653201100131e-10
-6.65695615625116e-10
-6.470220750510128e-10
-6.333958139517094e-10
-6.146446450834224e-10
-6.016174067713452e-10
-5.808184774853172e-10
-5.677566070828261e-10
-5.466486797445209e-10
-5.357374802839364e-10
-5.12758103047146e-10
-5.03736610108817e-10
-4.77386366142988e-10
-4.693206525422322e-10
-4.410111216070472e-10
-4.384294574724972e-10
-4.058535022664749e-10
-4.090732560177956e-10
-3.68629379491384e-10
-3.770671184120634e-10
-3.279401844794903e-10
-3.48759787248212e-10
-2.865377551985083e-10
-3.223035257251422e-10
-2.427426879919672e-10
-2.961098885103582e-10
-1.940472799898196e-10
-2.775544709138171e-10
-1.455809411784588e-10
-2.564536166519552e-10
-9.490531010096011e-11
-2.348579169159711e-10
-5.096321445019008e-11
-2.011386623094638e-10
-4.30556144221389e-11
-3.60310715308106e-11
-1.028844453377647e-09
-7.113840439216946e-10
-9.368781789741485e-10
-8.661342540419493e-10
-9.214244877065357e-10
-8.952040402684836e-10
-9.047021452073834e-10
-8.905611232027148e-10
-8.843908371019366e-10
-8.726567676921616e-10
-8.606238414221585e-10
-8.474219310864076e-10
-8.331396356740428e-10
-8.196645239978036e-10
-8.040850513411951e-10
-7.903271048694325e-10
-7.739802861710392e-10
-7.60459645064313e-10
-7.439440068903871e-10
-7.290998842671278e-10
-7.112112684478386e-10
-6.979424278389254e-10
-6.80081248306832e-10
-6.656601895412685e-10
-6.468829195895125e-10
-6.332826957713149e-10
-6.145480737600669e-10
-6.014837224915675e-10
-5.807803835712348e-10
-5.67779522421303e-10
-5.465723201476242e-10
-5.357481791744595e-10
-5.127137444527163e-10
-5.035756191047119e-10
-4.773660589635268e-10
-4.693307182401027e-10
-4.409150236831261e-10
-4.38469792344909e-10
-4.059204111923529e-10
-4.089065665252946e-10
-3.685602135106988e-10
-3.770697986627722e-10
-3.278946564002343e-10
-3.488024142817271e-10
-2.867648288035018e-10
-3.220153662350977e-10
-2.427856733552933e-10
-2.960082521733927e-10
-1.943151374548379e-10
-2.770681285005547e-10
-1.459807027911701e-10
-2.557261957723273e-10
-9.516991212958875e-11
-2.339137000817716e-10
-5.016919546624671e-11
-2.001589049905679e-10
-3.155809754982973e-11
-3.318511378202682e-11
-1.047639713550503e-09
-7.20233426370179e-10
-9.366171697925098e-10
-8.675870033994062e-10
-9.204054992703263e-10
-8.950139214058645e-10
-9.036934113361225e-10
-8.900671543688925e-10
-8.839464160455856e-10
-8.722372929506401e-10
-8.601274037932167e-10
-8.470536104545764e-10
-8.327629465517763e-10
-8.193723817271017e-10
-8.038676210997142e-10
-7.90038513567072e-10
-7.737371287512667e-10
-7.602663978315317e-10
-7.437426883188443e-10
-7.289354402772834e-10
-7.111609746926908e-10
-6.978163948956553e-10
-6.799095633756689e-10
-6.65578491339427e-10
-6.467737980408964e-10
-6.331540256486075e-10
-6.144326297000165e-10
-6.013684944551778e-10
-5.807161317110317e-10
-5.677756441786616e-10
-5.465325900778507e-10
-5.356865641698753e-10
-5.126167635803631e-10
-5.034466805248564e-10
-4.77296663081395e-10
-4.693221037924453e-10
-4.408558216598278e-10
-4.384760590764395e-10
-4.05994794784917e-10
-4.087135835295978e-10
-3.684594230158084e-10
-3.770284810895338e-10
-3.278646206371009e-10
-3.488304331642838e-10
-2.870869469223481e-10
-3.216991912279333e-10
-2.428390163031618e-10
-2.957949975859297e-10
-1.947462599657744e-10
-2.76424990805592e-10
-1.4643956238105e-10
-2.548911555621435e-10
-9.537523185239775e-11
-2.327780665793617e-10
-4.881720771330821e-11
-1.991325857433194e-10
-1.771165823697906e-11
-2.701119914123231e-11
-1.06959477628008e-09
-7.322071425497446e-10
-9.366891855751134e-10
-8.699405942932732e-10
-9.1942267934604e-10
-8.950786006385403e-10
-9.027460453958803e-10
-8.895376628358042e-10
-8.834215256043221e-10
-8.718968822192516e-10
-8.59504938651705e-10
-8.465490709575895e-10
-8.32373057859203e-10
-8.189918111482666e-10
-8.0365963647215e-10
-7.89804401568145e-10
-7.733663825817948e-10
-7.599994686951867e-10
-7.435914881570064e-10
-7.286732808334697e-10
-7.110296023475504e-10
-6.976605977459102e-10
-6.796387284890947e-10
-6.654989042581176e-10
-6.467276037127729e-10
-6.329854950058534e-10
-6.143315762709488e-10
-6.01307926966459e-10
-5.805471213860107e-10
-5.677240927612871e-10
-5.46570074767592e-10
-5.355240253258612e-10
-5.124798172562762e-10
-5.033653840705448e-10
-4.771175860910692e-10
-4.693345771971008e-10
-4.408968714984998e-10
-4.383745825177147e-10
-4.059911229449685e-10
-4.084741927044394e-10
-3.683535168668255e-10
-3.770551287998574e-10
-3.279447239483812e-10
-3.487191920192992e-10
-2.87379731027416e-10
-3.214236809837215e-10
-2.429400983358892e-10
-2.95532003780016e-10
-1.953567324258061e-10
-2.756152915643312e-10
-1.468582298574219e-10
-2.540132462429474e-10
-9.54194047722482e-11
-2.315064006617636e-10
-4.674717842074991e-11
-1.981231095920454e-10
-1.43825488754072e-12
-1.733242891259665e-11
-1.094505963859273e-09
-7.469578867037726e-10
-9.373040634816708e-10
-8.732707706134112e-10
-9.184973304378385e-10
-8.954891335980785e-10
-9.020482275466837e-10
-8.88975004158787e-10
-8.827330215289429e-10
-8.715793797892747e-10
-8.588257676196204e-10
-8.459786199644699e-10
-8.320285039097639e-10
-8.185247511266184e-10
-8.033731602490795e-10
-7.896096431169247e-10
-7.729177253685723e-10
-7.596964349824978e-10
-7.434329004155476e-10
-7.283276841727703e-10
-7.108483171696369e-10
-6.974458261660526e-10
-6.793063372480936e-10
-6.654921872014693e-10
-6.467582003335665e-10
-6.327657903871967e-10
-6.142163148865823e-10
-6.013164966929918e-10
-5.802728224522735e-10
-5.676225787374714e-10
-5.466555310292342e-10
-5.352801026633512e-10
-5.12291652202196e-10
-5.032546485463859e-10
-4.76893773464351e-10
-4.69391040990791e-10
-4.410848693140332e-10
-4.381743058093464e-10
-4.058624609467459e-10
-4.083068300439416e-10
-3.68224450566682e-10
-3.770732557410694e-10
-3.28227926354317e-10
-3.484256366165034e-10
-2.87547760860045e-10
-3.212134341904016e-10
-2.430858505200135e-10
-2.952473192676042e-10
-1.960490938878215e-10
-2.74688735629881e-10
-1.47239016964458e-10
-2.530951869462671e-10
-9.523900897186352e-11
-2.30225045831434e-10
-4.378563930080033e-11
-1.971837616513691e-10
1.714818032417801e-11
-4.428072836712227e-12
-1.121910036193738e-09
-7.639036562313129e-10
-9.385864298866719e-10
-8.774717447392845e-10
-9.177402368033124e-10
-8.961895791251006e-10
-9.015708119925374e-10
-8.884736229765064e-10
-8.819528891556873e-10
-8.711875825040766e-10
-8.581586281704287e-10
-8.454851028070122e-10
-8.318185106419156e-10
-8.179717735434064e-10
-8.028821332872164e-10
-7.894688092378182e-10
-7.724502300026522e-10
-7.592757186002841e-10
-7.431446460739148e-10
-7.280194236665653e-10
-7.107543549176704e-10
-6.973145708569463e-10
-6.789386751662868e-10
-6.65397740664451e-10
-6.467713046149878e-10
-6.325481444124308e-10
-6.14136097473989e-10
-6.013535900619446e-10
-5.799370887231079e-10
-5.674852748799288e-10
-5.467344133749261e-10
-5.349978190942255e-10
-5.120005794914613e-10
-5.030414496513499e-10
-4.767361037390192e-10
-4.695229458799351e-10
-4.414001722966272e-10
-4.379237851381946e-10
-4.056661340133812e-10
-4.083453857044607e-10
-3.680377984941057e-10
-3.768936537679888e-10
-3.286905218738394e-10
-3.480382849205332e-10
-2.875931552455303e-10
-3.209796736191143e-10
-2.43277074402893e-10
-2.950088152264387e-10
-1.967887902072296e-10
-2.736890086394754e-10
-1.475739938146077e-10
-2.522144135277086e-10
-9.475241574550861e-11
-2.289680895414619e-10
-3.995249070983186e-11
-1.963562509593764e-10
3.78755458321608e-11
1.102803395631772e-11
-1.15114285246914e-09
-7.82332245212302e-10
-9.406205162233161e-10
-8.821925083429732e-10
-9.172720826164391e-10
-8.972228785418373e-10
-9.012674039165708e-10
-8.880625875869329e-10
-8.811804700760843e-10
-8.707409761391442e-10
-8.574689286445498e-10
-8.450491993296446e-10
-8.316475585003601e-10
-8.174236035986083e-10
-8.022925268278644e-10
-7.893513098882414e-10
-7.720027644452269e-10
-7.587986765459807e-10
-7.428870481253666e-10
-7.277157584510656e-10
-7.106128098849216e-10
-6.974210315907414e-10
-6.785620380577082e-10
-6.650804248938655e-10
-6.467670491481251e-10
-6.323278801170345e-10
-6.140283193131124e-10
-6.013433148630356e-10
-5.796071711176682e-10
-5.67369485801416e-10
-5.468251157561463e-10
-5.346917111041031e-10
-5.116328922530703e-10
-5.028490093135591e-10
-4.765983778294398e-10
-4.696061000622111e-10
-4.416733736483043e-10
-4.377038649888887e-10
-4.055173960370139e-10
-4.084248543804702e-10
-3.678648163966922e-10
-3.766304426727359e-10
-3.292321999034795e-10
-3.476249528188253e-10
-2.875819540843155e-10
-3.207301276537467e-10
-2.435132896916949e-10
-2.947580159368796e-10
-1.975337215635625e-10
-2.726882396302252e-10
-1.478667700487187e-10
-2.514611753814908e-10
-9.393675985300319e-11
-2.277557415481321e-10
-3.53446444309379e-11
-1.956291411121863e-10
6.042560437622605e-11
2.822681922282355e-11
-1.181288071511293e-09
-8.014755533703326e-10
-9.434812047166663e-10
-8.873306253472077e-10
-9.170870351397832e-10
-8.984103083143621e-10
-9.01113283980766e-10
-8.877468465275495e-10
-8.804669862986973e-10
-8.702814776148607e-10
-8.567299586115589e-10
-8.445935773176444e-10
-8.313850766535408e-10
-8.169764930985265e-10
-8.017598641002567e-10
-7.890936323876807e-10
-7.716255273583498e-10
-7.585043148295983e-10
-7.427946604903116e-10
-7.273528405325141e-10
-7.102575451307441e-10
-6.975685724985706e-10
-6.782229299238962e-10
-6.647495368710702e-10
-6.468185018582642e-10
-6.320842340182608e-10
-6.137749592967229e-10
-6.013694293147615e-10
-5.79326430904739e-10
-5.671841538246334e-10
-5.469247348315638e-10
-5.343759182019188e-10
-5.113001214397986e-10
-5.028283207436405e-10
-4.763910715145129e-10
-4.6950144347068e-10
-4.418287753551963e-10
-4.375707236513697e-10
-4.054435797792922e-10
-4.083196771032556e-10
-3.677516922908515e-10
-3.764808441410947e-10
-3.296911606200766e-10
-3.472289913265619e-10
-2.876822820269059e-10
-3.205573039265194e-10
-2.43758490445436e-10
-2.943679260621014e-10
-1.981746977185646e-10
-2.71759664998568e-10
-1.481525418814892e-10
-2.506918307997538e-10
-9.293047156473709e-11
-2.267997510410975e-10
-2.992594246681521e-11
-1.949760114028012e-10
8.405513062409478e-11
4.636017118734633e-11
-1.211386484719646e-09
-8.205727154063187e-10
-9.469750602461374e-10
-8.92994654711333e-10
-9.171820282818849e-10
-8.994822953070287e-10
-9.010256235940396e-10
-8.875336040666547e-10
-8.798060416749014e-10
-8.696727082069313e-10
-8.560269125018554e-10
-8.443171332451822e-10
-8.311166778898606e-10
-8.165465449620282e-10
-8.012702305779743e-10
-7.887954078923837e-10
-7.712664576174901e-10
-7.582579199255916e-10
-7.42626584552172e-10
-7.270402910170872e-10
-7.099091638553787e-10
-6.974981534814737e-10
-6.779453297710724e-10
-6.646241028480963e-10
-6.469289857123817e-10
-6.318475783508961e-10
-6.13390555279289e-10
-6.014111987767488e-10
-5.791012851684552e-10
-5.669171535673272e-10
-5.468526192169472e-10
-5.341276999859376e-10
-5.111428472230064e-10
-5.028860713877467e-10
-4.761626444160115e-10
-4.69359562936412e-10
-4.419700844046231e-10
-4.374294786960771e-10
-4.0538668866438e-10
-4.081484911081376e-10
-3.676409103434652e-10
-3.763815731616297e-10
-3.300093038215641e-10
-3.46841292259208e-10
-2.87923148380007e-10
-3.204043121795372e-10
-2.44030478215391e-10
-2.938925491436615e-10
-1.987586765256838e-10
-2.709077125031235e-10
-1.483980846629187e-10
-2.500036886076758e-10
-9.177118859351453e-11
-2.261208701282696e-10
-2.385362728665803e-11
-1.942877168739957e-10
1.078468323468417e-10
6.464336007271251e-11
-1.240656975520032e-09
-8.389128247927171e-10
-9.507541879467492e-10
-8.99009962129633e-10
-9.176221123451749e-10
-9.005148875969608e-10
-9.009459677985857e-10
-8.873905313275093e-10
-8.791925360389016e-10
-8.691188773164809e-10
-8.553682948275205e-10
-8.440778510835086e-10
-8.308942991592797e-10
-8.160605040018258e-10
-8.008196556466515e-10
-7.886484796754281e-10
-7.708634337108383e-10
-7.579160503230962e-10
-7.42412007793707e-10
-7.267575508581309e-10
-7.096216907813742e-10
-6.973089021169049e-10
-6.776646881286179e-10
-6.646051422653679e-10
-6.470511806764424e-10
-6.316317316260253e-10
-6.129908750886956e-10
-6.013449843252956e-10
-5.788756538702854e-10
-5.667776142179551e-10
-5.466556084661395e-10
-5.338957399451131e-10
-5.110809806521035e-10
-5.029806109908993e-10
-4.759390188223534e-10
-4.692361543905152e-10
-4.421128164952493e-10
-4.372303562230041e-10
-4.053728402922606e-10
-4.080565133246199e-10
-3.675002441787638e-10
-3.762091864680561e-10
-3.302452445706341e-10
-3.464549337325362e-10
-2.882219249122496e-10
-3.202272219245518e-10
-2.443341192689349e-10
-2.934068323164492e-10
-1.994096282814776e-10
-2.701283753459279e-10
-1.485375349585814e-10
-2.495719503778866e-10
-9.046543859502354e-11
-2.255776677049289e-10