/*--------------------------------*- C++ -*----------------------------------*\
| =========                 |                                                 |
| \\      /  F ield         | OpenFOAM: The Open Source CFD Toolbox           |
|  \\    /   O peration     | Version:  v1812                                 |
|   \\  /    A nd           | Web:      www.OpenFOAM.com                      |
|    \\/     M anipulation  |                                                 |
\*---------------------------------------------------------------------------*/
FoamFile
{
    version     2.0;
    format      ascii;
    class       surfaceScalarField;
    location    "20000";
    object      phi;
}
// * * * * * * * * * * * * * * * * * * * * * * * * * * * * * * * * * * * * * //

dimensions      [0 3 -1 0 0 0 0];
oriented        oriented;


internalField   nonuniform List<scalar> 
7417
(
-0.0002788910653341895
-6.577902081000836e-13
-0.0002788910660340061
6.99875787663e-13
-0.000278891065919326
-1.146538569908615e-13
-0.0002788910661269956
2.077008844455952e-13
-0.0002788910661354542
8.463318721718137e-15
-0.000278891066189072
5.353625464814952e-14
-0.0002788910662312916
4.222619436215756e-14
-0.0002788910662578761
2.655156263054663e-14
-0.0002788910662669919
9.077309056392783e-15
-0.0002788910663084737
4.139497604457552e-14
-0.0002788910663170205
8.624089586018776e-15
-0.0002788910663191405
2.163925390834876e-15
-0.0002788910663513454
3.220917429591555e-14
-0.0002788910663498495
-1.503058965851931e-15
-0.0002788910663471085
-2.760878909744836e-15
-0.0002788910663759144
2.877913833662923e-14
-0.000278891066375111
-8.234667204253875e-16
-0.0002788910663679623
-7.149886850110611e-15
-0.0002788910663946365
2.668428059541742e-14
-0.0002788910663866299
-7.41938934540763e-15
-0.0002788910663796215
-7.555493887475617e-15
-0.0002788910664039243
2.430120014990498e-14
-0.0002788910664005625
-3.384246433516205e-15
-0.0002788910663906428
-9.951222002957334e-15
-0.0002788910664160902
2.539565970707059e-14
-0.0002788910664086689
-7.481467004561225e-15
-0.0002788910664028352
-5.874755804843668e-15
-0.0002788910664220443
1.916960746500417e-14
-0.0002788910664128241
-9.23463049289909e-15
-0.0002788910663975237
-1.530645778745861e-14
-0.0002788910664227364
2.523614717998579e-14
-0.000278891066410813
-1.217950643338435e-14
-0.0002788910664029747
-7.547520593150578e-15
-0.000278891066421644
1.870969259222018e-14
-0.0002788910664187247
-2.866581295651336e-15
-0.0002788910663996137
-1.902497096356621e-14
-0.000278891066424689
2.503577143900833e-14
-0.0002788910664073918
-1.728851643773012e-14
-0.000278891066406363
-1.024884228224821e-15
-0.0002788910664197941
1.341112131679093e-14
-0.0002788910664276034
7.775281562585585e-15
-0.0002788910663986116
-2.926800449696807e-14
-0.0002788910664332271
3.462137395455628e-14
-0.0002788910664012377
-3.205329789289303e-14
-0.0002788910664173107
1.601645360437427e-14
-0.0002788910664052167
-1.215014865717713e-14
-0.0002788910664380791
3.28405490972499e-14
-0.0002788910663761099
-6.231192042912745e-14
-0.0002788910664459521
7.018258303364154e-14
-0.0002788910663756541
-7.02853695222608e-14
-0.0002788910664544756
7.882539894166296e-14
-0.0002788910663695566
-8.492264827821993e-14
-0.0002788910664756133
1.060395818400948e-13
-0.000278891066318853
-1.567727977184209e-13
-0.0002788910664722984
1.534243529228225e-13
-0.0002788910662547074
-2.176010786404989e-13
-0.0002788910663749925
1.203036888601405e-13
-3.731179741202787e-13
7.197893564567343e-05
-1.224357740255078e-12
7.197893513683356e-05
1.208779799260189e-12
7.197893502390746e-05
-1.702809284660774e-15
7.197893488334418e-05
3.482834304735044e-13
7.197893481274966e-05
7.905340635083554e-14
7.19789347702855e-05
9.595213708431567e-14
7.197893470752878e-05
1.049699439675434e-13
7.197893468161511e-05
5.243904930336637e-14
7.197893466347279e-05
2.719068708897407e-14
7.197893462084959e-05
8.396328098019688e-14
7.197893460885731e-05
2.066254036298994e-14
7.197893460348851e-05
7.558781017872388e-15
7.197893457040226e-05
6.529937971025308e-14
7.197893456850583e-05
3.926018840856946e-16
7.197893456817775e-05
-2.441235159362918e-15
7.19789345398358e-05
5.710584028273983e-14
7.197893454073915e-05
-1.737067526965925e-15
7.197893454458261e-05
-1.098902844685974e-14
7.197893451926225e-05
5.20159872378921e-14
7.197893452496229e-05
-1.282850625558087e-14
7.197893453038291e-05
-1.324023127143197e-14
7.197893450645782e-05
4.822742823650457e-14
7.197893451036001e-05
-7.303171655785943e-15
7.197893451693995e-05
-1.655317422379974e-14
7.197893449430039e-05
4.800432999872346e-14
7.197893450048883e-05
-1.371250717283577e-14
7.197893450594499e-05
-1.135914604376065e-14
7.197893448566576e-05
3.942145637066296e-14
7.197893449557589e-05
-1.915200953587496e-14
7.197893450686299e-05
-2.659305595643706e-14
7.197893448621644e-05
4.590681791514494e-14
7.197893449448796e-05
-2.057511327840685e-14
7.197893450347522e-05
-1.639234069316334e-14
7.197893448294748e-05
3.926295535861523e-14
7.197893449137586e-05
-1.126085884379177e-14
7.197893450343676e-05
-3.104428193018999e-14
7.197893448514569e-05
4.331632633492547e-14
7.19789344945027e-05
-2.664574873802129e-14
7.197893450294888e-05
-9.465832323474553e-15
7.197893448116562e-05
3.518273293242655e-14
7.197893448734302e-05
1.574691581625824e-15
7.197893450047781e-05
-4.256380039916838e-14
7.19789344831153e-05
5.197098141284847e-14
7.197893449421665e-05
-4.319562842596719e-14
7.197893450144854e-05
8.741975570517001e-15
7.197893448623811e-05
3.013879916185263e-15
7.197893448782739e-05
3.123428372387658e-14
7.197893450957876e-05
-8.422677132741067e-14
7.197893448444903e-05
9.548731359718105e-14
7.197893450180821e-05
-8.763266500089711e-14
7.197893448527231e-05
9.536539334401225e-14
7.197893450140277e-05
-1.010549778019361e-13
7.197893447354686e-05
1.338836841293925e-13
7.197893454713473e-05
-2.303789354228752e-13
7.197893448243218e-05
2.181062845414836e-13
7.197893462720098e-05
-3.623744313698168e-13
7.197893454242605e-05
2.050980257007306e-13
-9.09549000840242e-13
0.0002310295400924534
-1.781515753539647e-12
0.0002310295397786666
1.522564901816525e-12
0.000231029539565638
2.113267585591522e-13
0.0002310295394587307
4.551998806901507e-13
0.0002310295393567101
1.810804807545429e-13
0.0002310295393129498
1.396931429653057e-13
0.0002310295392441665
1.737622866611717e-13
0.0002310295392149339
8.166635210016072e-14
0.0002310295391898638
5.225419985846118e-14
0.0002310295391495561
1.242551259870003e-13
0.0002310295391327537
3.748048744975852e-14
0.0002310295391233389
1.698504682533425e-14
0.0002310295390933388
9.529978650568047e-14
0.0002310295390867721
6.955242208558335e-15
0.0002310295390827234
1.599090689891822e-15
0.00023102953905867
8.115115015311185e-14
0.0002310295390573998
-4.732658671711318e-16
0.0002310295390581287
-1.172090617657738e-14
0.0002310295390368647
7.327877949370623e-14
0.000231029539038216
-1.402680344780454e-14
0.0002310295390408118
-1.598023029912432e-14
0.0002310295390214476
6.759085286362418e-14
0.000231029539023615
-9.473599610538207e-15
0.0002310295390272475
-2.019254939443631e-14
0.0002310295390094501
6.578704767220001e-14
0.0002310295390129995
-1.727529393776457e-14
0.0002310295390169537
-1.532227245693868e-14
0.000231029538999469
5.68973978531109e-14
0.0002310295390060296
-2.571780655278051e-14
0.0002310295390133107
-3.387929150879594e-14
0.0002310295389989811
6.023918679089009e-14
0.0002310295390033042
-2.496483372569912e-14
0.0002310295390106548
-2.366554838305978e-14
0.0002310295389936957
5.623019606317301e-14
0.000231029539002492
-2.004316901699774e-14
0.0002310295390100261
-3.855321392586066e-14
0.0002310295389981884
5.51399522638772e-14
0.0002310295390012988
-2.975162585529888e-14
0.0002310295390108218
-1.899025309764228e-14
0.0002310295389903715
5.562686870340942e-14
0.0002310295390009372
-8.996447655364734e-15
0.0002310295390059229
-4.761168579196421e-14
0.0002310295389984973
5.940125230013701e-14
0.0002310295389983651
-4.307912822778489e-14
0.0002310295390129848
-5.886423648098851e-15
0.0002310295389912042
2.478490878645527e-14
0.0002310295390056321
1.680503207083701e-14
0.0002310295390090607
-8.774943558360023e-14
0.0002310295390026554
1.019757198464278e-13
0.000231029538997964
-8.294116062469247e-14
0.0002310295390062549
8.70730840016854e-14
0.0002310295389990583
-9.385956708146849e-14
0.0002310295390000667
1.328713002238773e-13
0.0002310295390398488
-2.701587273324321e-13
0.0002310295390083333
2.496229069543655e-13
0.0002310295391224148
-4.764583773980461e-13
0.0002310295390472326
2.802768008374437e-13
-1.397771444773184e-12
0.0003240452250700454
-2.336464418495634e-12
0.0003240452249103688
1.682274023263881e-12
0.0003240452246677441
4.539668652995284e-13
0.0003240452245764977
5.464596489498257e-13
0.0003240452244602588
2.973197508730575e-13
0.0003240452244128058
1.871224421015241e-13
0.0003240452243416655
2.448879031499965e-13
0.0003240452243079548
1.153611599812893e-13
0.0003240452242781362
8.205718061535214e-14
0.0003240452242390878
1.632785179456796e-13
0.0003240452242181696
5.841865893741505e-14
0.0003240452242057069
2.946113440230124e-14
0.0003240452241776581
1.233518902116689e-13
0.0003240452241674096
1.720328197320449e-14
0.0003240452241609678
8.035645816971861e-15
0.0003240452241395958
1.025145875229576e-13
0.0003240452241357439
3.373282982779282e-15
0.0003240452241345216
-1.0495668836883e-14
0.000324045224115964
9.184453427621435e-14
0.0003240452241140321
-1.198226514445857e-14
0.0003240452241150017
-1.704735304153339e-14
0.0003240452240987371
8.385719308887074e-14
0.0003240452240986664
-9.410029563308846e-15
0.0003240452241006038
-2.214236391787017e-14
0.0003240452240861252
8.024656323811467e-14
0.0003240452240874492
-1.862535856504614e-14
0.0003240452240904794
-1.836817750329251e-14
0.0003240452240752622
7.209933803359801e-14
0.0003240452240789805
-2.944016262579022e-14
0.0003240452240842056
-3.91055137109581e-14
0.0003240452240737903
7.067057781300725e-14
0.0003240452240752666
-2.648718789612341e-14
0.0003240452240815944
-2.993741163250088e-14
0.0003240452240675163
7.032206325415628e-14
0.000324045224075334
-2.7840678556269e-14
0.0003240452240807995
-4.400135793885476e-14
0.0003240452240729495
6.299000052860232e-14
0.0003240452240722077
-2.901344485756553e-14
0.0003240452240818164
-2.859647843661194e-14
0.0003240452240634547
7.398261057892201e-14
0.0003240452240744207
-1.997109717719426e-14
0.0003240452240756795
-4.89432720074225e-14
0.0003240452240737712
6.129501285993199e-14
0.0003240452240682336
-3.756532074830254e-14
0.000324045224085316
-2.299219915145617e-14
0.0003240452240625934
4.748040862770945e-14
0.0003240452240808766
-1.485908526216588e-15
0.0003240452240772358
-8.4171338725936e-14
0.0003240452240794155
9.986346851047106e-14
0.000324045224065654
-6.917371242827204e-14
0.0003240452240819194
7.08090556281635e-14
0.000324045224067915
-7.985772710662047e-14
0.0003240452240780068
1.227721471500168e-13
0.0003240452241057152
-2.978778143517926e-13
0.0003240452240850494
2.702793604214322e-13
0.0003240452241857642
-5.771728950439038e-13
0.0003240452241174649
3.485815900808357e-13
-1.795292989965267e-12
0.0003934133125812394
-2.87373851971249e-12
0.0003934133125480787
1.715423652563255e-12
0.0003934133123052104
6.968310106351294e-13
0.0003934133122265925
6.25082031993545e-13
0.0003934133121045183
4.194010668713394e-13
0.0003934133120537493
2.37880972668717e-13
0.0003934133119821325
3.165139129445609e-13
0.0003934133119446301
1.528626879359003e-13
0.0003934133119109545
1.157306058825101e-13
0.0003934133118731363
2.010930707619593e-13
0.0003934133118490824
8.24770505678392e-14
0.0003934133118338132
4.473706608759646e-14
0.0003934133118074906
1.496736089754808e-13
0.0003934133117944885
3.020142851820541e-14
0.0003934133117858484
1.666886038971027e-14
0.000393413311766647
1.217104964724911e-13
0.0003934133117604139
9.601557926485167e-15
0.000393413311757173
-7.257868263692979e-15
0.0003934133117410875
1.079266558930156e-13
0.0003934133117368943
-7.716108987518336e-15
0.0003934133117363038
-1.652676946312838e-14
0.0003934133117226221
9.753759356155304e-14
0.0003934133117205534
-7.342616431390166e-15
0.000393413311720818
-2.241022512972574e-14
0.0003934133117091995
9.18563451121053e-14
0.0003934133117087456
-1.817813501462177e-14
0.0003934133117105905
-2.021735771586838e-14
0.0003934133116976979
8.498727495896072e-14
0.0003934133116993716
-3.111752271033133e-14
0.0003934133117028372
-4.25764315792622e-14
0.0003934133116954277
7.807968724874282e-14
0.0003934133116948369
-2.59278034258242e-14
0.000393413311699995
-3.505776513367669e-14
0.0003934133116885543
8.176569926241481e-14
0.0003934133116950288
-3.4305394445988e-14
0.0003934133116985822
-4.754019526428683e-14
0.000393413311694105
6.74586075073674e-14
0.0003934133116910415
-2.594687164867061e-14
0.0003934133117000707
-3.762809977739703e-14
0.0003934133116840154
9.003372021301428e-14
0.0003934133116942311
-3.018790527119245e-14
0.0003934133116927518
-4.748983020143075e-14
0.0003934133116949981
5.905120350000599e-14
0.0003934133116866358
-2.921289177786114e-14
0.0003934133117042552
-4.061345707462918e-14
0.0003934133116823537
6.937953021201995e-14
0.0003934133117012525
-2.038237331175807e-14
0.000393413311693524
-7.649075487821038e-14
0.0003934133117016033
9.182023197090813e-14
0.0003934133116839255
-5.149928595049532e-14
0.0003934133117025468
5.218559156120109e-14
0.0003934133116865986
-6.391110292800261e-14
0.0003934133116994226
1.099464062549643e-13
0.0003934133117206929
-3.191435156863038e-13
0.0003934133117053805
2.855953191190591e-13
0.0003934133117964435
-6.68236768725345e-13
0.00039341331173973
4.052879276681463e-13
-2.09968338258067e-12
0.0004519271455711158
-3.380405751551871e-12
0.0004519271456447754
1.641786424281527e-12
0.0004519271454145497
9.270705782943265e-13
0.0004519271453485661
6.910803605501899e-13
0.0004519271452249205
5.430506169790348e-13
0.000451927145171516
2.912669561224875e-13
0.0004519271451002223
3.877902988895574e-13
0.0004519271450597375
1.933324640492731e-13
0.000451927145022648
1.528069999809325e-13
0.0004519271449858707
2.378532997311559e-13
0.0004519271449593009
1.090597057655085e-13
0.000451927144941282
6.276710838760767e-14
0.0004519271449164396
1.745195902565525e-13
0.0004519271449012644
4.537560082082287e-14
0.0004519271448903921
2.753518500160708e-14
0.0004519271448730062
1.390885309409471e-13
0.0004519271448647567
1.784613634191113e-14
0.0004519271448593892
-1.88785920831235e-15
0.0004519271448454937
1.218306397038952e-13
0.0004519271448396403
-1.79649523845317e-15
0.0004519271448373876
-1.432692180751216e-14
0.0004519271448259354
1.089921679823271e-13
0.0004519271448222854
-3.696798666395388e-15
0.0004519271448208291
-2.096475811668876e-14
0.0004519271448116709
1.009950852194001e-13
0.0004519271448096676
-1.620000286140906e-14
0.000451927144810036
-2.059987061617737e-14
0.0004519271447995034
9.550646795118245e-14
0.0004519271447997884
-3.14068190059355e-14
0.0004519271448014977
-4.428906412369759e-14
0.0004519271447965858
8.300737410492958e-14
0.0004519271447944553
-2.382250014310488e-14
0.0004519271447982959
-3.886365539852387e-14
0.0004519271447892599
9.081382520417758e-14
0.0004519271447944785
-3.950443520658415e-14
0.0004519271447960246
-4.907423819904862e-14
0.0004519271447945348
6.895221519042463e-14
0.0004519271447900059
-2.142395118473606e-14
0.0004519271447981212
-4.574243677160304e-14
0.0004519271447843114
1.038383491439929e-13
0.0004519271447937013
-3.958121893610303e-14
0.0004519271447897865
-4.362596070489555e-14
0.0004519271447953868
5.343302965600814e-14
0.000451927144785367
-1.921548042522586e-14
0.0004519271448027658
-5.803247586691072e-14
0.0004519271447821784
8.994359511431267e-14
0.0004519271448007078
-3.891617774518705e-14
0.0004519271447896846
-6.550588650749054e-14
0.0004519271448022544
7.928764172674784e-14
0.0004519271447830626
-3.230446340456658e-14
0.0004519271448025278
3.272031409395709e-14
0.0004519271447860582
-4.744547200790212e-14
0.0004519271447992815
9.671560166620552e-14
0.0004519271448156495
-3.355196742455212e-13
0.000451927144804438
2.96801554500492e-13
0.0004519271448864637
-7.50259862927585e-13
0.0004519271448451256
4.466252499293793e-13
-2.318939134300784e-12
0.0005082490196428836
-3.851192278385982e-12
0.000508249019808302
1.476353813688866e-12
0.0005082490195966731
1.138692299240945e-12
0.0005082490195433858
7.443690573035148e-13
0.0005082490194203917
6.660510775540509e-13
0.000508249019364788
3.468636270534914e-13
0.0005082490192939161
4.586727756254696e-13
0.0005082490192508872
2.363628559044803e-13
0.0005082490192104964
1.931969156668594e-13
0.0005082490191743649
2.739866645212908e-13
0.0005082490191455533
1.378709820085743e-13
0.0005082490191247199
8.360556136729839e-14
0.0005082490191009717
1.982658405519286e-13
0.0005082490190839444
6.239891517006596e-14
0.0005082490190707463
4.072647525953081e-14
0.0005082490190547636
1.550663116496933e-13
0.0005082490190448303
2.777480455241915e-14
0.0005082490190373057
5.633838508609086e-15
0.0005082490190251715
1.339594946291188e-13
0.0005082490190179596
5.455757500722286e-15
0.0005082490190139436
-1.035168940658023e-14
0.0005082490190043552
1.185789809617627e-13
0.0005082490189994239
1.232588958156013e-15
0.0005082490189961926
-1.773586573975671e-14
0.0005082490189891216
1.08060277937778e-13
0.0005082490189858204
-1.290303531402001e-14
0.0005082490189845846
-1.936704475917223e-14
0.0005082490189762509
1.038367935898861e-13
0.0005082490189755748
-3.073392452204111e-14
0.0005082490189755209
-4.42403736658414e-14
0.0005082490189726932
8.583357301067458e-14
0.0005082490189693903
-2.053678742093603e-14
0.000508249018971852
-4.130325461475436e-14
0.0005082490189649389
9.772753356943088e-14
0.000508249018969218
-4.377471168551126e-14
0.0005082490189688058
-4.865081643794704e-14
0.000508249018969831
6.792071133327544e-14
0.0005082490189642756
-1.586521567308549e-14
0.0005082490189713457
-5.281577184618117e-14
0.0005082490189595774
1.156026389896141e-13
0.0005082490189683373
-4.834176767138752e-14
0.0005082490189621887
-3.748807999359086e-14
0.0005082490189705581
4.506564833302025e-14
0.0005082490189593543
-8.019638500112775e-15
0.0005082490189761006
-7.477826947207105e-14
0.0005082490189570004
1.09043160104965e-13
0.0005082490189751712
-5.708294629272201e-14
0.0005082490189613606
-5.172562281147461e-14
0.0005082490189773768
6.328704343010959e-14
0.0005082490189576695
-1.260189782076331e-14
0.0005082490189773342
1.3052325871154e-14
0.0005082490189610023
-3.111498892414885e-14
0.0005082490189738388
8.387841654557469e-14
0.0005082490189861634
-3.478392047795485e-13
0.0005082490189785026
3.044663921626096e-13
0.0005082490190517466
-8.235041135341221e-13
0.0005082490190278864
4.704785579097338e-13
-2.463299985310842e-12
0.0005720925085229048
-4.285884526915191e-12
0.0005720925087711253
1.228148803383617e-12
0.0005720925085804445
1.329385334190938e-12
0.0005720925085397929
7.850381878344897e-13
0.0005720925084181105
7.877406830292956e-13
0.0005720925083602122
4.047457033740595e-13
0.0005720925082891441
5.297220586141042e-13
0.0005720925082434572
2.820341475942722e-13
0.0005720925081994208
2.372211129677273e-13
0.0005720925081632083
3.101867523967113e-13
0.000572092508132001
1.690870427722297e-13
0.0005720925081080476
1.075696173082873e-13
0.0005720925080847964
2.215204974080684e-13
0.0005720925080659266
8.126680710569911e-14
0.0005720925080501663
5.647950236724521e-14
0.0005720925080350702
1.701540480973115e-13
0.000572092508023573
3.926689579569369e-14
0.000572092508013782
1.542704821032491e-14
0.0005720925080029053
1.448449426673454e-13
0.0005720925079944406
1.396408341388592e-14
0.0005720925079885168
-4.457941840502936e-15
0.0005720925079803846
1.267136593652479e-13
0.0005720925079743262
7.288592779673152e-15
0.0005720925079692316
-1.265147548285292e-14
0.0005720925079638604
1.134097294245202e-13
0.0005720925079595105
-8.579192261700289e-15
0.0005720925079566593
-1.65310299816347e-14
0.0005720925079502194
1.102636769661498e-13
0.0005720925079487865
-2.930688254825037e-14
0.0005720925079469358
-4.239506666282243e-14
0.0005720925079458386
8.694657231929175e-14
0.0005720925079415897
-1.630206608143706e-14
0.0005720925079426577
-4.234546483929627e-14
0.0005720925079375652
1.028314771060186e-13
0.0005720925079411768
-4.736518289114984e-14
0.0005720925079388491
-4.631205771918663e-14
0.0005720925079420415
6.473459121617089e-14
0.0005720925079357047
-9.536440005290393e-15
0.0005720925079417076
-5.881884936379898e-14
0.0005720925079316945
1.256104914497678e-13
0.0005720925079400945
-5.674170656643884e-14
0.000572092507931805
-2.923884700869052e-14
0.0005720925079425935
3.425503909017308e-14
0.0005720925079303781
4.172411480440091e-15
0.0005720925079462778
-9.069751154030469e-14
0.000572092507928598
1.267013768888047e-13
0.000572092507946713
-7.519980943774296e-14
0.0005720925079303839
-3.542525101622651e-14
0.0005720925079492367
4.445514637456994e-14
0.0005720925079292984
7.335705343419403e-15
0.0005720925079488055
-6.456902026105881e-15
0.0005720925079330828
-1.539786472450819e-14
0.0005720925079453785
7.157426042868012e-14
0.0005720925079543884
-3.568552636027055e-13
0.0005720925079498672
3.089847063240658e-13
0.0005720925080148551
-8.884878467447258e-13
0.0005720925080097414
4.755866582863129e-13
-2.541732966834829e-12
0.0006566536695905119
-4.689091025645512e-12
0.0006566536699200598
8.98581911692178e-13
0.0006566536697514432
1.497990855266671e-12
0.000656653669723864
8.126177734015731e-13
0.0006566536696030266
9.085821805123586e-13
0.0006566536695420415
4.657229836446823e-13
0.0006566536694694166
6.023632074313395e-13
0.0006566536694202882
3.311647966894434e-13
0.0006566536693716206
2.8588885605737e-13
0.000656653669334157
3.476540895656337e-13
0.0006566536692998725
2.033693351282361e-13
0.0006566536692720678
1.35378057289097e-13
0.0006566536692484253
2.451603272192838e-13
0.0006566536692273399
1.023477227106166e-13
0.0006566536692084911
7.532083770919987e-14
0.0006566536691936249
1.850157109044576e-13
0.0006566536691803966
5.248992321443978e-14
0.0006566536691680218
2.779867630727492e-14
0.0006566536691578322
1.550256417715766e-13
0.0006566536691479936
2.382629791499881e-14
0.000656653669139874
3.63623707523316e-15
0.0006566536691327571
1.338283060851839e-13
0.0006566536691255657
1.447692130757798e-14
0.0006566536691184039
-5.491640977708832e-15
0.000656653669114337
1.17470855935195e-13
0.000656653669109071
-3.314007142080124e-15
0.0006566536691045486
-1.201211140914003e-14
0.0006566536690996731
1.151367245792351e-13
0.0006566536690975543
-2.719175657594023e-14
0.0006566536690937655
-3.86109371311492e-14
0.0006566536690941103
8.659806766909441e-14
0.0006566536690890227
-1.122336350018261e-14
0.0006566536690886437
-4.19524317042187e-14
0.000656653669085094
1.063796187672519e-13
0.000656653669088248
-5.051131998544358e-14
0.0006566536690839537
-4.200717299787214e-14
0.0006566536690891317
5.955175396596074e-14
0.0006566536690821158
-2.514738862854374e-15
0.0006566536690870483
-6.375494332218529e-14
0.0006566536690784873
1.341666372731333e-13
0.0006566536690868452
-6.51017712530357e-14
0.0006566536690763632
-1.876211412646261e-14
0.0006566536690894681
2.115006063609936e-14
0.0006566536690763059
1.73284704677966e-14
0.0006566536690913518
-1.057438370548997e-13
0.0006566536690748098
1.432442507085589e-13
0.0006566536690932562
-9.364093740382206e-14
0.0006566536690744685
-1.665872039768129e-14
0.0006566536690958954
2.30331255415675e-14
0.0006566536690756885
2.753628208625639e-14
0.0006566536690947427
-2.551522112967507e-14
0.0006566536690800782
-7.346256237664435e-16
0.0006566536690918223
5.982955780863373e-14
0.0006566536690982754
-3.633028834626185e-13
0.0006566536690965078
3.107554204702944e-13
0.0006566536691539841
-9.459644034825415e-13
0.000656653669169284
4.602819539559044e-13
-2.559882575054849e-12
0.0007794595367484577
-5.065203375695908e-12
0.0007794595371655792
4.814696185706987e-13
0.0007794595370219203
1.6416590680765e-12
0.0007794595370091483
8.254089151939989e-13
0.0007794595368886293
1.029112492193299e-12
0.0007794595368232057
5.31131277061435e-13
0.0007794595367470828
6.784678038281419e-13
0.0007794595366931497
3.850816291159636e-13
0.0007794595366381802
3.408460343214303e-13
0.0007794595365977515
3.880742674454426e-13
0.0007794595365591876
2.419384528606867e-13
0.0007794595365262581
1.683184119776873e-13
0.0007794595365009475
2.704742357748741e-13
0.0007794595364768744
1.264178729467293e-13
0.000779459536454013
9.817327878214648e-14
0.0007794595364385219
2.004972173743558e-13
0.0007794595364230718
6.793443346319272e-14
0.0007794595364074956
4.337690990999413e-14
0.0007794595363973177
1.652117420511282e-13
0.0007794595363857362
3.543923290198088e-14
0.0007794595363748992
1.445563991937295e-14
0.0007794595363683039
1.40424574859314e-13
0.0007794595363598448
2.29338750939217e-14
0.0007794595363502685
4.074304424812126e-15
0.000779459536347033
1.206822965033722e-13
0.0007794595363408474
2.844250569729753e-15
0.0007794595363344762
-5.658238150767552e-15
0.0007794595363308492
1.187494417405439e-13
0.000779459536328004
-2.435392795006031e-14
0.0007794595363219371
-3.255139014918299e-14
0.0007794595363234506
8.509899528365614e-14
0.0007794595363176067
-5.386627450551643e-15
0.0007794595363156218
-3.994552119880394e-14
0.000779459536313341
1.086721870035594e-13
0.0007794595363162035
-5.33485813059186e-14
0.0007794595363097345
-3.5525855888213e-14
0.0007794595363168407
5.245266211860695e-14
0.0007794595363092232
5.094068579733366e-15
0.00077945953631301
-6.754328772853602e-14
0.0007794595363056037
1.415676849829583e-13
0.0007794595363143029
-7.379969600735568e-14
0.0007794595363014369
-5.930103379228461e-15
0.0007794595363169113
5.649781873385601e-15
0.0007794595363028627
3.1350118832957e-14
0.0007794595363170188
-1.199198831752855e-13
0.0007794595363012674
1.58975103279629e-13
0.0007794595363204766
-1.128515624442182e-13
0.0007794595362992208
4.570997789753569e-15
0.0007794595363230636
-8.000670254747666e-16
0.0007794595363026903
4.790417159462826e-14
0.0007794595363208674
-4.369779991638561e-14
0.0007794595363078228
1.23020106425313e-14
0.0007794595363187592
4.888324276081915e-14
0.0007794595363235778
-3.68126046301782e-13
0.0007794595363240848
3.102472159204738e-13
0.0007794595363744823
-9.963568674648423e-13
0.0007794595364135056
4.212503988174918e-13
-2.518713515255174e-12
0.0009611287653594674
-5.414441854178485e-12
0.0009611287658739991
-3.308558187692077e-14
0.0009611287657641393
1.751505265750393e-12
0.0009611287657698301
8.197168770211853e-13
0.0009611287656512358
1.147708644402251e-12
0.0009611287655801784
6.021773915683759e-13
0.0009611287654985464
7.601201911198001e-13
0.0009611287654384357
4.451969358858886e-13
0.0009611287653751878
4.040933294426249e-13
0.0009611287653294689
4.33798350568389e-13
0.0009611287652852585
2.861452759342758e-13
0.0009611287652455074
2.080731911277138e-13
0.0009611287652166856
2.992923867512369e-13
0.0009611287651887022
1.543960622378757e-13
0.0009611287651605525
1.263145134471708e-13
0.0009611287651431674
2.178767167915452e-13
0.0009611287651248554
8.624007438746219e-14
0.0009611287651052105
6.301857554214718e-14
0.000961128765094049
1.763620045466982e-13
0.0009611287650802589
4.924393833862677e-14
0.0009611287650659438
2.875184064287872e-14
0.0009611287650591409
1.472247737973992e-13
0.0009611287650493085
3.276168706525323e-14
0.0009611287650369081
1.647120625451965e-14
0.0009611287650337937
1.237909091591467e-13
0.0009611287650266698
9.967516366619713e-15
0.0009611287650181487
2.859140055860667e-15
0.0009611287650152631
1.216316189927253e-13
0.0009611287650117085
-2.080353648854404e-14
0.0009611287650028325
-2.367972875081973e-14
0.0009611287650049426
8.298447562309215e-14
0.0009611287649987249
8.275846686981877e-16
0.0009611287649949066
-3.61180784564091e-14
0.0009611287649933585
1.102189818551523e-13
0.0009611287649961979
-5.617829825538851e-14
0.000961128764987263
-2.657913910489145e-14
0.0009611287649960104
4.369966902668307e-14
0.0009611287649881371
1.297563151291782e-14
0.0009611287649905751
-6.998480186753697e-14
0.0009611287649839102
1.482261052121445e-13
0.0009611287649934987
-8.339291813686342e-14
0.0009611287649780776
9.489301247272544e-15
0.0009611287649956705
-1.194394032572772e-14
0.000961128764981245
4.576812274761731e-14
0.0009611287649942369
-1.32912870783204e-13
0.0009611287649788484
1.743626247237182e-13
0.0009611287649991719
-1.331703037939497e-13
0.0009611287649757889
2.7938275343285e-14
0.000961128765001382
-2.639463043507086e-14
0.0009611287649817821
6.74959965201775e-14
0.0009611287649981786
-6.009921528871585e-14
0.0009611287649875627
2.291574935346347e-14
0.0009611287649969079
3.953741461657171e-14
0.0009611287650013954
-3.72608868582096e-13
0.0009611287650033449
3.082994328765686e-13
0.0009611287650459294
-1.038941009113792e-12
0.0009611287651141475
3.530318483710253e-13
-2.414913060247039e-12
0.001221507406895308
-5.726604273276359e-12
0.001221507407508411
-6.46191387500755e-13
0.001221507407450403
1.809517217344564e-12
0.001221507407480579
7.895583689044894e-13
0.001221507407370301
1.257998431747438e-12
0.001221507407294125
6.783385176679418e-13
0.001221507407206361
8.478732501163576e-13
0.001221507407139366
5.121784790429817e-13
0.001221507407066576
4.768709609288626e-13
0.001221507407013291
4.87078710168177e-13
0.001221507406962113
3.373250595528428e-13
0.001221507406914036
2.561617562570213e-13
0.001221507406879711
3.336192944519881e-13
0.001221507406846956
1.871460118419728e-13
0.001221507406812254
1.610052193540981e-13
0.001221507406791273
2.388477489341629e-13
0.001221507406769403
1.081027585414375e-13
0.001221507406744864
8.755941294284227e-14
0.00122150740673139
1.89839844554597e-13
0.001221507406714825
6.583084614335066e-14
0.0012215074066962
4.736548852351099e-14
0.001221507406688179
1.5524465499205e-13
0.001221507406676673
4.426366163349755e-14
0.001221507406661381
3.175223848775142e-14
0.001221507406657636
1.275117878441071e-13
0.001221507406649178