/*--------------------------------*- C++ -*----------------------------------*\
| =========                 |                                                 |
| \\      /  F ield         | OpenFOAM: The Open Source CFD Toolbox           |
|  \\    /   O peration     | Version:  v1812                                 |
|   \\  /    A nd           | Web:      www.OpenFOAM.com                      |
|    \\/     M anipulation  |                                                 |
\*---------------------------------------------------------------------------*/
FoamFile
{
    version     2.0;
    format      ascii;
    class       volVectorField;
    location    "20000";
    object      U;
}
// * * * * * * * * * * * * * * * * * * * * * * * * * * * * * * * * * * * * * //

dimensions      [0 1 -1 0 0 0 0];


internalField   nonuniform List<vector> 
3770
(
(-0.2943472888646229 -1.819828528453872e-11 -3.824498701751798e-06)
(-0.2943472887415 2.339311710266833e-11 -3.824467731827023e-06)
(-0.2943472893043761 -7.717006582754011e-12 -3.824462569910531e-06)
(-0.2943472891515816 7.438135113854762e-12 -3.82445832926933e-06)
(-0.2943472894231732 -1.044737475089716e-12 -3.824454218255933e-06)
(-0.2943472893373094 1.777078224630433e-12 -3.824450341848401e-06)
(-0.2943472894470137 8.857883526446015e-13 -3.824446747704612e-06)
(-0.2943472894783093 7.378407899439411e-13 -3.824443299363084e-06)
(-0.294347289477496 1.152771674720101e-13 -3.824440097534213e-06)
(-0.2943472895092717 1.219596583367025e-12 -3.824436956205074e-06)
(-0.2943472895612485 1.37234899646163e-13 -3.824434042761626e-06)
(-0.2943472895274673 2.002136008522904e-14 -3.824431109574578e-06)
(-0.2943472895649402 9.465358334244584e-13 -3.824428415445361e-06)
(-0.2943472895967434 -1.47087154881376e-13 -3.824425616010981e-06)
(-0.2943472895614098 -1.001835548290755e-13 -3.824423100067725e-06)
(-0.2943472895890357 9.012921804661934e-13 -3.824420377305714e-06)
(-0.2943472896263293 -6.97537092906824e-14 -3.824418018909669e-06)
(-0.2943472895836219 -2.448263176247704e-13 -3.824415323083882e-06)
(-0.2943472896140253 8.07418292212673e-13 -3.824413121232726e-06)
(-0.2943472896383072 -3.171040636192995e-13 -3.824410401553868e-06)
(-0.2943472895984123 -2.244443812448859e-13 -3.82440837306929e-06)
(-0.294347289619298 7.503276774444213e-13 -3.824405573273982e-06)
(-0.2943472896565065 -1.666782048618658e-13 -3.824403753899123e-06)
(-0.2943472896061977 -3.19299904767109e-13 -3.82440080357877e-06)
(-0.2943472896389072 8.364923321997655e-13 -3.824399255729247e-06)
(-0.2943472896578163 -2.797679523693117e-13 -3.824396059896761e-06)
(-0.2943472896271861 -1.712694234446053e-13 -3.82439487958694e-06)
(-0.2943472896392595 5.554958925742032e-13 -3.824391309101198e-06)
(-0.2943472896756014 -3.171878663206844e-13 -3.824390637841055e-06)
(-0.2943472896117643 -4.711734707333238e-13 -3.824386511400808e-06)
(-0.2943472896504616 8.274548076962229e-13 -3.824386557008655e-06)
(-0.2943472896580384 -4.74033315020848e-13 -3.824381616803518e-06)
(-0.2943472896341739 -1.885352206447705e-13 -3.824382679028762e-06)
(-0.2943472896294987 5.636756458148266e-13 -3.824376561156351e-06)
(-0.2943472896889418 -6.59272513258721e-14 -3.824379068035416e-06)
(-0.2943472896049289 -6.338161397816714e-13 -3.824371255994283e-06)
(-0.294347289667344 8.590862609318606e-13 -3.8243758191121e-06)
(-0.2943472896378822 -6.515817957365149e-13 -3.824365580299315e-06)
(-0.2943472896557264 9.775914825388445e-14 -3.82437306635896e-06)
(-0.2943472896050721 3.287847159773805e-13 -3.824359368709987e-06)
(-0.2943472897222675 3.39087870206279e-13 -3.82437099871666e-06)
(-0.2943472895753468 -1.075172654545234e-12 -3.824352392503009e-06)
(-0.2943472897124199 1.299512448574779e-12 -3.82436987971473e-06)
(-0.2943472895903606 -1.220965956793578e-12 -3.824344339581982e-06)
(-0.2943472897156764 7.675574936535082e-13 -3.824370068198199e-06)
(-0.2943472895374629 -7.270909769234159e-13 -3.824334789320687e-06)
(-0.2943472897941413 1.349080076529057e-12 -3.824372047976105e-06)
(-0.2943472894857895 -2.32526890425537e-12 -3.824323180832648e-06)
(-0.2943472898021192 2.658518815176843e-12 -3.824376459115661e-06)
(-0.2943472894710453 -2.744768774111634e-12 -3.824308784356019e-06)
(-0.2943472898475901 3.118874580954001e-12 -3.824384121552223e-06)
(-0.2943472894084069 -3.346815833749518e-12 -3.824290682651389e-06)
(-0.2943472899292944 4.08032340092491e-12 -3.824396043776065e-06)
(-0.2943472893403736 -5.680615961678403e-12 -3.824267787932504e-06)
(-0.2943472899218955 5.595233594148998e-12 -3.824413360584606e-06)
(-0.2943472893142131 -7.379493422738985e-12 -3.824239037751803e-06)
(-0.2943472898135841 3.963894393594469e-12 -3.824437032794383e-06)
(-0.2943472893027421 -9.648149207150249e-12 -3.824204537445108e-06)
(0.07595868457132331 -4.497753932944189e-11 -5.841344960062783e-06)
(0.0759586846769361 4.902003521839468e-11 -5.841348594556168e-06)
(0.07595868397987002 -2.869756862512746e-12 -5.841341712301664e-06)
(0.07595868413511979 1.334396140457303e-11 -5.841335052551965e-06)
(0.07595868383215246 1.963318986243576e-12 -5.841328711161963e-06)
(0.07595868390781176 3.528507195462896e-12 -5.841322701487196e-06)
(0.07595868378423996 3.527325198419272e-12 -5.841317138471693e-06)
(0.07595868375109605 1.773834443175974e-12 -5.841311804239898e-06)
(0.07595868374154993 8.520201500519184e-13 -5.841306861211193e-06)
(0.0759586837073372 3.009683867633524e-12 -5.841302013503082e-06)
(0.07595868365333369 6.43819013347633e-13 -5.841297528326649e-06)
(0.07595868368198126 2.371110065760324e-13 -5.841293010121405e-06)
(0.07595868364237551 2.327245205725495e-12 -5.841288872678764e-06)
(0.07595868361150779 -1.122817091256231e-13 -5.841284565961759e-06)
(0.07595868363858133 -1.047845940358193e-13 -5.841280710487526e-06)
(0.07595868361171407 2.102760328415653e-12 -5.841276524046416e-06)
(0.07595868357680571 -1.234595479666807e-13 -5.841272918364312e-06)
(0.07595868361538891 -4.268974279450999e-13 -5.841268772741406e-06)
(0.07595868358362315 1.893071387503502e-12 -5.841265415124296e-06)
(0.07595868356266448 -5.627074276743336e-13 -5.841261230000065e-06)
(0.07595868359509057 -4.6083956490989e-13 -5.841258147232164e-06)
(0.07595868357607048 1.760099055652726e-12 -5.841253832758101e-06)
(0.07595868354138906 -3.526690934635959e-13 -5.84125108266553e-06)
(0.0759586835871434 -6.189997195664886e-13 -5.841246526378054e-06)
(0.07595868355372143 1.813148523562184e-12 -5.841244208365285e-06)
(0.07595868354029903 -5.786449999155947e-13 -5.841239259472112e-06)
(0.07595868356497915 -3.985574708879891e-13 -5.8412375266016e-06)
(0.07595868355472908 1.427201784123067e-12 -5.841231978921387e-06)
(0.07595868351847175 -7.281678098771455e-13 -5.841231057493524e-06)
(0.07595868357942609 -9.670922011225658e-13 -5.841224621770105e-06)
(0.07595868353895578 1.731777767700435e-12 -5.841224843017245e-06)
(0.07595868353905744 -8.725784599872115e-13 -5.841217108915154e-06)
(0.07595868355230129 -5.466568120686108e-13 -5.841218950415155e-06)
(0.07595868356362802 1.418726034756758e-12 -5.841209337702313e-06)
(0.07595868350176813 -3.925998413970331e-13 -5.841213482188218e-06)
(0.07595868359004164 -1.187150542910834e-12 -5.841201167779382e-06)
(0.07595868351848159 1.692586610939112e-12 -5.841208589157209e-06)
(0.0759586835607233 -1.109325675823762e-12 -5.841192406953937e-06)
(0.07595868352664326 -1.924337613225258e-13 -5.841204484956159e-06)
(0.07595868359285504 1.180454508275862e-12 -5.841182791985034e-06)
(0.075958683462803 1.790273917255346e-13 -5.84120147008614e-06)
(0.07595868362749389 -1.7565262164915e-12 -5.841171960007794e-06)
(0.07595868346656864 2.164833205714775e-12 -5.84119996221938e-06)
(0.07595868361790517 -1.845997444191877e-12 -5.841159416285322e-06)
(0.07595868345699135 6.547059718876597e-13 -5.841200530410353e-06)
(0.07595868367369353 -3.174372585588179e-13 -5.841144494375673e-06)
(0.0759586833763312 1.519281284058197e-12 -5.841203940243398e-06)
(0.07595868373355297 -3.536552650513174e-12 -5.841126308322535e-06)
(0.07595868335749401 4.069526170985174e-12 -5.841211201142177e-06)
(0.07595868375613561 -3.890778777945705e-12 -5.841103708781696e-06)
(0.07595868330373072 4.298250727279957e-12 -5.841223602375284e-06)
(0.07595868382804775 -4.535870989836414e-12 -5.84107525749834e-06)
(0.07595868321607351 5.825876370638627e-12 -5.841242718540812e-06)
(0.0759586839053413 -9.404254716505799e-12 -5.841039266112913e-06)
(0.0759586832206635 8.930247660203482e-12 -5.841270286338941e-06)
(0.07595868393175285 -1.406997745841888e-11 -5.840994102642324e-06)
(0.07595868336313472 7.589377204789389e-12 -5.841307595099578e-06)
(0.07595868387550554 -3.301366284952963e-11 -5.840940268812628e-06)
(0.243703211270833 -7.074845748038297e-11 -6.758370285968111e-06)
(0.2437032116375178 6.520490657965136e-11 -6.758377825089089e-06)
(0.2437032108621876 5.213537238902356e-12 -6.758370078752012e-06)
(0.2437032110282512 1.886599568125925e-11 -6.758362329006944e-06)
(0.2437032107154465 6.102444494479162e-12 -6.758354986454856e-06)
(0.2437032107715411 5.498318796728097e-12 -6.758348022334779e-06)
(0.243703210645224 6.564527784480435e-12 -6.758341577951435e-06)
(0.2437032106135578 3.086270669921466e-12 -6.758335398576356e-06)
(0.243703210589932 1.834356280753259e-12 -6.758329673937512e-06)
(0.2437032105577665 4.911304122275962e-12 -6.758324059323883e-06)
(0.2437032105058067 1.384239636106993e-12 -6.758318866623618e-06)
(0.243703210522302 5.748741365402629e-13 -6.758313634212832e-06)
(0.2437032104861424 3.749119810815411e-12 -6.758308845463069e-06)
(0.2437032104586581 1.245472286865494e-13 -6.75830385839066e-06)
(0.2437032104724171 -3.502180994607097e-14 -6.758299397139352e-06)
(0.2437032104505868 3.284470214465304e-12 -6.758294549204063e-06)
(0.2437032104206211 -6.771090381584065e-14 -6.758290378552294e-06)
(0.2437032104488587 -5.554905058994584e-13 -6.75828557714163e-06)
(0.2437032104214757 2.94813838546592e-12 -6.758281695147227e-06)
(0.2437032104043576 -6.526399129017371e-13 -6.758276847016818e-06)
(0.2437032104240507 -6.79751620352608e-13 -6.758273284945427e-06)
(0.2437032104108636 2.734885879999926e-12 -6.75826828526788e-06)
(0.2437032103814917 -4.595273226155446e-13 -6.758265111069767e-06)
(0.2437032104169557 -8.889225036845369e-13 -6.75825982853255e-06)
(0.2437032103883312 2.720982106797464e-12 -6.758257158140032e-06)
(0.2437032103798832 -7.46408033693821e-13 -6.758251417162584e-06)
(0.2437032103948888 -6.482025608523139e-13 -6.758249429134982e-06)
(0.2437032103897633 2.291738781320961e-12 -6.758242989024271e-06)
(0.2437032103560268 -1.048430171514544e-12 -6.758241947769425e-06)
(0.2437032104056181 -1.414367064077233e-12 -6.758234470859981e-06)
(0.2437032103696189 2.503609140257576e-12 -6.758234762858658e-06)
(0.2437032103770726 -1.106759087135869e-12 -6.758225770689469e-06)
(0.2437032103765807 -9.587288656233821e-13 -6.758227953085361e-06)
(0.2437032103955405 2.27240937146541e-12 -6.758216768434459e-06)
(0.2437032103369739 -7.624475268228126e-13 -6.758221638263952e-06)
(0.2437032104186758 -1.653605934145186e-12 -6.758207300563742e-06)
(0.2437032103482478 2.356186510623878e-12 -6.758215994093988e-06)
(0.2437032103985947 -1.30978474478216e-12 -6.758197143019472e-06)
(0.2437032103486995 -6.59967207024699e-13 -6.758211270007542e-06)
(0.2437032104262475 2.151533327528905e-12 -6.758185988442913e-06)
(0.243703210296093 -2.008699193470543e-13 -6.758207816779548e-06)
(0.2437032104599752 -2.157153539973675e-12 -6.758173413710758e-06)
(0.2437032102939522 2.668216312313461e-12 -6.758206121303492e-06)
(0.2437032104585927 -1.992009432171722e-12 -6.758158841876079e-06)
(0.2437032102762376 5.113261899271011e-14 -6.75820684748897e-06)
(0.243703210510852 5.915560597629467e-13 -6.758141495455887e-06)
(0.2437032102046209 1.084988942398288e-12 -6.758210888316958e-06)
(0.2437032105711586 -4.015322902756633e-12 -6.758120341518547e-06)
(0.2437032101776543 4.670276106148111e-12 -6.758219420392304e-06)
(0.2437032105975624 -3.979898764132853e-12 -6.758094040294498e-06)
(0.2437032101200427 4.263354285422217e-12 -6.758233946670709e-06)
(0.2437032106714283 -4.555082937452494e-12 -6.758060915608287e-06)
(0.2437032100406455 6.264498192469651e-12 -6.758256301468042e-06)
(0.2437032107453117 -1.176544879821487e-11 -6.758019001468166e-06)
(0.243703210045184 1.092034243635847e-11 -6.758288504082664e-06)
(0.2437032107645321 -1.969649178275329e-11 -6.757966397156395e-06)
(0.2437032102004207 1.148994203568806e-11 -6.758331956748932e-06)
(0.2437032106697106 -5.510890594782184e-11 -6.757903652935903e-06)
(0.3413960285361859 -9.51730146710286e-11 -7.293341905513405e-06)
(0.3413960291661529 7.5077010245536e-11 -7.293348290129941e-06)
(0.3413960283706434 1.528724508158512e-11 -7.293339915515195e-06)
(0.3413960285465749 2.323861799701855e-11 -7.293331544605017e-06)
(0.3413960282320501 1.092754610379669e-11 -7.293323647801153e-06)
(0.3413960282734019 7.508550688150103e-12 -7.293316160738212e-06)
(0.3413960281471055 9.657401421991305e-12 -7.293309232374398e-06)
(0.3413960281147444 4.48360467943163e-12 -7.293302586982617e-06)
(0.3413960280804214 3.04569776101445e-12 -7.29329642832766e-06)
(0.341396028049938 6.662682003225088e-12 -7.293290386046284e-06)
(0.3413960279987682 2.213749396220504e-12 -7.293284795814466e-06)
(0.3413960280058413 1.051593478136391e-12 -7.293279161320371e-06)
(0.3413960279726436 5.036317648119014e-12 -7.293274002948479e-06)
(0.3413960279465042 5.019361121773345e-13 -7.293268630268036e-06)
(0.341396027951138 1.89334886698267e-13 -7.293263822317447e-06)
(0.3413960279332491 4.283440996408275e-12 -7.293258597874153e-06)
(0.3413960279053908 5.455437806470657e-14 -7.293254101427925e-06)
(0.3413960279257779 -5.435242760969993e-13 -7.29324892597603e-06)
(0.3413960279023557 3.821972481526769e-12 -7.293244739261691e-06)
(0.3413960278869161 -6.292776080853171e-13 -7.293239512971937e-06)
(0.3413960278981015 -7.672701143011881e-13 -7.293235669773292e-06)
(0.3413960278896518 3.519356676204642e-12 -7.293230280021865e-06)
(0.3413960278626739 -4.977749675519471e-13 -7.293226853797339e-06)
(0.3413960278905375 -1.014463208518929e-12 -7.29322115933638e-06)
(0.3413960278661989 3.420981835582343e-12 -7.293218274854412e-06)
(0.3413960278603458 -8.441697789147721e-13 -7.293212087048839e-06)
(0.3413960278683608 -8.006012535282276e-13 -7.293209936415445e-06)
(0.3413960278677763 3.004934677305846e-12 -7.293202996282078e-06)
(0.3413960278349553 -1.276959300089269e-12 -7.293201864207821e-06)
(0.3413960278769756 -1.694167871800055e-12 -7.293193808348066e-06)
(0.3413960278447629 3.051125986750796e-12 -7.293194110714242e-06)
(0.3413960278561795 -1.231143878947697e-12 -7.293184424469368e-06)
(0.3413960278464045 -1.263008358411111e-12 -7.293186760767825e-06)
(0.3413960278715261 2.962631329742205e-12 -7.293174715245728e-06)
(0.3413960278141372 -1.128612623094828e-12 -7.293179943506577e-06)
(0.3413960278911078 -1.945197061708165e-12 -7.293164504741459e-06)
(0.3413960278225199 2.791564349980265e-12 -7.293173847973036e-06)
(0.3413960278778881 -1.35108306909072e-12 -7.293153551817968e-06)
(0.3413960278168032 -1.093835882229648e-12 -7.293168742896702e-06)
(0.3413960279032727 3.011577809994342e-12 -7.293141525289109e-06)
(0.3413960277716866 -6.71903986572995e-13 -7.293165006276651e-06)
(0.3413960279341443 -2.295587974068407e-12 -7.293127969385445e-06)
(0.3413960277657507 2.860652942267849e-12 -7.293163162593832e-06)
(0.3413960279398179 -1.868845182296432e-12 -7.293112262408433e-06)
(0.3413960277422395 -6.702485868510555e-13 -7.293163927654426e-06)
(0.3413960279903475 1.593616535059895e-12 -7.293093565887426e-06)
(0.3413960276769523 3.547054534906017e-13 -7.293168264712068e-06)
(0.3413960280491353 -4.010872483376176e-12 -7.293070765432926e-06)
(0.3413960276460825 4.738293175577735e-12 -7.293177443604105e-06)
(0.3413960280807943 -3.525165673524787e-12 -7.293042414308352e-06)
(0.341396027584741 3.711072212538528e-12 -7.293193088545617e-06)
(0.3413960281532631 -4.062181076661571e-12 -7.29300669957809e-06)
(0.341396027511754 5.983028404029392e-12 -7.293217185821842e-06)
(0.3413960282230712 -1.322017483284853e-11 -7.292961488190507e-06)
(0.341396027516489 1.204175633848901e-11 -7.293251934379311e-06)
(0.3413960282373429 -2.439482679172797e-11 -7.29290468775386e-06)
(0.3413960276712794 1.466603651961732e-11 -7.293298909532189e-06)
(0.341396028136118 -7.427840106467291e-11 -7.292836543142509e-06)
(0.4130581805907391 -1.2046810749236e-10 -7.685592905304057e-06)
(0.4130581814349385 7.954438677366818e-11 -7.685597990682335e-06)
(0.4130581806543943 2.664443028273432e-11 -7.685589069724045e-06)
(0.4130581808400137 2.717148150762014e-11 -7.685580261959652e-06)
(0.4130581805315152 1.64726371401787e-11 -7.685571993701829e-06)
(0.4130581805614937 9.781103555321842e-12 -7.68556416111776e-06)
(0.4130581804367029 1.296926609737958e-11 -7.685556911540504e-06)
(0.4130581804042501 6.126210978778679e-12 -7.685549954456781e-06)
(0.4130581803613572 4.518116246937494e-12 -7.685543501963553e-06)
(0.4130581803319827 8.443200220164971e-12 -7.68553716796226e-06)
(0.4130581802824469 3.240122017668603e-12 -7.685531303164963e-06)
(0.4130581802814427 1.684743559977474e-12 -7.685525389996017e-06)
(0.4130581802504859 6.305883138764248e-12 -7.685519972106059e-06)
(0.4130581802259999 1.046571108835278e-12 -7.685514329192333e-06)
(0.4130581802232448 5.385396940000186e-13 -7.685509274525154e-06)
(0.4130581802081043 5.218867662559375e-12 -7.685503784381801e-06)
(0.413058180182374 2.870055515340918e-13 -7.685499053354565e-06)
(0.4130581801955095 -4.363071829438969e-13 -7.685493613040643e-06)
(0.4130581801752095 4.619759334445927e-12 -7.685489204323167e-06)
(0.4130581801619292 -4.844639878135338e-13 -7.685483710222389e-06)
(0.4130581801662563 -7.777886275588393e-13 -7.685479659377902e-06)
(0.4130581801612246 4.210212579267316e-12 -7.685473994155766e-06)
(0.4130581801366311 -4.541729342227003e-13 -7.685470378251252e-06)
(0.4130581801576865 -1.066983286746456e-12 -7.685464394556838e-06)
(0.4130581801367498 4.02233544815661e-12 -7.68546134395631e-06)
(0.4130581801335416 -8.606521985673487e-13 -7.68545484509742e-06)
(0.4130581801352983 -9.101624016116849e-13 -7.685452560432522e-06)
(0.413058180138235 3.650571038450668e-12 -7.685445275994941e-06)
(0.4130581801071856 -1.404168140028166e-12 -7.685444054780195e-06)
(0.4130581801428061 -1.890488633336596e-12 -7.685435605233608e-06)
(0.4130581801135187 3.462408458015967e-12 -7.685435881828934e-06)
(0.4130581801281626 -1.256070475286482e-12 -7.685425729794747e-06)
(0.4130581801111155 -1.524189764230246e-12 -7.685428130379869e-06)
(0.413058180140573 3.557120511608967e-12 -7.685415514369377e-06)
(0.4130581800850591 -1.45601934005725e-12 -7.685420935547793e-06)
(0.4130581801565945 -2.147441607362616e-12 -7.685404775146361e-06)
(0.4130581800900693 3.067573216069643e-12 -7.685414494905343e-06)
(0.4130581801498028 -1.263843628251933e-12 -7.685393260071912e-06)
(0.413058180080371 -1.526961099329792e-12 -7.685409089651296e-06)
(0.4130581801727871 3.81047774489476e-12 -7.685380622549651e-06)
(0.4130581800416337 -1.174182484792413e-12 -7.685405115449935e-06)
(0.4130581802003094 -2.290281884246126e-12 -7.685366385584566e-06)
(0.4130581800318076 2.85234613016983e-12 -7.685403121359995e-06)
(0.4130581802126233 -1.545711135358534e-12 -7.685349898077475e-06)
(0.413058180004963 -1.485407705677038e-12 -7.685403857572515e-06)
(0.4130581802609976 2.639070414167728e-12 -7.685330280902861e-06)
(0.4130581799453687 -5.179045885316278e-13 -7.685408334532011e-06)
(0.4130581803165259 -3.732320477735198e-12 -7.685306364498009e-06)
(0.4130581799109877 4.492058506178046e-12 -7.685417885908398e-06)
(0.4130581803546713 -2.769138884658812e-12 -7.68527662799977e-06)
(0.4130581798485705 2.878581363149799e-12 -7.685434221359944e-06)
(0.4130581804236143 -3.351184368620773e-12 -7.685239160185003e-06)
(0.4130581797811451 5.420025008095754e-12 -7.685459439320356e-06)
(0.4130581804884068 -1.432229217144399e-11 -7.685191699688116e-06)
(0.4130581797839945 1.284413644046067e-11 -7.685495886582201e-06)
(0.4130581805012526 -2.882754437105549e-11 -7.685131975513129e-06)
(0.4130581799306239 1.756524653541777e-11 -7.685545370551967e-06)
(0.4130581804153489 -9.065387316882803e-11 -7.685059710023327e-06)
(0.4704431214727623 -1.447382015740635e-10 -7.998927609006411e-06)
(0.4704431224846468 7.852890410747299e-11 -7.998931513464544e-06)
(0.4704431217380108 3.771650997080546e-11 -7.998922112808277e-06)
(0.4704431219336652 3.052650712737493e-11 -7.998912981397809e-06)
(0.4704431216363159 2.220111967362967e-11 -7.998904454393826e-06)
(0.4704431216575423 1.219928641722541e-11 -7.998896385020613e-06)
(0.4704431215350566 1.628922919820264e-11 -7.998888913318044e-06)
(0.4704431215033547 7.934966055213958e-12 -7.998881737784466e-06)
(0.470443121453629 6.161634605689787e-12 -7.998875075408679e-06)
(0.4704431214248234 1.017235796144573e-11 -7.998868530552115e-06)
(0.4704431213775027 4.406875627048232e-12 -7.998862463662566e-06)
(0.4704431213694642 2.449958803665754e-12 -7.998856344247634e-06)
(0.4704431213400738 7.498077623762624e-12 -7.998850730811408e-06)
(0.4704431213176153 1.707574267975078e-12 -7.99884488467941e-06)
(0.4704431213085213 9.907256137977436e-13 -7.998839640660312e-06)
(0.4704431212951857 6.063150731039201e-12 -7.998833948715194e-06)
(0.470443121271874 6.213270829207773e-13 -7.998829034828924e-06)
(0.4704431212784135 -2.369682507630329e-13 -7.99882339235382e-06)
(0.4704431212603971 5.313719482109619e-12 -7.99881880796051e-06)
(0.470443121249665 -2.451572740454628e-13 -7.998813109336537e-06)
(0.470443121248075 -7.150046481485561e-13 -7.998808891385417e-06)
(0.4704431212454165 4.789930238796787e-12 -7.998803016509059e-06)
(0.4704431212234959 -3.228513969052447e-13 -7.998799244544589e-06)
(0.4704431212384875 -1.041760364615625e-12 -7.998793042350741e-06)
(0.4704431212200929 4.500947583106065e-12 -7.998789850362582e-06)
(0.4704431212196463 -8.000339773181186e-13 -7.998783119186188e-06)
(0.4704431212154899 -9.615228195442377e-13 -7.9987807132719e-06)
(0.4704431212211001 4.19065805993268e-12 -7.998773175487986e-06)
(0.4704431211927036 -1.446421245477929e-12 -7.998771861383135e-06)
(0.4704431212225677 -2.007833966515055e-12 -7.998763127225351e-06)
(0.4704431211954627 3.744174497032542e-12 -7.998763351082955e-06)
(0.4704431212131312 -1.194303166495977e-12 -7.998752868709021e-06)
(0.470443121190035 -1.729966867631566e-12 -7.998755273829803e-06)
(0.4704431212224559 4.032787079422693e-12 -7.998742260811431e-06)
(0.470443121169523 -1.724895012955317e-12 -7.998747768687037e-06)
(0.4704431212353503 -2.264013301847826e-12 -7.998731114612397e-06)
(0.4704431211706797 3.200072502237042e-12 -7.998741038848979e-06)
(0.4704431212344612 -1.083377623483724e-12 -7.998719170873083e-06)
(0.4704431211584848 -1.925883221542648e-12 -7.99873537386601e-06)
(0.4704431212547415 4.502632432883728e-12 -7.998706072674044e-06)
(0.4704431211255243 -1.636617178265718e-12 -7.998731181322042e-06)
(0.4704431212793831 -2.167908062666797e-12 -7.998691328657395e-06)
(0.4704431211117238 2.669986980254523e-12 -7.998729027075204e-06)
(0.4704431212974466 -1.113039597500307e-12 -7.998674267463956e-06)
(0.4704431210830348 -2.305784627309429e-12 -7.998729685311091e-06)
(0.4704431213432326 3.629073640578595e-12 -7.998653981341231e-06)
(0.4704431210287622 -1.397395546560239e-12 -7.998734200107876e-06)
(0.4704431213951122 -3.292797665265156e-12 -7.998629260895398e-06)
(0.4704431209905481 4.007866326139102e-12 -7.998743951961437e-06)
(0.4704431214390972 -1.886627036878631e-12 -7.998598529917889e-06)
(0.4704431209293315 1.983654650319216e-12 -7.998760715779938e-06)
(0.4704431215046666 -2.590980609890257e-12 -7.998559800201784e-06)
(0.4704431208665927 4.790330330820647e-12 -7.998786680794937e-06)
(0.4704431215639211 -1.518071209409581e-11 -7.998510701651192e-06)
(0.4704431208656491 1.344761569107557e-11 -7.998824327857996e-06)
(0.4704431215782251 -3.283464326115691e-11 -7.998448784263029e-06)
(0.4704431209991646 1.985448724576679e-11 -7.998875741595957e-06)
(0.470443121520036 -1.02807504980581e-10 -7.998373122667066e-06)
(0.5189449682854921 -1.674011997777367e-10 -8.262597508200598e-06)
(0.5189449694249887 7.285892783287308e-11 -8.262600594874662e-06)
(0.5189449687228985 4.79985894232845e-11 -8.262590784837182e-06)
(0.5189449689287129 3.329065660119341e-11 -8.262581414562301e-06)
(0.5189449686460171 2.793131071391444e-11 -8.262572710587569e-06)
(0.5189449686608683 1.472620761917047e-11 -8.262564481956244e-06)
(0.518944968541301 1.95821734646937e-11 -8.262556858022174e-06)
(0.5189449685110299 9.869768662085036e-12 -8.262549529163561e-06)
(0.5189449684559728 7.956366646021357e-12 -8.262542714987667e-06)
(0.5189449684273736 1.185787174062216e-11 -8.262536014768131e-06)
(0.5189449683825968 5.685867832016632e-12 -8.262529795050536e-06)
(0.5189449683684864 3.345049138194124e-12 -8.262523518353707e-06)
(0.5189449683401263 8.623281920959926e-12 -8.262517752177084e-06)
(0.5189449683198937 2.458462332870755e-12 -8.262511747592944e-06)
(0.5189449683053798 1.547493920075097e-12 -8.262506352069842e-06)
(0.5189449682931214 6.830546441090565e-12 -8.262500500638611e-06)
(0.518944968272358 1.041663485027211e-12 -8.262495437564355e-06)
(0.518944968273179 6.085735477944202e-14 -8.26248963422889e-06)
(0.5189449682567204 5.91434889701228e-12 -8.262484903899419e-06)
(0.5189449682485764 6.266824477722509e-14 -8.26247904234014e-06)
(0.5189449682418675 -5.735413209129129e-13 -8.262474682864384e-06)
(0.5189449682407566 5.273340450564476e-12 -8.262468641610659e-06)
(0.5189449682216463 -1.212363374325551e-13 -8.262464734246135e-06)
(0.518944968231276 -9.348191446932851e-13 -8.262458360218844e-06)
(0.5189449682147166 4.870863430720948e-12 -8.2624550412254e-06)
(0.5189449682170484 -6.748663138184185e-13 -8.262448129958266e-06)
(0.5189449682075779 -9.421941866419015e-13 -8.262445608779424e-06)
(0.5189449682151329 4.624791133721489e-12 -8.262437878399191e-06)
(0.5189449681898165 -1.433514372756368e-12 -8.262436465794037e-06)
(0.5189449682145141 -2.045345766461579e-12 -8.262427520427691e-06)
(0.5189449681889869 3.919430901168864e-12 -8.262427669690843e-06)
(0.5189449682094642 -1.068151917824306e-12 -8.262416948789847e-06)
(0.5189449681813431 -1.873592685711698e-12 -8.262419313684404e-06)
(0.5189449682156758 4.401193409969361e-12 -8.262406022004748e-06)
(0.5189449681657251 -1.941131582391241e-12 -8.262411539392709e-06)
(0.5189449682262084 -2.289099621583965e-12 -8.262394547964678e-06)
(0.5189449681630435 3.204989947318347e-12 -8.262404553634824e-06)
(0.5189449682302918 -8.45711279650554e-13 -8.262382262815333e-06)
(0.5189449681492189 -2.27824057502005e-12 -8.262398651483765e-06)
(0.5189449682477401 5.09215403229163e-12 -8.262368802821617e-06)
(0.518944968121453 -2.057944862903396e-12 -8.2623942485152e-06)
(0.5189449682701541 -1.93632031029693e-12 -8.262353666949439e-06)
(0.5189449681038675 2.343591318175507e-12 -8.262391922105287e-06)
(0.5189449682929583 -6.160085088552458e-13 -8.262336169771128e-06)
(0.5189449680739993 -3.100579290740458e-12 -8.262392463421829e-06)
(0.5189449683356668 4.546147910043951e-12 -8.262315382986552e-06)
(0.5189449680248657 -2.251357533940483e-12 -8.262396941150357e-06)
(0.5189449683845961 -2.715528172691544e-12 -8.262290067526066e-06)
(0.5189449679830701 3.338717271714589e-12 -8.262406771478317e-06)
(0.5189449684331749 -9.699474075071663e-13 -8.262258603963511e-06)
(0.5189449679239031 1.074537793612099e-12 -8.262423781727476e-06)
(0.5189449684955822 -1.827347446142495e-12 -8.262218940341383e-06)
(0.5189449678653066 4.173931555603871e-12 -8.262450239193845e-06)
(0.5189449685499337 -1.583863761647389e-11 -8.262168608696874e-06)
(0.5189449678594207 1.388020263147941e-11 -8.262488752713507e-06)
(0.5189449685676427 -3.642202999203232e-11 -8.26210497554766e-06)
(0.5189449679759934 2.137287161768544e-11 -8.26254171604123e-06)
(0.5189449685438131 -1.111398115787062e-10 -8.262026400891057e-06)
(0.5617687890728121 -1.883719303145696e-10 -8.493965965965475e-06)
(0.5617687903060892 6.316041016481423e-11 -8.493968889727478e-06)
(0.5617687896546374 5.734417257992639e-11 -8.493958747601852e-06)
(0.5617687898706105 3.54689515400619e-11 -8.493949210498745e-06)
(0.5617687896051613 3.36126563924523e-11 -8.493940395465556e-06)
(0.5617687896158498 1.735650965126285e-11 -8.493932068388774e-06)
(0.5617687894997937 2.286747852601991e-11 -8.493924346153025e-06)
(0.5617687894714628 1.192301741181113e-11 -8.493916913519373e-06)
(0.5617687894124644 9.910353648016255e-12 -8.493909991167743e-06)
(0.5617687893838617 1.352944579216018e-11 -8.493903176798668e-06)
(0.5617687893417488 7.072569679123568e-12 -8.493896840369565e-06)
(0.561768789322511 4.378033138504504e-12 -8.493890442005732e-06)
(0.5617687892947696 9.708662208574929e-12 -8.493884553781609e-06)
(0.5617687892767752 3.292553452956833e-12 -8.493878422750751e-06)
(0.5617687892577234 2.217224327173229e-12 -8.493872902307333e-06)
(0.5617687892459875 7.544026765317287e-12 -8.493866921257708e-06)
(0.5617687892277293 1.537295035319526e-12 -8.493861732171163e-06)
(0.5617687892237189 4.610303418016885e-13 -8.493855796886437e-06)
(0.5617687892082389 6.44365410707964e-12 -8.493850940649006e-06)
(0.5617687892025438 4.299529546499307e-13 -8.493844945154953e-06)
(0.5617687891914864 -3.467265543974001e-13 -8.493840460910253e-06)
(0.5617687891912586 5.678958982882386e-12 -8.493834283476621e-06)
(0.5617687891749269 1.3793656995379e-13 -8.493830253645483e-06)
(0.5617687891799121 -7.430494786130012e-13 -8.493823740497549e-06)
(0.5617687891646012 5.151091665861213e-12 -8.493820302606018e-06)
(0.5617687891695812 -4.945254570817937e-13 -8.493813248140767e-06)
(0.5617687891556684 -8.462000962784068e-13 -8.493810613386068e-06)
(0.5617687891645529 4.962384466854148e-12 -8.493802733743611e-06)
(0.5617687891423361 -1.385058303606088e-12 -8.493801215493511e-06)
(0.5617687891624471 -2.001614254948226e-12 -8.493792111829518e-06)
(0.5617687891380115 4.00811518171395e-12 -8.493792167014583e-06)
(0.561768789161001 -8.925751062188766e-13 -8.493781274431161e-06)