/*--------------------------------*- C++ -*----------------------------------*\
| =========                 |                                                 |
| \\      /  F ield         | OpenFOAM: The Open Source CFD Toolbox           |
|  \\    /   O peration     | Version:  v1812                                 |
|   \\  /    A nd           | Web:      www.OpenFOAM.com                      |
|    \\/     M anipulation  |                                                 |
\*---------------------------------------------------------------------------*/
FoamFile
{
    version     2.0;
    format      ascii;
    class       volVectorField;
    location    "20000";
    object      wallShearStress;
}
// * * * * * * * * * * * * * * * * * * * * * * * * * * * * * * * * * * * * * //

dimensions      [0 2 -2 0 0 0 0];


internalField   uniform (0 0 0);

boundaryField
{
    inlet
    {
        type            cyclic;
    }
    outlet
    {
        type            cyclic;
    }
    bottomWall
    {
        type            calculated;
        value           nonuniform List<vector> 
58
(
(-0.01393564779348595 5.599718157645625e-13 7.552846613240772e-08)
(-0.01393564779609459 -6.792723614323427e-13 7.552785452097205e-08)
(-0.01393564778414071 1.441734091303088e-13 7.552775257587694e-08)
(-0.01393564778738897 -2.12956452559011e-13 7.552766883040648e-08)
(-0.01393564778162123 7.76050465976655e-16 7.552758764150224e-08)
(-0.0139356477834455 -5.022461434483126e-14 7.552751108859779e-08)
(-0.01393564778111615 -4.361945385042677e-14 7.552744010843788e-08)
(-0.0139356477804519 -2.381601563598041e-14 7.552737200829573e-08)
(-0.01393564778046944 -7.492098715813626e-15 7.552730877668882e-08)
(-0.01393564777979483 -4.416897717639363e-14 7.552724673960535e-08)
(-0.01393564777869126 -6.232638363770242e-15 7.552718920278164e-08)
(-0.01393564777940876 -1.058587288572037e-15 7.552713127673675e-08)
(-0.01393564777861312 -3.48951728000001e-14 7.552707807117665e-08)
(-0.01393564777793783 4.38117452224107e-15 7.552702278603317e-08)
(-0.01393564777868832 3.747427267898502e-15 7.552697309997836e-08)
(-0.01393564777810168 -3.307677899169073e-14 7.552691932903976e-08)
(-0.0139356477773098 2.61599251461158e-15 7.552687275373863e-08)
(-0.01393564777821678 8.217650636017217e-15 7.552681951531607e-08)
(-0.0139356477775712 -2.91318368095331e-14 7.552677603161138e-08)
(-0.01393564777705556 1.05971300309548e-14 7.552672232158748e-08)
(-0.01393564777790287 8.646100932191597e-15 7.552668226219198e-08)
(-0.01393564777745931 -2.811922132236969e-14 7.552662697000821e-08)
(-0.01393564777666924 6.274533397962921e-15 7.552659103961751e-08)
(-0.01393564777773759 1.094084895583501e-14 7.552653277534639e-08)
(-0.01393564777704306 -2.945596613739938e-14 7.552650220723491e-08)
(-0.01393564777664145 9.053812788701213e-15 7.552643909389016e-08)
(-0.01393564777729204 7.180789746171143e-15 7.5526415784678e-08)
(-0.01393564777703554 -2.159583849367906e-14 7.552634527251355e-08)
(-0.01393564777626392 1.230964258875553e-14 7.552633201577933e-08)
(-0.01393564777761946 1.602529045777106e-14 7.552625052490423e-08)
(-0.01393564777679779 -2.844873342037007e-14 7.552625142528493e-08)
(-0.01393564777663674 1.482641732569819e-14 7.552615386312644e-08)
(-0.01393564777714375 9.07237601512757e-15 7.552617484077105e-08)
(-0.01393564777724279 -2.272562506654552e-14 7.552605402143972e-08)
(-0.0139356477759807 5.272493493664922e-15 7.552610352829636e-08)
(-0.01393564777776451 1.979807332838893e-14 7.55259492521531e-08)
(-0.01393564777643942 -2.736425480351145e-14 7.5526039366807e-08)
(-0.01393564777706464 1.882933506388642e-14 7.552583716490235e-08)
(-0.01393564777668624 2.148500083410122e-15 7.552598500390023e-08)
(-0.01393564777776132 -1.823523521794884e-14 7.552571449501924e-08)
(-0.01393564777527325 -4.650055081252302e-15 7.5525944170342e-08)
(-0.01393564777839246 2.972831809515213e-14 7.55255767249891e-08)
(-0.01393564777548256 -3.637911645980455e-14 7.552592207170783e-08)
(-0.01393564777807344 3.168107579490245e-14 7.55254176910135e-08)
(-0.01393564777541357 -1.259689219119676e-14 7.552592579396495e-08)
(-0.01393564777919654 7.851227829699183e-15 7.552522908721941e-08)
(-0.01393564777374755 -2.808544047340845e-14 7.552596489116323e-08)
(-0.01393564778029357 6.00793902915147e-14 7.552499983633434e-08)
(-0.01393564777357845 -6.788039763107458e-14 7.552605200489658e-08)
(-0.01393564778060636 6.572872960091157e-14 7.552471552630306e-08)
(-0.0139356477726132 -7.310842362882808e-14 7.552620332686894e-08)
(-0.01393564778193609 7.636611229595403e-14 7.552435804361783e-08)
(-0.01393564777087849 -9.764821157615258e-14 7.552643877335384e-08)
(-0.01393564778338036 1.506438745796659e-13 7.552390590569077e-08)
(-0.01393564777103568 -1.435651576351193e-13 7.552678075600727e-08)
(-0.01393564778393499 2.099030316211697e-13 7.552333813029928e-08)
(-0.01393564777333469 -1.027240001838305e-13 7.552724824969803e-08)
(-0.01393564778417405 3.906420901491077e-13 7.552265679789537e-08)
)
;
    }
    topWall
    {
        type            calculated;
        value           nonuniform List<vector> 
58
(
(-0.002064046111263516 -6.659580213041276e-13 3.381295138192436e-08)
(-0.002064046128543678 -1.436532499482188e-13 3.381132473164497e-08)
(-0.002064046124786007 1.268714889015318e-13 3.381234375523304e-08)
(-0.00206404612323238 8.281682289028727e-14 3.381188648803593e-08)
(-0.002064046119707339 6.501509039370091e-14 3.381283659852568e-08)
(-0.002064046120251048 5.484617021091035e-14 3.381223961664015e-08)
(-0.002064046116813665 4.507300095102683e-14 3.381314634831656e-08)
(-0.002064046117885941 1.846292343377883e-14 3.381245363369817e-08)
(-0.002064046115491966 9.548689597867813e-15 3.381335253811372e-08)
(-0.002064046118257805 3.783293173713855e-15 3.381258571786423e-08)
(-0.00206404611493357 1.956140348979473e-14 3.381349411774453e-08)
(-0.002064046116804167 1.43196124339663e-14 3.381266354112215e-08)
(-0.002064046114570999 1.957949553480861e-15 3.381359211091409e-08)
(-0.00206404611664716 9.320718040135258e-15 3.38127038542515e-08)
(-0.002064046114050712 -6.878928123873227e-15 3.381366013618748e-08)
(-0.002064046117580035 -8.174299589488312e-15 3.3812717957077e-08)
(-0.002064046113907678 1.685165901533474e-14 3.381370762499239e-08)
(-0.002064046117537761 -1.172473531179857e-14 3.381271370001502e-08)
(-0.002064046114232821 -4.439485376297876e-15 3.381374116678146e-08)
(-0.002064046117315551 2.858178907434332e-15 3.381269666578016e-08)
(-0.002064046113878076 1.347797736719441e-14 3.381376536048085e-08)
(-0.002064046117291565 -3.560107161932366e-15 3.38126707812325e-08)
(-0.002064046114298386 -1.149141988052384e-14 3.381378346206904e-08)
(-0.002064046118024417 -1.187032570579619e-14 3.381263884817362e-08)
(-0.002064046114874517 7.668843685408674e-15 3.381379769119882e-08)
(-0.002064046117647757 6.400271121280281e-15 3.381260283431935e-08)
(-0.002064046113126542 8.792993062817914e-15 3.381380952839065e-08)
(-0.0020640461174757 -1.231356979505733e-15 3.381256423034287e-08)
(-0.002064046112827489 1.47897621007864e-14 3.381382003756038e-08)
(-0.002064046117381758 -8.650832331761744e-15 3.381252412882287e-08)
(-0.002064046113676603 -5.402048512238308e-15 3.381382981176023e-08)
(-0.002064046117894256 -7.653488896105516e-15 3.381248342925162e-08)
(-0.002064046113473769 1.465856804699797e-14 3.381383908290107e-08)
(-0.002064046117460682 -4.669084519742269e-15 3.381244287757508e-08)
(-0.002064046112764336 1.151608847320979e-14 3.381384784122214e-08)
(-0.002064046118134262 -1.076842291694374e-14 3.381240328231397e-08)
(-0.00206404611233559 1.63231703738396e-14 3.381385579826881e-08)
(-0.002064046117486498 -1.599150701218209e-14 3.381236545120252e-08)
(-0.002064046112205429 1.896399757569847e-14 3.381386233475734e-08)
(-0.002064046117407012 -2.168284149928577e-14 3.381233046216831e-08)
(-0.002064046112427427 2.02631240604376e-14 3.381386646416017e-08)
(-0.00206404611760799 -2.162254967551949e-14 3.381229965262787e-08)
(-0.002064046112975359 1.992216548772087e-14 3.38138667482877e-08)
(-0.002064046117478412 -1.590798483576964e-14 3.381227479551036e-08)
(-0.002064046111978256 3.454525947822787e-14 3.381386112103411e-08)
(-0.002064046117574198 -3.0667620611647e-14 3.381225828297595e-08)
(-0.002064046111527818 4.589355997181922e-14 3.381384689792941e-08)
(-0.002064046116926545 -4.318932717354574e-14 3.381225317900753e-08)
(-0.00206404611180949 4.572501937527472e-14 3.38138205884783e-08)
(-0.002064046116678904 -4.425582979949357e-14 3.381226332175361e-08)
(-0.002064046112289986 5.417076056958942e-14 3.381377826551093e-08)
(-0.002064046116243762 -5.36458806799692e-14 3.381229288193604e-08)
(-0.002064046112600115 5.874799152364835e-14 3.381371494195271e-08)
(-0.002064046115122035 -4.753430043605324e-14 3.381233532655753e-08)
(-0.002064046113821188 1.381990225293314e-14 3.381361481814984e-08)
(-0.002064046114893591 1.091794818241932e-14 3.381244481213577e-08)
(-0.002064046113193298 1.021789314045575e-14 3.381395945419497e-08)
(-0.00206404611077598 3.031120922697324e-13 3.381363693284245e-08)
)
;
    }
    left
    {
        type            cyclic;
    }
    right
    {
        type            cyclic;
    }
}


// ************************************************************************* //
