/*--------------------------------*- C++ -*----------------------------------*\
| =========                 |                                                 |
| \\      /  F ield         | OpenFOAM: The Open Source CFD Toolbox           |
|  \\    /   O peration     | Version:  v1812                                 |
|   \\  /    A nd           | Web:      www.OpenFOAM.com                      |
|    \\/     M anipulation  |                                                 |
\*---------------------------------------------------------------------------*/
FoamFile
{
    version     2.0;
    format      ascii;
    class       volScalarField;
    location    "10000";
    object      nut;
}
// * * * * * * * * * * * * * * * * * * * * * * * * * * * * * * * * * * * * * //

dimensions      [0 2 -1 0 0 0 0];


internalField   nonuniform List<scalar> 
3770
(
5.714767868625762e-06
5.714768555281782e-06
5.714768454553415e-06
5.714768490794922e-06
5.714768480016522e-06
5.714768481819756e-06
5.714768487823059e-06
5.71476848034238e-06
5.714768490460829e-06
5.71476848640902e-06
5.71476849670022e-06
5.714768489548033e-06
5.714768495495067e-06
5.714768482525159e-06
5.714768483483518e-06
5.714768472700621e-06
5.714768462488312e-06
5.714768458459294e-06
5.714768447511091e-06
5.714768462698719e-06
5.71476844415776e-06
5.714768455339471e-06
5.71476846190457e-06
5.714768455702818e-06
5.714768468873678e-06
5.7147684580382e-06
5.714768466790754e-06
5.714768459393763e-06
5.714768457535793e-06
5.714768448151675e-06
5.714768439744707e-06
5.714768431755678e-06
5.714768419815442e-06
5.714768412938848e-06
5.714768404208327e-06
5.714768403421466e-06
5.714768398057908e-06
5.714768392759657e-06
5.71476839736481e-06
5.71476839188007e-06
5.71476839893069e-06
5.714768384582682e-06
5.714768458000061e-06
5.71476842684426e-06
5.714768450616278e-06
5.714768464292656e-06
5.714768468635087e-06
5.714768481606156e-06
5.714768475868095e-06
5.714768492164268e-06
5.714768473366516e-06
5.714768487949661e-06
5.714768467303553e-06
5.714768469384961e-06
5.714768457754773e-06
5.714768448467371e-06
5.714768433334399e-06
5.714768365849138e-06
5.291687558201218e-07
5.291681315324009e-07
5.291681760982981e-07
5.291681694845349e-07
5.291681777420915e-07
5.291681798886478e-07
5.291682053868548e-07
5.291682003715313e-07
5.291682235077867e-07
5.291682125913788e-07
5.291682149758747e-07
5.291681893528473e-07
5.291681893241258e-07
5.291681398728004e-07
5.291681252318383e-07
5.291680928239171e-07
5.291680704168777e-07
5.291680485056527e-07
5.291680365134624e-07
5.291680407244653e-07
5.291680377483759e-07
5.291680354273618e-07
5.291680410139399e-07
5.291680260607693e-07
5.291680306688594e-07
5.291680020646245e-07
5.291679948754036e-07
5.291679613459182e-07
5.291679290152777e-07
5.29167886415463e-07
5.29167845137445e-07
5.291678165040337e-07
5.291677830295546e-07
5.29167763798205e-07
5.291677431725661e-07
5.291677386653718e-07
5.291677395709354e-07
5.291677347279494e-07
5.29167760303841e-07
5.291677696272848e-07
5.291677823911786e-07
5.291677974199886e-07
5.291678950973394e-07
5.291679171604297e-07
5.291679605481043e-07
5.291680134129101e-07
5.291680267489183e-07
5.291680618101507e-07
5.29168053706225e-07
5.291680944336261e-07
5.291680631250072e-07
5.291680997894551e-07
5.291680808692805e-07
5.291680990669778e-07
5.291680887628613e-07
5.291680864946088e-07
5.291681213666931e-07
5.291682396070734e-07
2.613941971229892e-07
2.613939651314914e-07
2.613940203626785e-07
2.613940042756181e-07
2.613940350214926e-07
2.613940492349686e-07
2.61394082257043e-07
2.613940939265254e-07
2.61394121727532e-07
2.61394117239281e-07
2.613941207142659e-07
2.613940979359238e-07
2.613940987109811e-07
2.613940641738929e-07
2.613940176445701e-07
2.613940036310322e-07
2.613939811902315e-07
2.613939301800231e-07
2.613939253254867e-07
2.613939114007084e-07
2.613939070555868e-07
2.613939086143757e-07
2.613938851732177e-07
2.613938777490322e-07
2.613938576231057e-07
2.613938435813588e-07
2.613938014094744e-07
2.613937795543995e-07
2.613937087077719e-07
2.613936775028785e-07
2.613935959858248e-07
2.613935709178649e-07
2.613935000849242e-07
2.613934835120246e-07
2.613934383263434e-07
2.613934051949169e-07
2.613934078578719e-07
2.613933850645543e-07
2.613934092570035e-07
2.613934175420199e-07
2.613934051834946e-07
2.613934189187308e-07
2.613935480289701e-07
2.613936063547674e-07
2.613936672152925e-07
2.613937235015669e-07
2.613937569920695e-07
2.613937898357142e-07
2.613938020500672e-07
2.613938411533276e-07
2.613938426634314e-07
2.613938841372902e-07
2.613939121534041e-07
2.613939342552239e-07
2.613939334180764e-07
2.613939161515396e-07
2.613939364784382e-07
2.613939898964633e-07
3.574876871205844e-07
3.574879056543597e-07
3.574878741439873e-07
3.574879169928394e-07
3.574880217786921e-07
3.574880745006719e-07
3.574881484213992e-07
3.574881820813408e-07
3.574882554493943e-07
3.574882888698827e-07
3.574883041394796e-07
3.574882746406273e-07
3.574883141205326e-07
3.574883173137935e-07
3.574881807479232e-07
3.574881958119739e-07
3.574881556282162e-07
3.574879908229515e-07
3.574879957403866e-07
3.574879179809173e-07
3.574879355056718e-07
3.574879500612278e-07
3.574878545974728e-07
3.574878743303644e-07
3.574878108049587e-07
3.574878258009675e-07
3.57487704728015e-07
3.574877085233587e-07
3.574875304431154e-07
3.574875163708466e-07
3.574872882106653e-07
3.574872550357075e-07
3.574870402955528e-07
3.574870274984601e-07
3.574868784940792e-07
3.574867242240495e-07
3.574867254766498e-07
3.574866261240775e-07
3.574866360963749e-07
3.574866368236336e-07
3.574865214842018e-07
3.574865691680082e-07
3.574868635673065e-07
3.5748699657735e-07
3.574871430951072e-07
3.574872143848674e-07
3.57487314687836e-07
3.574873794873228e-07
3.574874204399841e-07
3.574875245500427e-07
3.574875835126544e-07
3.574876599520332e-07
3.574877762754269e-07
3.574877942115813e-07
3.574878026318046e-07
3.5748770948014e-07
3.574876593833093e-07
3.57487491418852e-07
7.713618642895889e-07
7.713625752848404e-07
7.713625117691625e-07
7.713628256549571e-07
7.713631187013489e-07
7.71363264576951e-07
7.713633831517811e-07
7.713634888826325e-07
7.713636253409912e-07
7.71363817105739e-07
7.713638423250494e-07
7.713637320198835e-07
7.713638699728643e-07
7.713638947462602e-07
7.713634853774158e-07
7.7136350649335e-07
7.713633919502541e-07
7.713628684367001e-07
7.713628836161722e-07
7.713626361392202e-07
7.713627014891457e-07
7.713627377858947e-07
7.713624336664076e-07
7.713625019840963e-07
7.713623155921897e-07
7.713623616065909e-07
7.713620117836119e-07
7.713620369675137e-07
7.713615695710137e-07
7.713614769856398e-07
7.713608000060966e-07
7.713607107064316e-07
7.713600661547678e-07
7.713600539734331e-07
7.713596118391053e-07
7.713591225405323e-07
7.713591155341502e-07
7.713588299908252e-07
7.713588900707557e-07
7.713588924996223e-07
7.713585870109421e-07
7.713587532757821e-07
7.713595795435232e-07
7.713600277888745e-07
7.713604043983302e-07
7.713605947313918e-07
7.713608792280836e-07
7.713610672673425e-07
7.713611763265231e-07
7.713615167076878e-07
7.713616995399533e-07
7.713619127796883e-07
7.713622646094243e-07
7.713622595711e-07
7.713623070787001e-07
7.71362048767049e-07
7.713619014395878e-07
7.713613770119277e-07
1.847488376671318e-06
1.847490057026973e-06
1.84749004889962e-06
1.84749102062606e-06
1.847491730752937e-06
1.847492142799048e-06
1.847492405488334e-06
1.847492526195488e-06
1.847492966218776e-06
1.847493440851227e-06
1.847493471048409e-06
1.847493161081838e-06
1.847493466163464e-06
1.847493521598112e-06
1.847492384040186e-06
1.847492421660208e-06
1.847492007933368e-06
1.847490567460827e-06
1.84749059679778e-06
1.847489864129585e-06
1.847490064832492e-06
1.847490116439418e-06
1.847489259726936e-06
1.847489530060887e-06
1.847488984403548e-06
1.847489058054639e-06
1.847488141060784e-06
1.847488209817611e-06
1.847487277217842e-06
1.847486579675491e-06
1.847484816894513e-06
1.8474845598144e-06
1.847482830390086e-06
1.847482811935783e-06
1.847481588458119e-06
1.847480249892916e-06
1.847480252895117e-06
1.847479499206611e-06
1.847479697814822e-06
1.847479633172139e-06
1.847479143291897e-06
1.84747953137945e-06
1.847481833265773e-06
1.847483103309588e-06
1.847484091599315e-06
1.847484627604456e-06
1.847485360276904e-06
1.847485817854698e-06
1.847486070800538e-06
1.847487056369807e-06
1.847487588708705e-06
1.84748814107956e-06
1.847489085329724e-06
1.847489050006008e-06
1.847489166740942e-06
1.847488569549802e-06
1.847488320389943e-06
1.847486966062254e-06
4.307857035330502e-06
4.307860579642191e-06
4.307861691450265e-06
4.307863206244652e-06
4.307865082780303e-06
4.30786593654393e-06
4.307866493072394e-06
4.307867221671424e-06
4.307868156329121e-06
4.30786891613232e-06
4.307869107249299e-06
4.307868291867317e-06
4.307868854761327e-06
4.307868803607237e-06
4.307866050084416e-06
4.307866126552912e-06
4.307864812367205e-06
4.307861325961236e-06
4.307861341033086e-06
4.307859541006558e-06
4.307859917128702e-06
4.307860035020326e-06
4.307857934990632e-06
4.307858581337605e-06
4.307857271202883e-06
4.307857387690285e-06
4.307855181894518e-06
4.307855579549551e-06
4.307853475166474e-06
4.307851243163527e-06
4.307847129352777e-06
4.307846468003077e-06
4.307842299013138e-06
4.307842263546268e-06
4.307839229466644e-06
4.30783600454866e-06
4.307836045233676e-06
4.307834298874035e-06
4.307834728086547e-06
4.30783390797298e-06
4.307834343329252e-06
4.307834692096064e-06
4.307840574549472e-06
4.307843710802214e-06
4.307845980707206e-06
4.307847348989191e-06
4.307848917606128e-06
4.307849718332929e-06
4.307850280636741e-06
4.307852933338857e-06
4.3078542950548e-06
4.307855554828897e-06
4.307857863705098e-06
4.30785772507471e-06
4.307858064316355e-06
4.307856757992483e-06
4.307856242652293e-06
4.307853677380026e-06
9.487538179408747e-06
9.487546802033518e-06
9.487549683270188e-06
9.48755293547022e-06
9.487556593580051e-06
9.487558194604965e-06
9.487559374082006e-06
9.487561472537894e-06
9.487563478416068e-06
9.487565061227958e-06
9.487565503970153e-06
9.487563647293084e-06
9.487564805981833e-06
9.487564723883951e-06
9.487558268789404e-06
9.487558916153523e-06
9.487555171231455e-06
9.487547513770572e-06
9.487547513378215e-06
9.487543372197977e-06
9.487544166742031e-06
9.487544497620417e-06
9.487539924128807e-06
9.48754129021407e-06
9.487538558041627e-06
9.487538893961469e-06
9.487534170431411e-06
9.487535284806754e-06
9.487530903274397e-06
9.487525255149379e-06
9.487516364243719e-06
9.48751488902221e-06
9.487505631258586e-06
9.487505334151003e-06
9.487498513659573e-06
9.487491299265664e-06
9.487491378665566e-06
9.487487170744923e-06
9.487487620930966e-06
9.487484894447564e-06
9.487488151325967e-06
9.487490085836899e-06
9.48750197422234e-06
9.48750847016152e-06
9.487513503726778e-06
9.487516750789143e-06
9.487519725687567e-06
9.487520466164662e-06
9.487521436426604e-06
9.487528218762054e-06
9.487531489841522e-06
9.487534140110755e-06
9.487539102249127e-06
9.487538583820135e-06
9.487539227084133e-06
9.487536864319511e-06
9.487536225255885e-06
9.487531137754142e-06
1.989768268785661e-05
1.989770021214973e-05
1.989770644632128e-05
1.989771319262713e-05
1.989772005105887e-05
1.989772322791139e-05
1.98977258280475e-05
1.989773103989885e-05
1.98977341457251e-05
1.989773811939057e-05
1.989773920847642e-05
1.989773533378576e-05
1.989773782454316e-05
1.989773849444064e-05
1.98977239447409e-05
1.989772566578891e-05
1.989771679519538e-05
1.989770104201785e-05
1.989770104255885e-05
1.989769241541245e-05
1.989769464470739e-05
1.989769502798022e-05
1.989768590904962e-05
1.989768807439442e-05
1.989768326152233e-05
1.989768406213136e-05
1.98976750992604e-05
1.989767739405167e-05
1.989766899078966e-05
1.989765615014445e-05
1.989763782141756e-05
1.989763515914012e-05
1.989761512719636e-05
1.98976143229943e-05
1.989760018126092e-05
1.989758487978818e-05
1.989758502255802e-05
1.989757527080891e-05
1.989757556338284e-05
1.989756913801651e-05
1.989757980867395e-05
1.989758403046203e-05
1.989760766325678e-05
1.989761970319661e-05
1.989762976687295e-05
1.989763645926895e-05
1.989764172338633e-05
1.989764248165417e-05
1.989764121429537e-05
1.9897658442481e-05
1.989766583136538e-05
1.989767109454276e-05
1.989768019145961e-05
1.989767860331216e-05
1.9897680075932e-05
1.989767448658961e-05
1.989767506308075e-05
1.989766816355965e-05
4.055792675334983e-05
4.055796146160807e-05
4.055797387538956e-05
4.055798737399733e-05
4.055799887536705e-05
4.055800554284179e-05
4.055801232586728e-05
4.055802323118883e-05
4.055803039070075e-05
4.055803588454601e-05
4.05580400641027e-05
4.055803323720937e-05
4.055803780308745e-05
4.055803875276911e-05
4.055801039836865e-05
4.055801398563951e-05
4.055799512483554e-05
4.055796369982141e-05
4.055796489981399e-05
4.055794643624412e-05
4.055795267829323e-05
4.055795291238355e-05
4.055793581137158e-05
4.055793897746313e-05
4.05579313517736e-05
4.055793322976376e-05
4.055791729406482e-05
4.055792119627409e-05
4.055790654663368e-05
4.05578787223553e-05
4.055784169019615e-05
4.05578395864071e-05
4.05577963804789e-05
4.055779464092375e-05
4.055776618869475e-05
4.055773440010074e-05
4.055773545399826e-05
4.055771237049842e-05
4.055771324292808e-05
4.055769858645086e-05
4.055772377631975e-05
4.055773391270566e-05
4.055777902326279e-05
4.055779882042905e-05
4.055781915333072e-05
4.055783201930591e-05
4.055783853720189e-05
4.055784215089782e-05
4.055783813560178e-05
4.055787391080093e-05
4.055788980784178e-05
4.055790008969089e-05
4.055791237834876e-05
4.055791037531443e-05
4.055791253163545e-05
4.055789861384117e-05
4.055790408710994e-05
4.055790046670231e-05
8.199688503374976e-05
8.199694904544708e-05
8.199697311859648e-05
8.199700291394234e-05
8.199702114914272e-05
8.199703346542163e-05
8.199705472965623e-05
8.199706986822925e-05
8.199708279364544e-05
8.199710066074647e-05
8.199710477589596e-05
8.199709545224072e-05
8.199710296967984e-05
8.199709979614672e-05
8.199705041886743e-05
8.199705621714041e-05
8.19970193352868e-05
8.199695850749656e-05
8.199696075531337e-05
8.199692563544552e-05
8.199693922995764e-05
8.199694009079866e-05
8.19969082047281e-05
8.199691443131719e-05
8.199690287336561e-05
8.199690456154026e-05
8.199687988797125e-05
8.199688231783157e-05
8.19968614531611e-05
8.199680312093798e-05
8.199673037770191e-05
8.199672653593579e-05
8.199664038541349e-05
8.199663678070669e-05
8.19965810651026e-05
8.199651554061501e-05
8.199652119085726e-05
8.199647005566715e-05
8.199647069302506e-05
8.199644097858117e-05
8.199649556117138e-05
8.199651649237624e-05
8.199659690971547e-05
8.199662970688415e-05
8.199666646406081e-05
8.199668925830377e-05
8.199670179061875e-05
8.199670652435854e-05
8.199670333279727e-05
8.199677200262261e-05
8.199680300436735e-05
8.199682241141214e-05
8.19968343059979e-05
8.199683532342873e-05
8.199683094453847e-05
8.199681018765692e-05
8.199682094012413e-05
8.199684869289991e-05
0.0001661886027468149
0.0001661887187881918
0.0001661887606236131
0.0001661888225550338
0.000166188858520406
0.0001661888786739037
0.0001661889245764009
0.0001661889465306109
0.00016618898620624
0.0001661890149733007
0.000166189026844689
0.0001661890156933114
0.0001661890327880211
0.0001661890158125375
0.0001661889283732572
0.0001661889314634162
0.0001661888696944609
0.0001661887531995958
0.0001661887569954122
0.0001661886904119441
0.0001661887206572442
0.0001661887230983613
0.0001661886647916725
0.0001661886801022993
0.0001661886603787549
0.000166188665619831
0.0001661886226532102
0.0001661886287973212
0.0001661885973962223
0.0001661884794009463
0.0001661883389527188
0.0001661883288779757
0.0001661881622652183
0.0001661881567152994
0.0001661880504517201
0.0001661879199886621
0.000166187930752318
0.000166187824866618
0.0001661878266470613
0.0001661877655390623
0.0001661878690441557
0.0001661879106074438
0.0001661880463017335
0.0001661881004929262
0.0001661881632397013
0.0001661882033055416
0.0001661882413312324
0.0001661882385339183
0.0001661882537947612
0.0001661883733962399
0.0001661884251703381
0.0001661884633224789
0.0001661884746632893
0.0001661884577284703
0.0001661884586467546
0.0001661884421450827
0.0001661884397566493
0.0001661885394640102
0.0003350506109881317
0.0003350508187486588
0.000335050897620743
0.0003350510118314361
0.0003350510794562738
0.0003350511113971262
0.0003350511687270267
0.0003350512032286141
0.0003350513172409532
0.0003350513747520938
0.0003350514109786317
0.0003350514241293901
0.0003350514068145413
0.0003350513854078931
0.0003350512288487463
0.0003350512355531291
0.0003350511359834083
0.0003350509216050681
0.0003350509257497655
0.0003350508092664848
0.0003350508699571999
0.0003350508774954543
0.0003350507743022883
0.0003350508073549654
0.0003350507750724258
0.0003350507903640677
0.0003350507156946215
0.0003350507344935902
0.0003350506881598825
0.0003350504658813568
0.0003350502040008944
0.0003350501780340072
0.0003350498682808744
0.0003350498434226375
0.0003350496733279509
0.0003350494255156499
0.0003350494362931877
0.000335049231281364
0.0003350492618008475
0.0003350491243001861
0.0003350492952107336
0.0003350493637355276
0.0003350495838492837
0.0003350496752834351
0.0003350497692036166
0.0003350498682104342
0.0003350499013509595
0.0003350499360049859
0.0003350499824703768
0.0003350501751441505
0.0003350502338475911
0.0003350503021828306
0.0003350503173427667
0.0003350502742274345
0.0003350502843463484
0.0003350501986010875
0.0003350503328153202
0.0003350504908048396
0.0006523079859996038
0.0006523083456291841
0.0006523084768231271
0.0006523086619613577
0.0006523087806999106
0.000652308808570241
0.0006523088705617849
0.0006523089052694642
0.0006523091719769176
0.0006523092479236312
0.0006523094214948115
0.0006523094042165256
0.0006523093663603259
0.0006523093453608259
0.0006523090926965008
0.0006523091137411995
0.0006523089720789325
0.00065230861110191
0.0006523086164901408
0.0006523084248691147
0.0006523085377366714
0.000652308555414755
0.0006523083882704907
0.000652308453641997
0.0006523084026621941
0.0006523084402923751
0.0006523083182190223
0.0006523083640286566
0.0006523082992558331
0.000652307934134878
0.0006523074886379638
0.0006523074301158241
0.0006523069061225987
0.0006523067882520361
0.0006523066020186554
0.0006523061648285057
0.0006523061588561158
0.0006523058248784799
0.0006523058827732414
0.0006523056331763358
0.0006523058481097441
0.0006523059451223221
0.0006523062756087917
0.0006523064112882932
0.0006523065333114678
0.0006523067230470413
0.0006523067982575152
0.0006523068846028045
0.00065230703478781
0.0006523072327963248
0.0006523073429552233
0.0006523073892554292
0.0006523074268365557
0.000652307369764675
0.0006523073743030702
0.0006523072304128612
0.0006523075418548195
0.0006523077729982471
0.001176143133289517
0.001176143667648615
0.001176143692930645
0.001176144043106141
0.001176144187821963
0.001176144238222958
0.001176144405565878
0.001176144548409583
0.001176144823833677
0.001176144989722593
0.001176145254623542
0.001176145251675441
0.001176145142744842
0.001176145174032049
0.001176144818151867
0.0011761448952326
0.001176144709142777
0.001176144194120523
0.001176144234829713
0.001176143941241049
0.001176144117547082
0.001176144140107409
0.001176143909485157
0.001176144011315251
0.001176143941669217
0.001176144010193511
0.001176143830377833
0.001176143918880981
0.00117614382021523
0.001176143335510202
0.001176142703541914
0.001176142567667333
0.001176141930785433
0.001176141444127364
0.001176141384977757
0.001176140730859711
0.001176140727973098
0.00117614024793273
0.001176140323845542
0.001176139968282647
0.001176140123582826
0.001176140222576671
0.001176140691227374
0.001176140814585293
0.001176140958646207
0.001176141272180461
0.001176141453059446
0.001176141689280488
0.001176141832705003
0.001176141968199267
0.001176142125205125
0.001176142242268475
0.00117614225131994
0.0011761420942022
0.001176142139392669
0.001176141966074853
0.00117614254835191
0.001176142810762434
0.001904186560882632
0.001904187143014146
0.001904187312607132
0.001904187675710707
0.00190418777701669
0.001904187790176084
0.00190418826497958
0.001904188429080886
0.001904188747684262
0.001904188979804508
0.001904189251430845
0.001904189296235722
0.00190418923630089
0.001904189234129291
0.001904188849366666
0.001904188954170879
0.001904188761983833
0.00190418815447687
0.001904188228251926
0.001904187874090948
0.001904188080602701
0.001904188124433748
0.001904187849681425
0.001904187982393142
0.001904187899326249
0.001904187994040854
0.001904187762071073
0.001904187884447497
0.001904187741178624
0.001904187223672495
0.001904186591749308
0.001904186155238571
0.001904185524915809
0.001904184807330017
0.001904184729157546
0.001904183982836145
0.001904183990024058
0.001904183391051226
0.001904183465635662
0.001904183069274486
0.001904183100082811
0.001904182995175171
0.001904183666560839
0.001904183829005897
0.001904184000352141
0.00190418434882203
0.001904184555978617
0.001904184922243717
0.001904184982740041
0.001904185137547714
0.001904185386024756
0.001904185382604285
0.001904185449957145
0.001904185237389392
0.001904185287279702
0.001904185157335181
0.001904185844940461
0.001904186194734558
0.002773360982039605
0.002773361650341791
0.002773361927973489
0.002773362160769495
0.00277336238092019
0.002773362635535277
0.002773363018783217
0.002773363181313661
0.002773363567771747
0.002773363877395707
0.0027733640966276
0.002773364125594592
0.002773364120169125
0.002773364208073552
0.002773363820071735
0.002773363894296592
0.002773363699887349
0.002773363106450723
0.002773363196672847
0.002773362850220935
0.002773363008599379
0.002773363122028833
0.002773362837971865
0.002773362980607912
0.002773362885846312
0.002773362977370224
0.002773362695895993
0.002773362806727222
0.00277336256440209
0.002773362037226647
0.002773361376920469
0.002773360797729817
0.002773360193588893
0.002773359376534296
0.002773359321792063
0.002773358526727226
0.002773358493450967
0.002773357861625692
0.002773357894144623
0.002773357463451091
0.002773357539173785
0.002773357335397961
0.002773358046312544
0.00277335808902647
0.002773358293314103
0.002773358641447594
0.002773358876638418
0.002773359254625073
0.002773359312006328
0.0027733595517359
0.002773359669946025
0.00277335968603854
0.002773359752696795
0.002773359554872118
0.002773359589882163
0.002773359593298574
0.00277336014914257
0.002773360641621478
0.003697609681516688
0.003697610432593263
0.00369761068133688
0.003697611025214373
0.003697611292594968
0.00369761150156025
0.003697611904852595
0.003697612079517518
0.003697612592102597
0.003697612853370478
0.003697613144115802
0.003697613226220995
0.0036976132609556
0.003697613301932958
0.003697612936878572
0.003697612932884491
0.003697612688824413
0.003697612192812972
0.00369761226898574
0.003697611975085505
0.003697612112826546
0.003697612237144559
0.003697612014131756
0.00369761217047141
0.003697612055002553
0.003697612101624352
0.003697611759976844
0.003697611821949786
0.003697611330337215
0.003697610847869488
0.003697610003584394
0.003697609406148492
0.003697608693831702
0.003697607928313992
0.003697607814574067
0.003697607030062528
0.00369760695298281
0.003697606400380845
0.003697606385914889
0.003697606052586494
0.003697606074664463
0.003697605998452477
0.003697606623036581
0.003697606691457386
0.003697606932653269
0.003697607299227352
0.003697607533112153
0.00369760784070335
0.003697607925577408
0.003697608165548441
0.00369760826634821
0.003697608231187391
0.003697608300779776
0.003697608089547302
0.003697608288858833
0.003697608445476146
0.003697608724772559
0.003697609347451981
0.004616678902606996
0.004616679670003007
0.004616679919751476
0.004616680397882288
0.004616680657847818
0.004616680809442919
0.004616681257591691
0.00461668145070546
0.004616682077961019
0.004616682334174786
0.00461668271785773
0.004616682766037022
0.00461668288278013
0.004616682856903709
0.004616682503689337
0.004616682432762578
0.004616682127910957
0.004616681763127841
0.004616681799420793
0.004616681584305115
0.004616681762755264
0.004616681831053963
0.004616681728200668
0.004616681920713574
0.00461668178538437
0.004616681800407477
0.004616681351524885
0.004616681325660165
0.00461668056899349
0.004616680120569139
0.004616679032865639
0.004616678443257004
0.004616677591744191
0.004616676904398985
0.004616676584206671
0.004616675889734146
0.00461667580405938
0.004616675317475364
0.004616675260513318
0.004616675011013099
0.004616675132271562
0.00461667519964932
0.004616675708690883
0.004616675840971494
0.004616676128068073
0.00461667651350495
0.004616676709322328
0.004616677021070287
0.004616677166645405
0.004616677353170895
0.004616677403578498
0.004616677337576269
0.004616677359560381
0.004616677219621771
0.00461667738031126
0.004616677611407018
0.004616677847966121
0.004616678550530617
0.005498897002306787
0.005498897777552266
0.005498898012408247
0.005498898610273579
0.005498898870479789
0.005498898976237112
0.005498899503005888
0.005498899686722123
0.005498900398889575
0.005498900676834204
0.005498901117624997
0.005498901192989517
0.005498901319027831
0.005498901323372912
0.005498900893953582
0.00549890077368091
0.005498900453074277
0.005498900218336336
0.005498900216699033
0.005498900081097565
0.005498900320185572
0.005498900442240123
0.005498900392187114
0.005498900645158024
0.005498900514114043
0.005498900549429924
0.00549889992216609
0.005498899763915322
0.005498898843997739
0.005498898374547491
0.005498897080457747
0.005498896455376928
0.005498895436789215
0.005498894775687056
0.005498894358276812
0.005498893720234346
0.005498893563121833
0.005498893187140769
0.005498893115856652
0.005498892990273035
0.005498893138957088
0.00549889324510244
0.005498893773636704
0.005498893966751639
0.005498894284807859
0.005498894709761307
0.005498894883224192
0.005498895193772189
0.00549889531507304
0.0054988954403302
0.00549889548835223
0.005498895389596614
0.005498895397496492
0.00549889526597572
0.005498895342021568
0.005498895628215169
0.00549889589523107
0.005498896645515101
0.006327860481372226
0.006327861271470357
0.006327861449139114
0.006327862149589716
0.006327862462068281
0.006327862516571352
0.006327863126250867
0.00632786326786183
0.006327864090311331
0.006327864341222927
0.006327864897525949
0.006327864927582539
0.006327865080818982
0.006327865178767382
0.006327864650817551
0.006327864469021172
0.006327864187025847
0.006327864044824272
0.006327864062059404
0.006327863999126609
0.006327864257258563
0.006327864523605183
0.006327864501906257
0.006327864847171623
0.006327864748165969
0.00632786483652361
0.006327864026022979
0.006327863758400391
0.006327862736548496
0.006327862220377419
0.006327860772189338
0.006327860080304662
0.006327858921617662
0.006327858252132228
0.006327857798455381
0.006327857154552176
0.006327856943164095
0.006327856688906018
0.00632785658709287
0.006327856577633847
0.006327856702875071
0.006327856839317997
0.006327857413759265
0.006327857692383504
0.006327857996390376
0.006327858497656568
0.006327858604955459
0.006327858951732399
0.006327858983603345
0.006327859098668421
0.006327859037661594
0.00632785892791143
0.006327858900336158
0.006327858762905194
0.006327858783459613
0.006327859056036459
0.006327859378800682
0.006327860154090866
0.007096460588373482
0.007096461391270333
0.007096461504424851
0.007096462227657584
0.007096462631070665
0.007096462696086979
0.007096463323327026
0.007096463426708246
0.007096464359210334
0.007096464561303885
0.007096465250896512
0.007096465308585034
0.007096465391841608
0.007096465602363176
0.007096465032145037
0.007096464817373469
0.007096464596408089
0.007096464496829173
0.007096464548906887
0.007096464547078001
0.00709646488556637
0.007096465318644437
0.00709646525153456
0.007096465750689887
0.007096465703903152
0.007096465880515906
0.007096464942616758
0.007096464609564993
0.007096463518325536
0.007096462959260233
0.007096461392672023
0.007096460636764951
0.007096459377257596
0.007096458672224993
0.007096458206538913
0.007096457505888941
0.007096457251162556
0.007096457111691686
0.007096457016218958
0.007096457065934198
0.007096457211740336
0.00709645733895228
0.007096457919715937
0.00709645833443464
0.007096458532865138
0.007096459115859244
0.007096459166587955
0.007096459546006024
0.00709645951908747
0.00709645955025038
0.007096459431856624
0.007096459202885114
0.007096459091090433
0.007096458974310149
0.007096458995395153
0.007096459178970454
0.007096459544758163
0.007096460361016268
0.007803308773526115
0.007803309580234194
0.007803309635782373
0.007803310311965721
0.007803310826749529
0.007803310868836857
0.007803311510410386
0.007803311585407614
0.00780331261537447
0.007803312784871745
0.007803313606351376
0.007803313669866504
0.007803313697753517
0.00780331399161469
0.007803313433775869
0.007803313259478366
0.007803313103387118
0.007803312998287138
0.007803313080692287
0.007803313112855228
0.007803313615740609
0.007803314181262438
0.00780331411781925
0.007803314763396788
0.007803314765064844
0.00780331507529919
0.007803314091525277
0.007803313745683432
0.007803312607450739
0.007803312021185729
0.0078033103748116
0.007803309572114875
0.007803308253479013
0.007803307498252697
0.007803307022157775
0.007803306284506388
0.00780330598211147
0.007803305867873185
0.007803305864729266
0.007803305889984362
0.007803306154266993
0.00780330621346054
0.007803306729661609
0.00780330729337827
0.007803307361384978
0.007803308004422043
0.007803308102311543
0.007803308501821592
0.007803308259558678
0.007803308152482116
0.0078033080693814
0.0078033076837626
0.007803307562151334
0.007803307313175022
0.007803307366120859
0.007803307463400395
0.007803307794544432
0.007803308630072414
0.00844990571315295
0.008449906500427809
0.008449906515176155
0.008449907075763
0.008449907692222222
0.008449907702626625
0.008449908338501021
0.008449908404806007
0.008449909510704722
0.00844990965960069
0.008449910585870142
0.00844991066246987
0.008449910668640025
0.008449911026445295
0.008449910504301139
0.008449910331221824
0.008449910405069663
0.00844991017055265
0.008449910276630571
0.008449910368649656
0.008449911064040985
0.008449911713807415
0.008449911750207558