/*--------------------------------*- C++ -*----------------------------------*\
| =========                 |                                                 |
| \\      /  F ield         | OpenFOAM: The Open Source CFD Toolbox           |
|  \\    /   O peration     | Version:  v1812                                 |
|   \\  /    A nd           | Web:      www.OpenFOAM.com                      |
|    \\/     M anipulation  |                                                 |
\*---------------------------------------------------------------------------*/
FoamFile
{
    version     2.0;
    format      ascii;
    class       volScalarField;
    location    "10000";
    object      nuTilda;
}
// * * * * * * * * * * * * * * * * * * * * * * * * * * * * * * * * * * * * * //

dimensions      [0 2 -1 0 0 0 0];


internalField   nonuniform List<scalar> 
3770
(
0.0004955055372664469
0.0004955055516674879
0.0004955055492760068
0.000495505550192189
0.0004955055498592583
0.0004955055499384152
0.0004955055500513175
0.0004955055499210489
0.0004955055500450115
0.0004955055501911632
0.0004955055501201523
0.000495505550131204
0.0004955055501951744
0.0004955055498874633
0.0004955055499338829
0.0004955055496711207
0.000495505549449089
0.0004955055493609707
0.00049550554934057
0.0004955055491545584
0.0004955055492426618
0.0004955055492538846
0.0004955055493476739
0.0004955055494655764
0.0004955055495134601
0.0004955055495615227
0.000495505549558729
0.0004955055494613892
0.0004955055494717523
0.0004955055491231738
0.0004955055490237656
0.0004955055487611524
0.0004955055485337475
0.0004955055484244763
0.0004955055482703393
0.0004955055480734556
0.0004955055481992209
0.000495505547945098
0.0004955055480884754
0.0004955055479604739
0.0004955055481968651
0.0004955055478837799
0.0004955055494398902
0.000495505548667596
0.0004955055492691283
0.0004955055494522369
0.0004955055496393111
0.0004955055497921722
0.0004955055498372279
0.0004955055500708025
0.0004955055497054978
0.0004955055500319748
0.0004955055495465384
0.0004955055496547549
0.0004955055493976047
0.0004955055492462486
0.0004955055488490669
0.0004955055472788572
0.0002726772092492023
0.0002726771266337339
0.0002726771328390993
0.0002726771328346994
0.0002726771332793368
0.0002726771343494848
0.0002726771369148061
0.0002726771363775556
0.0002726771388732149
0.0002726771382511204
0.0002726771380519644
0.0002726771352607108
0.0002726771350020123
0.0002726771285314138
0.0002726771268908934
0.0002726771220877195
0.0002726771193909212
0.0002726771165425336
0.0002726771154608043
0.0002726771155113179
0.0002726771153957887
0.0002726771149863999
0.0002726771154025848
0.0002726771140868658
0.0002726771144221318
0.0002726771114240181
0.0002726771100941828
0.0002726771058911532
0.0002726771017836103
0.0002726770959179151
0.0002726770908047496
0.0002726770866747176
0.0002726770822646715
0.0002726770800791322
0.0002726770775121427
0.000272677075992594
0.0002726770769441497
0.0002726770759592954
0.0002726770791243747
0.0002726770800155556
0.0002726770818025131
0.0002726770847879576
0.0002726770986949564
0.0002726770997103927
0.0002726771063521451
0.0002726771121547097
0.0002726771143327974
0.0002726771185282392
0.0002726771180809619
0.000272677122885348
0.0002726771188169956
0.0002726771240426331
0.0002726771207798263
0.0002726771231168105
0.0002726771212923844
0.0002726771213084424
0.0002726771259740226
0.0002726771424252111
0.0002285533461478625
0.0002285532917202549
0.0002285533050519778
0.0002285533028338023
0.0002285533106062569
0.000228553313734122
0.0002285533195592315
0.0002285533222052266
0.0002285533283889173
0.000228553328758732
0.000228553327876254
0.0002285533233878688
0.0002285533231574747
0.0002285533155104469
0.0002285533062130083
0.0002285533018093708
0.0002285532973432336
0.0002285532858985811
0.0002285532849246931
0.0002285532804637185
0.000228553283283707
0.0002285532810964349
0.0002285532755452403
0.0002285532757328241
0.0002285532710811052
0.0002285532682439633
0.0002285532581371935
0.0002285532544441705
0.0002285532390213355
0.0002285532316170634
0.0002285532134887724
0.0002285532080015802
0.0002285531921610339
0.0002285531892452295
0.0002285531788403402
0.0002285531693824457
0.0002285531728090325
0.0002285531666304402
0.0002285531708285681
0.000228553172531755
0.0002285531678911175
0.0002285531744933011
0.0002285532078478865
0.0002285532162516508
0.0002285532290849953
0.0002285532409614642
0.0002285532489736761
0.0002285532554134053
0.0002285532598525892
0.0002285532680185811
0.0002285532686954718
0.0002285532798999914
0.0002285532833025732
0.0002285532882821547
0.0002285532860324624
0.00022855328276833
0.0002285532874761714
0.0002285533006887307
0.0002471790725365283
0.0002471791096893711
0.0002471791004476515
0.0002471791185823488
0.0002471791371948083
0.0002471791425311429
0.0002471791529640715
0.00024717915792304
0.0002471791729599457
0.0002471791777793984
0.0002471791806479292
0.0002471791750456299
0.0002471791824957335
0.0002471791804411178
0.0002471791598534361
0.0002471791596260144
0.0002471791541785836
0.0002471791269717909
0.0002471791256502213
0.0002471791106202949
0.0002471791210956575
0.0002471791173586604
0.0002471791032477759
0.0002471791071115336
0.000247179097218347
0.0002471790974886079
0.0002471790754084629
0.0002471790816511813
0.0002471790492151069
0.0002471790455780563
0.000247179003282957
0.0002471790009077137
0.0002471789618744101
0.0002471789615450779
0.000247178933522305
0.0002471789031095449
0.0002471789107531127
0.0002471788895753993
0.0002471788871190735
0.000247178889454184
0.0002471788664131058
0.0002471788794142442
0.0002471789421138844
0.0002471789564609995
0.0002471789762003128
0.0002471789929316791
0.0002471790113914241
0.0002471790207751967
0.0002471790294981717
0.0002471790474875299
0.0002471790596102593
0.0002471790776587627
0.0002471790884773193
0.0002471790951503921
0.0002471790884342723
0.0002471790754950959
0.0002471790659834796
0.0002471790363396785
0.0002996633510968653
0.000299663422589556
0.0002996634139508592
0.0002996634540149762
0.000299663483684724
0.0002996634913755255
0.0002996635039430354
0.0002996635119081925
0.0002996635360447324
0.0002996635384576148
0.0002996635506833142
0.0002996635355158731
0.0002996635486420323
0.00029966354641946
0.000299663508245588
0.000299663518008645
0.0002996635022715682
0.0002996634536614635
0.0002996634510043964
0.000299663423147592
0.0002996634444092775
0.0002996634351231222
0.0002996634110437133
0.0002996634186282853
0.0002996634007676696
0.0002996634022153903
0.0002996633667823189
0.0002996633793910463
0.0002996633296214437
0.0002996633189484441
0.0002996632485723436
0.0002996632466022416
0.0002996631808398357
0.0002996631827803271
0.0002996631347151421
0.0002996630809262591
0.0002996630949552839
0.0002996630585727614
0.0002996630560351763
0.0002996630604092605
0.0002996630276421522
0.0002996630508341046
0.0002996631495936336
0.0002996631793864802
0.0002996632076365274
0.0002996632341954532
0.0002996632624332964
0.000299663276461007
0.0002996632900807301
0.0002996633245201978
0.000299663345195286
0.0002996633741899347
0.0002996633941444911
0.0002996633934555291
0.0002996633877060571
0.0002996633694181439
0.0002996633539285255
0.0002996632996728296
0.0003730128201349401
0.0003730129108043064
0.0003730129144178036
0.0003730129663860918
0.0003730130068912205
0.0003730130187412029
0.0003730130239865278
0.0003730130416946406
0.0003730130738747758
0.0003730130787905859
0.0003730130845714433
0.000373013069423811
0.0003730130819985126
0.0003730130812875254
0.0003730130242757467
0.0003730130384505801
0.0003730130095219179
0.0003730129397834143
0.000373012935053544
0.0003730128964675363
0.000373012923621839
0.0003730129101303423
0.0003730128747771656
0.0003730128854620575
0.0003730128587562346
0.0003730128632196663
0.0003730128157730756
0.0003730128299596457
0.0003730127773426605
0.0003730127395491401
0.000373012643841606
0.0003730126398868709
0.0003730125491031805
0.000373012551265607
0.0003730124827024087
0.0003730124073395829
0.000373012426630104
0.0003730123765216007
0.000373012375149004
0.000373012374109002
0.0003730123518695341
0.0003730123802597123
0.0003730125184014961
0.0003730125638610428
0.0003730126071431346
0.0003730126425678192
0.0003730126771138823
0.0003730126958599637
0.0003730127120575874
0.0003730127664246654
0.0003730127964268174
0.0003730128352823762
0.0003730128635960349
0.0003730128603940251
0.0003730128553361901
0.0003730128305386789
0.0003730128185066054
0.000373012745680563
0.0004614481557082406
0.0004614482674427069
0.0004614483008179527
0.0004614483443222819
0.0004614483962874134
0.0004614484035108392
0.0004614484255299032
0.000461448445528546
0.0004614484787646811
0.0004614484847795207
0.0004614484898126433
0.0004614484720833304
0.0004614484794613383
0.000461448489055967
0.0004614484063932462
0.0004614484201531444
0.0004614483763615769
0.0004614482860311698
0.0004614482789226973
0.0004614482258388616
0.0004614482613633546
0.0004614482424664443
0.0004614481964017291
0.0004614482084852784
0.0004614481674864772
0.0004614481914791845
0.0004614481264482599
0.0004614481320957339
0.0004614480803507763
0.0004614480161256444
0.0004614478972157949
0.0004614478914104041
0.0004614477769294951
0.0004614477744157282
0.0004614476878060918
0.0004614475913825177
0.0004614476155588723
0.0004614475520882401
0.000461447553098224
0.0004614475243138911
0.0004614475552525726
0.0004614475746400485
0.0004614477502582868
0.0004614478125863113
0.0004614478692944075
0.0004614479153989713
0.0004614479463992284
0.0004614479696741479
0.0004614479872037079
0.0004614480666230939
0.0004614481070686469
0.0004614481538269864
0.0004614481903678355
0.0004614481846169577
0.0004614481805362305
0.0004614481519368886
0.0004614481434877674
0.0004614480642857685
0.0005632123672408151
0.0005632125109892715
0.0005632125572722206
0.0005632126058362509
0.0005632126635905548
0.0005632126687516876
0.0005632127018774299
0.0005632127264221965
0.0005632127624706505
0.0005632127784378604
0.0005632127798812905
0.0005632127564355308
0.000563212771830905
0.0005632127784722131
0.0005632126800284544
0.0005632126799795477
0.000563212628500868
0.0005632125168350102
0.000563212508381252
0.0005632124442468717
0.0005632124850144492
0.0005632124634412827
0.0005632124063449842
0.0005632124188602074
0.0005632123712603833
0.0005632124058141818
0.0005632123290111849
0.0005632123332126226
0.0005632122766719551
0.0005632121859278034
0.0005632120426238446
0.0005632120355014872
0.0005632118973201421
0.0005632118748530504
0.0005632117787365484
0.0005632116582504383
0.0005632116866138183
0.0005632116020951396
0.0005632116007251081
0.0005632115551356942
0.0005632116270119685
0.0005632116564590983
0.0005632118596665865
0.0005632119316055732
0.0005632120034774019
0.0005632120642697582
0.0005632120813549213
0.0005632121108846942
0.000563212123109706
0.0005632122367990047
0.0005632122909748271
0.000563212344840123
0.0005632123860156319
0.000563212378034055
0.0005632123736135995
0.00056321233868339
0.0005632123407576739
0.0005632122566919291
0.0006799306718738798
0.0006799308387450121
0.0006799308928165605
0.0006799309530312421
0.0006799310124320152
0.0006799310255118231
0.0006799310688238847
0.0006799310894417518
0.0006799311365678552
0.0006799311691493648
0.0006799311608090726
0.00067993112853016
0.0006799311743976846
0.0006799311506137098
0.0006799310433106428
0.0006799310384348696
0.0006799309722603661
0.0006799308361161781
0.0006799308327022884
0.0006799307475558075
0.0006799308050214642
0.0006799307746922737
0.0006799307091280562
0.0006799307224433966
0.0006799306700354833
0.0006799307148857773
0.0006799306249695371
0.0006799306307436392
0.0006799305698084157
0.0006799304490393423
0.0006799302803804477
0.0006799302736650843
0.0006799301013685369
0.0006799300677349532
0.0006799299541714826
0.0006799298079215568
0.0006799298385290842
0.0006799297266109932
0.0006799297271771796
0.0006799296689973835
0.0006799297722482137
0.0006799298194815918
0.0006799300488345433
0.0006799301277911687
0.0006799302120260854
0.0006799302800251393
0.0006799303052741861
0.0006799303167523315
0.0006799303141731707
0.0006799304805431035
0.0006799305507593569
0.0006799306099735987
0.000679930649035668
0.0006799306352192395
0.0006799306338089039
0.0006799305809351752
0.0006799306019003559
0.0006799305385217167
0.0008167482273361475
0.0008167484234521537
0.0008167484853007444
0.0008167485606729568
0.0008167486203766444
0.0008167486423285624
0.0008167486991268826
0.0008167487155949804
0.0008167487811316893
0.000816748817041043
0.0008167488105601382
0.0008167487800797242
0.0008167488283179983
0.0008167487985406926
0.0008167486730095618
0.0008167486651383836
0.00081674858248453
0.0008167484124789046
0.0008167484367440389
0.0008167483199175783
0.0008167483923882168
0.0008167483553632532
0.0008167482803194545
0.0008167482955780145
0.0008167482460511989
0.0008167482906763604
0.0008167481936195521
0.0008167482050418204
0.0008167481388838336
0.0008167479826480667
0.0008167477862359954
0.0008167477801908761
0.0008167475637275316
0.0008167475211925972
0.0008167473860451444
0.0008167472116825263
0.0008167472383464096
0.0008167470885905519
0.0008167471092081773
0.0008167470234717929
0.0008167471597057982
0.000816747227385051
0.0008167474773416552
0.0008167475595476158
0.0008167476592267582
0.0008167477246626675
0.0008167477769007711
0.0008167477693240512
0.0008167477656120742
0.0008167479777261283
0.000816748059517583
0.0008167481249573285
0.0008167481494583112
0.0008167481320924863
0.0008167481334178245
0.0008167480711871823
0.0008167480920239607
0.0008167480869500246
0.0009827607921969975
0.0009827610166940016
0.0009827610853212234
0.0009827611849178163
0.0009827612451657345
0.0009827612741318663
0.0009827613501235274
0.0009827613537201538
0.0009827614553945298
0.0009827614737955301
0.0009827614917106548
0.000982761469920826
0.000982761481916869
0.0009827614856215718
0.000982761324839061
0.0009827613196848849
0.000982761218524568
0.000982761013547875
0.0009827610518049284
0.0009827609036905229
0.0009827610031244681
0.0009827609544464906
0.0009827608717710504
0.0009827608966831085
0.0009827608537740077
0.0009827608710394433
0.0009827607713533497
0.0009827608205018865
0.0009827607337851202
0.0009827605349978685
0.0009827603035978936
0.0009827602932054598
0.0009827600276027103
0.0009827599807354622
0.0009827598180450355
0.000982759615461966
0.000982759614219999
0.0009827594539371632
0.0009827594505600031
0.0009827593665440203
0.0009827595288294654
0.0009827596243975072
0.0009827598785248351
0.0009827599750896364
0.0009827600820690931
0.000982760167012185
0.0009827602175579105
0.0009827602006519047
0.0009827602269863076
0.0009827604611454849
0.0009827605590217168
0.0009827606234234663
0.0009827606334318034
0.0009827605968042231
0.0009827606210113765
0.0009827605360653161
0.000982760581407723
0.0009827606786148039
0.001191249814425129
0.001191250076302311
0.001191250150266439
0.001191250279936805
0.001191250352437289
0.001191250377993543
0.001191250446643278
0.001191250492429238
0.001191250606760981
0.001191250628105219
0.001191250670289978
0.001191250648053716
0.001191250654360857
0.001191250655431534
0.001191250450474387
0.001191250487215764
0.001191250344289631
0.001191250097821237
0.001191250148087683
0.001191249975213158
0.00119125010038551
0.001191250042451659
0.001191249948673084
0.001191249984160049
0.001191249941621771
0.001191249954530314
0.001191249844152946
0.001191249925343547
0.001191249823948377
0.001191249574644573
0.001191249295536856
0.00119124927423656
0.001191248942535697
0.001191248919760373
0.001191248707945043
0.001191248457160053
0.001191248443108717
0.00119124825076789
0.001191248243339592
0.001191248140439226
0.001191248313795849
0.00119124844218835
0.001191248700289784
0.001191248810746274
0.001191248923415595
0.001191249040699543
0.001191249061189442
0.001191249068903856
0.0011912491767375
0.001191249366650013
0.001191249496286246
0.001191249569664429
0.001191249540813069
0.001191249499611207
0.001191249534930737
0.001191249477547954
0.001191249501287949
0.001191249699635571
0.001459277429768553
0.00145927774192818
0.001459277817269171
0.001459277981867998
0.001459278067847585
0.001459278075799679
0.001459278128743533
0.001459278217978843
0.001459278357171638
0.001459278442453554
0.001459278512672565
0.001459278464878904
0.001459278486380197
0.001459278458567059
0.001459278216355121
0.001459278279702534
0.001459278110570288
0.001459277809378384
0.001459277873958883
0.001459277664351735
0.001459277830731959
0.001459277758475325
0.00145927765339607
0.001459277704663485
0.001459277656569932
0.001459277677494536
0.001459277547279595
0.001459277663898984
0.001459277546683507
0.001459277241909866
0.001459276901473696
0.00145927686531961
0.00145927645245125
0.001459276415916041
0.001459276190086734
0.001459275869426868
0.001459275851522588
0.001459275614373208
0.001459275619403671
0.001459275473843078
0.001459275634143158
0.0014592757963651
0.001459276083451092
0.001459276191349121
0.001459276310273423
0.001459276448551609
0.001459276467625608
0.001459276567882276
0.001459276693936807
0.001459276820407769
0.001459276997122306
0.001459277045626224
0.001459277022850954
0.001459276946686698
0.00145927700345133
0.001459276866566231
0.001459277097386624
0.001459277280489346
0.001806334084816998
0.001806334427697542
0.0018063345123383
0.001806334719206832
0.001806334829531141
0.001806334761104677
0.001806334926062529
0.001806335003641058
0.00180633512520102
0.001806335321026397
0.001806335371853477
0.001806335411907687
0.001806335374465723
0.001806335365243643
0.00180633508793482
0.001806335161279013
0.001806334980800014
0.001806334612925814
0.001806334695454905
0.001806334454384429
0.001806334652239631
0.001806334573445429
0.001806334450521115
0.00180633451928049
0.001806334468306455
0.001806334503476965
0.001806334355385503
0.001806334504228971
0.00180633436941047
0.001806334012636199
0.001806333593563238
0.00180633353478216
0.001806333028640012
0.001806332912006084
0.001806332730956841
0.001806332289389982
0.001806332336662304
0.001806332010975022
0.001806332013452346
0.001806331816087196
0.001806331956594493
0.001806332121467093
0.001806332465691798
0.00180633253973273
0.00180633267070085
0.001806332880110978
0.001806332876422927
0.001806333080150365
0.001806333224365336
0.001806333291527278
0.001806333514153246
0.001806333549033817
0.001806333512292143
0.001806333432557411
0.001806333440552998
0.001806333321534557
0.001806333696064168
0.00180633387649893
0.002251142737083084
0.00225114305330563
0.002251143102046077
0.002251143363269906
0.002251143507922879
0.002251143508711636
0.002251143725507189
0.002251143834511814
0.002251143949197535
0.002251144211564214
0.002251144270719044
0.002251144355542557
0.002251144228794167
0.002251144311281803
0.002251144019891065
0.002251144034477313
0.002251143902748389
0.002251143472517939
0.002251143577732248
0.002251143291083581
0.002251143507317924
0.002251143440945098
0.002251143293609738
0.002251143382915816
0.002251143326013763
0.002251143378199426
0.002251143204401949
0.002251143380889265
0.002251143223128703
0.002251142835264461
0.00225114234253219
0.00225114223426355
0.002251141721031124
0.00225114132489545
0.002251141282550402
0.002251140733710499
0.002251140804167333
0.002251140408827102
0.002251140404063238
0.002251140153000174
0.002251140313902479
0.00225114037147647
0.00225114079699784
0.002251140768650324
0.002251140984006205
0.002251141238121937
0.002251141360088149
0.002251141588290275
0.002251141677821348
0.002251141750727826
0.002251141985674703
0.002251141955950532
0.002251141944330357
0.002251141788440278
0.002251141907678795
0.002251141750090207
0.002251142253995556
0.002251142446334735
0.002804401437145682
0.002804401766477956
0.002804401999444721
0.002804402178156235
0.002804402280366933
0.002804402304592032
0.002804402704531397
0.002804402804280379
0.002804403026827806
0.002804403263050225
0.002804403339418661
0.00280440345039765
0.002804403401320996
0.002804403438914043
0.002804403134552126
0.002804403146154324
0.002804403028309725
0.0028044025499247
0.002804402680004762
0.002804402392785306
0.002804402486749289
0.002804402593281201
0.002804402363528478
0.002804402471906696
0.002804402410227049
0.002804402472176391
0.002804402274605248
0.002804402461657596
0.00280440228151719
0.002804401888410298
0.002804401417005693
0.002804401090091313
0.002804400600336589
0.002804400024548131
0.002804400025771315
0.002804399412504523
0.002804399477955595
0.00280439901686003
0.002804399011868055
0.002804398748726595
0.002804398774179895
0.002804398704711559
0.002804399249130304
0.002804399313300556
0.002804399479642636
0.002804399751023503
0.00280439991375576
0.002804400208381086
0.002804400153678285
0.002804400376606137
0.002804400578942631
0.002804400466333934
0.002804400569440138
0.002804400351542132
0.002804400457235866
0.002804400335451116
0.002804400878364183
0.002804401141634893
0.003467168305540528
0.00346716883235607
0.003467169047686806
0.003467169161636198
0.003467169412299574
0.003467169587799782
0.003467169902798775
0.003467170014248131
0.003467170343985597
0.00346717053137884
0.003467170731689354
0.003467170737012458
0.003467170724418431
0.003467170854264306
0.00346717053592775
0.00346717053406731
0.003467170407304932
0.003467169923881313
0.003467170055283407
0.003467169768160441
0.003467169830305351
0.003467169998905182
0.003467169751275749
0.003467169871564259
0.003467169799080278
0.003467169846992941
0.003467169617067639
0.003467169778211192
0.003467169534915883
0.003467169121111912
0.00346716860702223
0.003467168156209463
0.003467167669839489
0.003467167001598416
0.003467167013501188
0.003467166377796948
0.003467166319976983
0.003467165868094016
0.003467165842961505
0.003467165547563414
0.003467165568520635
0.003467165439339962
0.003467166042334486
0.003467165974184048
0.003467166223402682
0.003467166464849269
0.003467166685311177
0.00346716697938008
0.003467166931513424
0.003467167219480019
0.00346716733284587
0.003467167248958903
0.00346716736233862
0.00346716716557854
0.003467167191867535
0.003467167209582608
0.003467167661854485
0.003467168050025237
0.00421314566572401
0.004213146312609484
0.004213146499138707
0.004213146757783105
0.004213147019938771
0.00421314718410446
0.0042131475205677
0.004213147662453002
0.004213148103567451
0.004213148286193225
0.004213148571503093
0.004213148604733519
0.004213148626581818
0.004213148701703803
0.004213148387909954
0.004213148347500365
0.004213148161895676
0.004213147736614927
0.004213147836694628
0.004213147583747509
0.00421314766150853
0.004213147811616084
0.004213147610982024
0.004213147746142152
0.004213147651023826
0.004213147679355588
0.004213147391339891
0.004213147477144032
0.00421314704106109
0.004213146635494221
0.004213145932691021
0.004213145436069814
0.004213144834515525
0.004213144187330056
0.004213144103080087
0.004213143456676321
0.004213143367399141
0.004213142934090724
0.004213142890942417
0.00421314263230536
0.004213142645747388
0.004213142584370661
0.00421314314745685
0.004213143142378807
0.004213143386820761
0.004213143692631499
0.004213143884552924
0.004213144149919881
0.00421314416890039
0.004213144435210679
0.004213144488950196
0.004213144437500766
0.004213144526022014
0.004213144321792621
0.00421314449140597
0.004213144628773708
0.004213144872906379
0.004213145396845292
0.005001447753759652
0.005001448434101217
0.005001448646250926
0.005001449059494554
0.005001449301512485
0.00500144943303403
0.005001449821314928
0.005001449995130421
0.005001450551846087
0.005001450768532791
0.00500145112148923
0.005001451139951151
0.005001451260180151
0.005001451229350565
0.005001450923499228
0.005001450845036707
0.00500145058613087
0.005001450259553964
0.005001450306856618
0.005001450114253896
0.005001450259936883
0.005001450330458814
0.005001450240086107
0.005001450412203533
0.005001450292976091
0.005001450306598371
0.005001449909385641
0.005001449892601815
0.005001449220000364
0.005001448821859652
0.00500144786514364
0.005001447346773449
0.005001446593580729
0.005001445985775954
0.00500144570511297
0.005001445094797543
0.005001445016669452
0.00500144459511994
0.005001444531848055
0.005001444322741768
0.005001444425673644
0.005001444488470769
0.005001444952104442
0.005001445052102263
0.005001445312590361
0.005001445653591358
0.005001445823615683
0.005001446098938993
0.005001446222042428
0.005001446398694403
0.005001446437610334
0.005001446375308121
0.005001446391402547
0.005001446258980056
0.005001446403421625
0.005001446608958205
0.005001446823814865
0.005001447446815219
0.005793719557916372
0.005793720266544822
0.005793720478837495
0.005793721025013848
0.005793721265690103
0.005793721362276126
0.005793721842599393
0.005793722011689675
0.005793722661904317
0.00579372291605621
0.005793723320675939
0.005793723386812078
0.005793723504009913
0.005793723504948264
0.005793723112727925
0.005793723000053485
0.005793722708159353
0.005793722492926412
0.005793722494495749
0.005793722369675763
0.005793722589016699
0.0057937227004525
0.005793722655761375
0.005793722888252195
0.005793722768503377
0.005793722803296876
0.005793722228042661
0.005793722084728161
0.005793721240610348
0.005793720808348178
0.005793719626155563
0.005793719054446224
0.005793718121815255
0.005793717516266004
0.005793717135150698
0.005793716550669048
0.005793716407206335
0.005793716066679256
0.005793715999314272
0.005793715887132821
0.005793716023363403
0.005793716122465408
0.005793716609301241
0.005793716782162748
0.005793717075270368
0.005793717462990938
0.005793717620111328
0.005793717904211216
0.005793718015104627
0.005793718132514351
0.005793718176486337
0.005793718084569026
0.005793718087382272
0.005793717963750388
0.00579371803320916
0.005793718294547372
0.005793718542574432
0.005793719231850037
0.006561431371686343
0.006561432111824068
0.006561432276785839
0.006561432934518743
0.00656143322667261
0.006561433278839706
0.006561433849978776
0.00656143398302788
0.006561434753160554
0.006561434988973632
0.006561435509007192
0.006561435538235343
0.0065614356808024
0.006561435769996081
0.006561435278107395
0.00656143510624932
0.006561434841324311
0.006561434708617924
0.006561434725360673
0.006561434665687381
0.006561434909593604
0.006561435158772451
0.006561435138159576
0.006561435462945802
0.006561435370077471
0.006561435454876729
0.006561434693295244
0.006561434443177402
0.006561433484177251
0.00656143299805816
0.006561431641681972
0.006561430992976663
0.006561429906803423
0.006561429279244134
0.006561428855485728
0.006561428247735031
0.006561428052399106
0.006561427817199016
0.006561427719541995
0.006561427713381309
0.006561427831441813
0.006561427960601077
0.006561428500727433
0.006561428759898797
0.00656142904594331
0.006561429514229239
0.006561429613949479
0.006561429938518121
0.006561429968829028
0.006561430077362033
0.006561430023043989
0.00656142991709717
0.006561429888461301
0.006561429757111232
0.006561429779372777
0.006561430030838646
0.006561430335781837
0.006561431064496679
0.007287639013514793
0.007287639777899304
0.007287639884881856
0.007287640574809694
0.007287640955859403
0.007287641023296077
0.007287641618253658
0.007287641716844401
0.007287642603862334
0.007287642797254454
0.007287643450338171
0.007287643511718611
0.007287643586764
0.007287643782973186
0.007287643248567351
0.007287643039514825
0.007287642828514784
0.007287642733691142
0.007287642783608259
0.007287642782254041
0.007287643106435422
0.007287643520069721
0.007287643450188398
0.00728764392924107
0.007287643884776532
0.007287644054874324
0.007287643159074419
0.007287642842940002
0.007287641803019832
0.007287641268481831
0.007287639777247935
0.007287639057052422
0.007287637857735798
0.007287637186749706
0.007287636745362916
0.00728763607100457
0.007287635832158543
0.007287635705238528
0.007287635607929736
0.00728763566161074
0.00728763580002673
0.007287635921987932
0.007287636476288304
0.007287636869412367
0.007287637059369089
0.007287637612728583
0.007287637661776842
0.00728763802168843
0.007287637996298512
0.007287638026393709
0.007287637919546879
0.007287637691308211
0.007287637586270546
0.007287637473832858
0.007287637496324004
0.007287637667941024
0.007287638017694272
0.007287638796400193
0.007964366917366177
0.00796436769389159
0.007964367746730969
0.007964368398749422
0.007964368890989747
0.007964368937387507
0.007964369552351034
0.007964369624762534
0.007964370615438395
0.007964370778980051
0.007964371565919051
0.007964371634109972
0.007964371655491366
0.007964371933011796
0.007964371409462653
0.007964371232347644
0.0079643710828821
0.007964370981367395
0.007964371061194752
0.007964371096648278
0.007964371579091269
0.007964372124528699
0.00796437205792189
0.007964372682476803
0.00796437268473039
0.007964372985094028
0.007964372033364798
0.007964371703015741
0.007964370606908586
0.007964370040921999
0.007964368456840816
0.007964367683914715
0.007964366414935234
0.007964365688602912
0.00796436523225961
0.007964364515983806
0.007964364227012449
0.007964364121391841
0.007964364117753937
0.007964364145980122
0.007964364399765011
0.007964364454833022
0.007964364954463362
0.007964365496015292
0.007964365561106603
0.007964366176889748
0.007964366277226749
0.007964366657063793
0.007964366424325008
0.007964366321256394
0.007964366244688496
0.007964365865820684
0.007964365755363845
0.00796436550627088
0.00796436556490665
0.00796436565450041
0.007964365973808346
0.007964366779091398
0.008588961051908487
0.008588961815708621
0.0085889618290074
0.008588962374110847
0.00858896296862351
0.008588962984286137
0.008588963598467786
0.008588963662961819
0.008588964734403279
0.008588964879011715
0.008588965773829392
0.008588965854413327
0.008588965855488727
0.008588966198618497
0.008588965703035885
0.008588965526778684
0.008588965599129982
0.008588965373212906
0.008588965475792567
0.00858896556973477
0.008588966240858286
0.008588966867937302
0.008588966907565807
0.008588967650898775
0.008588967653861065
0.008588968137660889
0.008588967235806865
0.00858896695425446
0.008588965826176666
0.008588965237803621