/*--------------------------------*- C++ -*----------------------------------*\
| =========                 |                                                 |
| \\      /  F ield         | OpenFOAM: The Open Source CFD Toolbox           |
|  \\    /   O peration     | Version:  v1812                                 |
|   \\  /    A nd           | Web:      www.OpenFOAM.com                      |
|    \\/     M anipulation  |                                                 |
\*---------------------------------------------------------------------------*/
FoamFile
{
    version     2.0;
    format      ascii;
    class       volScalarField;
    location    "10000";
    object      nuTilda_0;
}
// * * * * * * * * * * * * * * * * * * * * * * * * * * * * * * * * * * * * * //

dimensions      [0 2 -1 0 0 0 0];


internalField   nonuniform List<scalar> 
3770
(
0.0004955055360277181
0.0004955055512486841
0.0004955055491099215
0.0004955055498606394
0.0004955055496577586
0.0004955055496837904
0.0004955055498212493
0.0004955055496464493
0.0004955055499005023
0.0004955055497327447
0.0004955055500575985
0.0004955055498447468
0.0004955055499970615
0.0004955055497215979
0.000495505549733966
0.0004955055495072913
0.0004955055492835648
0.0004955055491954748
0.0004955055488822369
0.0004955055493890394
0.0004955055488172048
0.0004955055491403653
0.0004955055493006961
0.000495505549079602
0.0004955055494485609
0.0004955055491155316
0.0004955055493723921
0.0004955055491889346
0.0004955055491311142
0.000495505548974278
0.0004955055487619871
0.0004955055486169528
0.000495505548344515
0.0004955055481802972
0.0004955055479770016
0.000495505548020388
0.0004955055478211506
0.0004955055477519296
0.0004955055478382308
0.0004955055477210259
0.0004955055478474645
0.0004955055475335186
0.0004955055491554337
0.0004955055485048958
0.0004955055489971221
0.000495505549335261
0.0004955055493991449
0.0004955055497268613
0.0004955055495438908
0.0004955055499416124
0.0004955055495151688
0.0004955055498314739
0.0004955055493914968
0.0004955055494158627
0.0004955055491625213
0.0004955055489420052
0.0004955055486334667
0.000495505547189757
0.0002726772083165322
0.0002726771284695564
0.0002726771340668087
0.0002726771329300587
0.0002726771342026721
0.0002726771342146819
0.0002726771377461181
0.0002726771370624196
0.000272677140210633
0.0002726771385397024
0.0002726771390165853
0.0002726771355391249
0.0002726771356205825
0.0002726771292711377
0.0002726771272993516
0.0002726771233261639
0.0002726771203706235
0.0002726771175510402
0.000272677115848478
0.0002726771165563153
0.0002726771160827189
0.0002726771158200038
0.0002726771166424483
0.0002726771145084536
0.0002726771151895271
0.0002726771112680911
0.0002726771104749762
0.0002726771061083306
0.0002726771019161135
0.0002726770965437751
0.0002726770911475848
0.0002726770875991662
0.0002726770833111253
0.0002726770807313644
0.0002726770780390453
0.0002726770777708641
0.0002726770776089084
0.0002726770771043598
0.0002726770804488602
0.0002726770817557749
0.0002726770833556139
0.0002726770849449696
0.0002726770971104343
0.0002726771005683262
0.0002726771058170652
0.0002726771129770784
0.0002726771145447465
0.0002726771191775373
0.0002726771179322451
0.0002726771233367995
0.0002726771193073831
0.0002726771238720185
0.0002726771217055993
0.0002726771240568888
0.0002726771228928889
0.0002726771224971627
0.0002726771269403834
0.0002726771417949968
0.0002285533678380904
0.0002285533183090461
0.0002285533299758562
0.0002285533260220812
0.0002285533323995777
0.0002285533355030855
0.0002285533431946073
0.0002285533457166148
0.0002285533517650261
0.0002285533503319954
0.0002285533516404506
0.0002285533464918439
0.0002285533467948824
0.0002285533392692997
0.0002285533287952911
0.0002285533261758669
0.000228553321118324
0.0002285533100534002
0.0002285533089619047
0.0002285533063875127
0.0002285533041785848
0.0002285533053633466
0.0002285533003760095
0.0002285532981471198
0.0002285532938269592
0.000228553290676539
0.0002285532817440574
0.0002285532765994189
0.000228553261074029
0.0002285532544397196
0.0002285532367036674
0.0002285532312202834
0.0002285532158382714
0.0002285532119755363
0.0002285532022631374
0.0002285531957520051
0.0002285531953855217
0.0002285531907965792
0.0002285531964546831
0.0002285531983037778
0.0002285531962463509
0.000228553198050889
0.0002285532245928565
0.0002285532388071914
0.0002285532522829102
0.0002285532647432365
0.0002285532718415801
0.0002285532792759384
0.0002285532813585215
0.0002285532900432813
0.0002285532902580233
0.0002285532986204921
0.000228553305659772
0.0002285533104470614
0.0002285533109535477
0.0002285533070046658
0.0002285533113647379
0.0002285533225422568
0.0002471791467773896
0.0002471791848153351
0.0002471791806274077
0.0002471791844637688
0.0002471792024364271
0.000247179212823919
0.0002471792264030007
0.0002471792325167212
0.0002471792444313533
0.0002471792505363762
0.0002471792531032131
0.0002471792481646762
0.000247179254790128
0.0002471792562130335
0.0002471792315645554
0.0002471792351174298
0.0002471792276609938
0.00024717919870409
0.0002471792002802528
0.0002471791873496915
0.000247179187897764
0.0002471791925048268
0.0002471791751811158
0.0002471791784459137
0.0002471791670860101
0.0002471791704570478
0.0002471791498826943
0.0002471791486747838
0.0002471791183994405
0.0002471791163654998
0.0002471790778221917
0.0002471790709579073
0.0002471790344232351
0.0002471790315794472
0.000247179006541878
0.0002471789810867381
0.0002471789788243067
0.0002471789629619742
0.0002471789660836648
0.0002471789654720273
0.0002471789465417469
0.0002471789532077685
0.000247179000228588
0.0002471790261396272
0.0002471790533683983
0.0002471790642377338
0.0002471790812267028
0.0002471790930507455
0.0002471790995912389
0.0002471791176159424
0.0002471791271784503
0.0002471791387966818
0.0002471791620340846
0.0002471791639463803
0.0002471791681318166
0.0002471791509506213
0.0002471791425628123
0.0002471791136902027
0.0002996634724538911
0.0002996635408696861
0.0002996635355104742
0.0002996635628729361
0.0002996635910035501
0.0002996636073722804
0.0002996636185667995
0.0002996636296318681
0.0002996636392818944
0.0002996636633722214
0.0002996636625606764
0.0002996636533086902
0.000299663666832358
0.0002996636707914417
0.0002996636304008073
0.0002996636298795242
0.000299663620267694
0.0002996635685454094
0.0002996635714041274
0.0002996635485838886
0.0002996635499627156
0.0002996635577784791
0.0002996635263419801
0.0002996635326769173
0.0002996635144466474
0.0002996635199368572
0.0002996634863610009
0.0002996634854168591
0.0002996634413676395
0.0002996634329141621
0.000299663368541362
0.0002996633576060048
0.0002996632959013779
0.0002996632936713772
0.0002996632523322203
0.0002996632067825312
0.0002996632011844811
0.0002996631762712095
0.000299663184919431
0.0002996631837729792
0.0002996631550619451
0.0002996631688975063
0.0002996632431669903
0.0002996632914060425
0.0002996633308601904
0.0002996633466952638
0.0002996633741944885
0.0002996633939196
0.0002996634035270951
0.0002996634362092168
0.0002996634530367796
0.0002996634710317832
0.0002996635100410024
0.0002996635096171257
0.0002996635177064537
0.0002996634902816691
0.0002996634763307377
0.000299663426376398
0.0003730129832530981
0.0003730130665318702
0.0003730130647716746
0.0003730131130862236
0.0003730131475473217
0.0003730131714467378
0.0003730131874567932
0.0003730131896888301
0.0003730132086700438
0.0003730132391254181
0.0003730132392312831
0.0003730132233407996
0.0003730132397627989
0.0003730132437503394
0.0003730131859092444
0.0003730131837052396
0.0003730131654133813
0.0003730130913477127
0.0003730130949164141
0.000373013058287801
0.0003730130627660241
0.0003730130707760551
0.0003730130246746129
0.0003730130393795275
0.0003730130114197651
0.0003730130149060054
0.0003730129687785574
0.0003730129686765916
0.0003730129232256458
0.0003730128887072589
0.0003730128015411569
0.0003730127854780911
0.0003730126989185538
0.0003730126969459804
0.0003730126371629177
0.0003730125718735637
0.0003730125656144383
0.0003730125314238365
0.0003730125453167407
0.0003730125412929517
0.0003730125156093944
0.0003730125323476435
0.000373012641761819
0.0003730127124339772
0.0003730127647787975
0.0003730127891650422
0.0003730128271473995
0.0003730128518163249
0.0003730128634984786
0.0003730129119458291
0.0003730129379005692
0.0003730129622443552
0.0003730130166246993
0.0003730130153081982
0.0003730130248980068
0.0003730129928134333
0.0003730129799919363
0.0003730129127869141
0.0004614483559818247
0.0004614484461315506
0.0004614484749738547
0.0004614485149325594
0.0004614485650824182
0.0004614485934235828
0.0004614486060733284
0.0004614486256047218
0.0004614486481088709
0.0004614486734701234
0.0004614486786649099
0.0004614486552420914
0.0004614486730476021
0.0004614486679755393
0.0004614485965459938
0.0004614485946722426
0.000461448562040627
0.0004614484667761323
0.0004614484697111785
0.0004614484226952646
0.0004614484242985208
0.0004614484349059492
0.0004614483747154258
0.0004614483939455236
0.0004614483605201586
0.0004614483566457093
0.0004614482990247331
0.000461448311456956
0.0004614482530207255
0.0004614481941839956
0.0004614480859222388
0.0004614480640389184
0.0004614479522980168
0.0004614479518655204
0.0004614478716515798
0.0004614477878614215
0.0004614477811930837
0.0004614477396060722
0.0004614477547361568
0.0004614477348623594
0.0004614477401436346
0.0004614477461906905
0.0004614478991181875
0.0004614479911848236
0.0004614480539170339
0.000461448087720303
0.0004614481338263436
0.0004614481548550955
0.0004614481692236592
0.0004614482381109497
0.0004614482735816171
0.0004614483032539487
0.000461448374176375
0.0004614483711148253
0.0004614483847149753
0.0004614483472548548
0.0004614483315236593
0.0004614482657144636
0.0005632125945283723
0.0005632127193373976
0.000563212761635569
0.0005632128106266529
0.0005632128646714787
0.0005632128951451593
0.0005632129076531644
0.0005632129415666168
0.0005632129697165028
0.0005632129961598518
0.0005632130045814501
0.0005632129751616342
0.0005632129932626167
0.0005632129893585475
0.0005632128928149265
0.0005632129058608862
0.0005632128479411014
0.0005632127316804432
0.0005632127345387492
0.000563212672934323
0.0005632126751039475
0.000563212689077753
0.0005632126163860185
0.0005632126396377812
0.0005632126007862446
0.0005632125958319658
0.0005632125268018433
0.0005632125478062357
0.0005632124787895885
0.0005632123958768835
0.0005632122655172053
0.0005632122382403939
0.0005632120987600634
0.0005632121003975598
0.0005632119957099852
0.0005632118913566829
0.0005632118833383023
0.0005632118273014233
0.0005632118368267867
0.0005632117974079044
0.0005632118385895844
0.0005632118675414423
0.0005632120379215001
0.0005632121442740696
0.0005632122212163121
0.0005632122659582246
0.0005632123200410074
0.0005632123249325816
0.0005632123403160947
0.0005632124382774994
0.0005632124857460274
0.0005632125208248649
0.0005632126067367349
0.0005632125990085064
0.0005632126134541145
0.0005632125777420176
0.0005632125641764048
0.0005632124902830531
0.000679930930090056
0.0006799310784165876
0.0006799311330000696
0.0006799311914833853
0.0006799312515618281
0.0006799312843470688
0.0006799312999839987
0.0006799313540590977
0.0006799313743200187
0.0006799314097583549
0.000679931425401393
0.0006799313910205041
0.0006799314044964904
0.0006799314205239384
0.0006799312866464167
0.0006799313085151361
0.0006799312271523415
0.0006799310890568133
0.0006799310902354305
0.0006799310182437514
0.0006799310246692343
0.0006799310395810001
0.0006799309550945813
0.000679930975930127
0.0006799309374526286
0.0006799309314460471
0.0006799308571528175
0.0006799308820968048
0.0006799308044183452
0.0006799306952181646
0.0006799305380660776
0.0006799305091332341
0.0006799303332447709
0.0006799303353575483
0.0006799302084159889
0.0006799300790900524
0.0006799300702552145
0.0006799299942600457
0.0006799299974986555
0.000679929942082065
0.0006799300318358036
0.0006799300651546518
0.0006799302637031399
0.0006799303778658734
0.0006799304670268771
0.0006799305222048288
0.000679930575303144
0.0006799305802591562
0.0006799305662737913
0.0006799307112982583
0.0006799307738872664
0.0006799308153114393
0.000679930908639978
0.0006799308947492302
0.0006799309125129971
0.0006799308650844567
0.0006799308646498395
0.0006799308054550568
0.000816748520943805
0.0008167486973127739
0.0008167487633022655
0.0008167488322108248
0.0008167488925079188
0.0008167489319029747
0.0008167489598917899
0.0008167490311436792
0.0008167490587267351
0.0008167490849364286
0.0008167491167312695
0.0008167490792015917
0.0008167490945323483
0.000816749111684699
0.0008167489554378695
0.0008167489835368414
0.0008167488793072936
0.0008167487169709487
0.000816748716935903
0.0008167486274981229
0.0008167486461687981
0.0008167486608088039
0.0008167485663399222
0.0008167485833512078
0.0008167485468598038
0.0008167485444724044
0.0008167484659555926
0.0008167484895119334
0.000816748409241204
0.000816748267508038
0.0008167480748279852
0.0008167480620884748
0.0008167478328335958
0.0008167478354656314
0.0008167476818998795
0.0008167475185227577
0.0008167475166144586
0.0008167474060938192
0.0008167474050244759
0.0008167473315722193
0.0008167474617137956
0.0008167475095724243
0.0008167477405329608
0.00081674785153399
0.0008167479601903352
0.0008167480281158024
0.0008167480558315569
0.0008167480840139723
0.0008167480569544276
0.0008167482352486424
0.000816748318846821
0.0008167483685182094
0.0008167484467237111
0.0008167484386666348
0.000816748453432647
0.000816748376953677
0.0008167484083048417
0.0008167483845122761
0.0009827611301401579
0.0009827613275094186
0.0009827614074810814
0.0009827615011317214
0.0009827615587043167
0.0009827616018540453
0.0009827616669038975
0.000982761731581693
0.0009827617509441844
0.0009827618221310214
0.0009827618335527543
0.000982761800837405
0.0009827618292416213
0.0009827618140615577
0.0009827616573094668
0.0009827616844573571
0.0009827615604868819
0.0009827613698966807
0.0009827613657812338
0.0009827612665668786
0.0009827612896606828
0.0009827613111159661
0.0009827612021983912
0.0009827612202788555
0.0009827611855052008
0.0009827611865845624
0.0009827611152911297
0.0009827611080081991
0.0009827610486003037
0.000982760866636463
0.0009827606337182992
0.000982760620752304
0.0009827603418330014
0.0009827603431653337
0.000982760159478764
0.0009827599475450953
0.0009827599726250776
0.0009827598080278316
0.0009827598120341469
0.000982759713069259
0.0009827598919648064
0.0009827599484439884
0.0009827602065472099
0.0009827603143852011
0.0009827604356964685
0.0009827605041601772
0.0009827605404037125
0.0009827605671854564
0.0009827605436968691
0.0009827607578564777
0.0009827608573914372
0.0009827609185613421
0.0009827609667675972
0.0009827609845229745
0.0009827609566327089
0.0009827608970506391
0.0009827609274284544
0.0009827610130451279
0.001191250210557402
0.001191250431328068
0.001191250518841771
0.001191250640577339
0.001191250712358454
0.001191250758419343
0.001191250859284797
0.001191250902509267
0.001191250968388298
0.00119125103999829
0.001191251056620533
0.001191251034270005
0.001191251079294082
0.001191251031743077
0.001191250868343549
0.001191250862691369
0.001191250746541952
0.001191250518543274
0.001191250509611241
0.001191250391694383
0.001191250427188681
0.001191250456409144
0.001191250330834813
0.001191250359601494
0.001191250321312842
0.001191250330865438
0.001191250254316249
0.001191250239925546
0.001191250192011183
0.001191249960944299
0.001191249679076738
0.001191249659353083
0.001191249325206648
0.001191249318618596
0.001191249105604865
0.001191248840491326
0.001191248875822296
0.001191248656313643
0.001191248664135004
0.001191248534315173
0.001191248754567582
0.001191248820241822
0.00119124909704691
0.001191249204733371
0.001191249335319181
0.001191249401138452
0.001191249498788369
0.001191249488032602
0.001191249488635806
0.001191249747169682
0.001191249840714576
0.001191249918227911
0.00119124996089459
0.001191249929831741
0.001191249918699657
0.001191249895107626
0.001191249879279302
0.001191250079304802
0.001459277890766381
0.001459278147221741
0.001459278263255872
0.001459278407264921
0.001459278497500806
0.001459278554251803
0.001459278639380911
0.001459278665788226
0.001459278820415958
0.001459278891894662
0.001459278929780474
0.001459278975241894
0.001459278933309443
0.001459278905003291
0.001459278714771214
0.001459278699996525
0.001459278585539576
0.001459278311867856
0.001459278291735991
0.001459278162918302
0.001459278205299627
0.001459278250768985
0.001459278101769437
0.001459278141874164
0.001459278101847488
0.001459278121610614
0.001459278037238863
0.00145927802220662
0.00145927798560827
0.00145927769859828
0.001459277352389572
0.001459277319098607
0.001459276914014401
0.001459276882977537
0.001459276660148913
0.001459276331893971
0.001459276359950747
0.001459276076219241
0.001459276131555985
0.001459275935419481
0.001459276188138769
0.00145927624708275
0.001459276537667062
0.001459276663287774
0.001459276788822526
0.001459276915568939
0.001459276969768621
0.00145927699169468
0.001459277024716859
0.001459277333085014
0.001459277367250095
0.001459277475039695
0.001459277513462531
0.001459277465167191
0.001459277459675345
0.001459277357317387
0.001459277510370386
0.001459277728873543
0.001806334596092887
0.001806334936786952
0.001806335082174264
0.001806335241727865
0.001806335355719281
0.001806335431687657
0.001806335435186215
0.00180633544485522
0.001806335766769272
0.00180633577432507
0.001806335998580987
0.001806335952719147
0.001806335917559982
0.001806335892031606
0.001806335671668856
0.001806335663806893
0.001806335553298558
0.001806335223698327
0.001806335188423766
0.001806335037348661
0.001806335097188573
0.001806335163840581
0.001806334986486783
0.001806335045060174
0.001806334998000384
0.00180633503401816
0.001806334934913565
0.001806334923440266
0.001806334900198109
0.001806334558819141
0.001806334133817364
0.001806334079933696
0.001806333586948664
0.001806333477503148
0.001806333302895772
0.001806332901631195
0.001806332868338055
0.001806332555734595
0.001806332638088288
0.001806332380446048
0.001806332617672012
0.001806332671813627
0.001806332969701156
0.001806333127099855
0.001806333235066257
0.001806333399936361
0.00180633351052449
0.001806333528981486
0.00180633367072444
0.001806333921764934
0.001806333964767432
0.001806334013462944
0.001806334086929951
0.001806334046074147
0.001806334048459521
0.001806333902665062
0.001806334157225204
0.001806334397038906
0.00225114327128596
0.002251143764473539
0.002251143764228842
0.00225114404973215
0.00225114414210489
0.002251144208891597
0.002251144281137166
0.002251144395892286
0.002251144683813319
0.002251144722306242
0.002251145034930242
0.002251144971782127
0.002251144914721664
0.002251144898943493
0.002251144626876049
0.002251144719676649
0.002251144563005627
0.002251144175233658
0.002251144156179684
0.002251143964025437
0.002251144048637762
0.00225114412510925
0.002251143919835255
0.002251143993545115
0.002251143940215183
0.002251143995338616
0.002251143876415104
0.002251143871464681
0.002251143849765726
0.002251143472925535
0.002251142972537982
0.002251142866580024
0.002251142373937319
0.002251142000261276
0.002251141950793642
0.002251141459977756
0.002251141406940286
0.002251141041550314
0.002251141146297465
0.002251140846503635
0.002251140941675096
0.002251141033745635
0.002251141362851386
0.002251141547448712
0.002251141589593987
0.002251141831105336
0.002251141987629301
0.002251142143936234
0.002251142273060522
0.002251142403194196
0.00225114244895915
0.002251142626107702
0.002251142646311955
0.002251142545213606
0.002251142522357534
0.00225114240080099
0.002251142827000514
0.002251143043330696
0.002804402087506687
0.002804402635797615
0.002804402653245363
0.002804403022976066
0.002804403071769575
0.002804403066738913
0.00280440337756916
0.002804403524954291
0.002804403781109038
0.002804403890801349
0.002804404226907612
0.002804404180186547
0.002804404139488079
0.002804404097129555
0.002804403824752749
0.002804403972985984
0.002804403801439079
0.002804403369119825
0.002804403346869088
0.002804403103491484
0.002804403321743821
0.00280440327815143
0.002804403096541938
0.002804403186960974
0.00280440312397295
0.002804403204494215
0.002804403054895713
0.002804403047811774
0.002804403015766581
0.002804402632534558
0.002804402155626031
0.002804401827527765
0.002804401372121955
0.002804400872600546
0.002804400751778278
0.002804400247228615
0.002804400190255778
0.002804399753034394
0.002804399872282882
0.002804399539363894
0.002804399560049043
0.002804399471747079
0.002804399933187809
0.002804400114985504
0.002804400204299045
0.002804400455420165
0.002804400603248291
0.002804400857446812
0.002804401006770521
0.002804401012031256
0.002804401181926521
0.002804401293630464
0.0028044012895683
0.002804401190749826
0.002804401157294589
0.002804401085029118
0.002804401572838609
0.002804401834406629
0.003467169062596158
0.003467169576777134
0.003467169796251687
0.00346717009123428
0.003467170132148972
0.003467170370040141
0.003467170643435414
0.003467170796254965
0.00346717105178444
0.003467171384420282
0.003467171507297903
0.003467171558754438
0.003467171568434712
0.003467171535201583
0.003467171257465963
0.00346717141513791
0.003467171221438899
0.003467170790883794
0.00346717075988499
0.003467170516682139
0.003467170742985099
0.003467170698352503
0.003467170519299556
0.003467170615965129
0.003467170539366397
0.003467170650152858
0.003467170446987411
0.0034671704093645
0.003467170309998187
0.003467169901461279
0.003467169382733535
0.003467168927523562
0.003467168479584989
0.003467167891210697
0.003467167757383233
0.003467167160603702
0.003467167187620821
0.003467166624582708
0.00346716673416795
0.003467166329317393
0.003467166452099271
0.003467166242923089
0.003467166718947215
0.003467166921421277
0.003467166931708066
0.003467167254498852
0.003467167377043229
0.003467167674346435
0.003467167873577124
0.003467167893126252
0.003467167950456562
0.00346716812370533
0.003467168073656222
0.003467167989444764
0.003467168018561501
0.003467167996166942
0.003467168400327062
0.003467168779307592
0.004213146285670174
0.004213146854764282
0.004213147118718687
0.004213147481511496
0.004213147597298148
0.004213147798704435
0.004213148133928831
0.004213148289563716
0.004213148678942505
0.004213148992405052
0.004213149117639316
0.004213149281964519
0.004213149330260913
0.004213149252810197
0.004213148974519496
0.004213149072202911
0.004213148820267152
0.00421314843919882
0.004213148403004398
0.004213148179817371
0.004213148395525528
0.004213148372488601
0.004213148226824083
0.004213148343898788
0.004213148244605425
0.004213148312137082
0.004213148036276932
0.004213147994895625
0.004213147656907678
0.004213147264175199
0.004213146558095036
0.004213146056552671
0.004213145484278679
0.004213144871177769
0.004213144747644304
0.004213144073458657
0.004213144077410459
0.004213143542558222
0.004213143615197982
0.004213143285129282
0.004213143317039973
0.004213143247681085
0.004213143652430663
0.004213143878636843
0.004213143961402338
0.004213144266156607
0.004213144469301116
0.004213144701150545
0.004213144912888202
0.00421314493227991
0.004213145098762174
0.004213145129779912
0.004213145104647202
0.004213145005342167
0.004213145161943673
0.00421314527386633
0.004213145475735589
0.004213145981215225
0.005001448094387333
0.005001448748699851
0.005001449001797836
0.00500144945560499
0.005001449627246773
0.005001449768965921
0.005001450190198254
0.00500145034355124
0.005001450875702109
0.005001451139490076
0.005001451411177364
0.005001451557337033
0.005001451584390736
0.005001451596507799
0.005001451263739261
0.00500145127077804
0.005001450961614778
0.005001450664343952
0.005001450629746298
0.005001450454519325
0.005001450660935948
0.005001450675966622
0.00500145058474811
0.005001450742638166
0.005001450624002071
0.005001450635496728
0.005001450249520217
0.005001450200833808
0.005001449563347423
0.005001449183542832
0.00500144822320684
0.005001447701624502
0.005001446968123963
0.005001446375276426
0.005001446088375493
0.005001445472950995
0.005001445409313968
0.00500144495181652
0.005001444958586296
0.00500144469346724
0.005001444816661805
0.005001444860840095
0.005001445241408045
0.005001445429053068
0.005001445648018443
0.005001445979739458
0.005001446162209493
0.005001446432608913
0.005001446582544753
0.005001446692682325
0.005001446760677003
0.005001446720811003
0.005001446754268946
0.005001446671168829
0.005001446799596027
0.005001446993792305
0.005001447173250797
0.005001447771697104
0.005793719579614664
0.005793720288260703
0.005793720518544657
0.005793721067107598
0.005793721286424695
0.005793721383643987
0.005793721872890132
0.005793722033219831
0.005793722689159975
0.005793722942630443
0.005793723334377888
0.005793723421297049
0.005793723523472126
0.005793723547314028
0.005793723152826815
0.00579372306081403
0.005793722760133397
0.005793722549924264
0.005793722528344057
0.005793722410095786
0.005793722623418365
0.005793722735842916
0.005793722683140889
0.005793722906140885
0.005793722786128339
0.005793722801953317
0.005793722240964851
0.005793722087546008
0.005793721267938297
0.005793720859463772
0.005793719671988879
0.005793719102846694
0.005793718182052871
0.005793717585970588
0.005793717201623712
0.005793716626689507
0.005793716482097702
0.005793716117809752
0.005793716067102117
0.005793715935205583
0.005793716069000675
0.005793716152416926
0.005793716611186607
0.005793716811679753
0.005793717086808673
0.005793717479948725
0.005793717647921417
0.005793717930236026
0.00579371804101154
0.005793718136407195
0.005793718179802621
0.005793718100324767
0.005793718136419283
0.005793718038552288
0.00579371810840868
0.005793718371736816
0.005793718589900762
0.005793719253040779
0.006561431077687468
0.006561431818601028
0.006561431998997443
0.006561432641105345
0.006561432939428947
0.006561432980141166
0.006561433551759796
0.006561433680878634
0.00656143445503997
0.006561434683146159
0.006561435215050766
0.006561435233196913
0.006561435386068786
0.006561435501902215
0.006561434981748141
0.00656143482585072
0.006561434568537009
0.006561434430474368
0.006561434441042102
0.006561434388768367
0.006561434611197445
0.006561434864014974
0.006561434846345285
0.006561435157447574
0.00656143506575792
0.006561435129618144
0.006561434391402362
0.006561434134988452
0.006561433193257877
0.006561432733444762
0.006561431373175781
0.006561430729705758
0.006561429650206266
0.006561429026213624
0.00656142858925185
0.006561428028165475
0.006561427804790692
0.006561427538452077
0.006561427464344003
0.006561427430189242
0.00656142754071699
0.006561427656080391
0.00656142817595096
0.006561428454409182
0.00656142872768351
0.006561429209764637
0.006561429317817102
0.006561429645633102
0.006561429671256991
0.006561429772193631
0.006561429688474086
0.006561429614926085
0.006561429615326409
0.006561429510884067
0.006561429502003012
0.006561429793897496
0.00656143007233178
0.006561430776429455
0.007287638420505005
0.007287639184705224
0.007287639301863772
0.007287639972625531
0.007287640394880056
0.007287640386381628
0.007287641011292453
0.007287641107551581
0.007287642004705551
0.007287642184449947
0.007287642884408688
0.007287642857244713
0.007287642990080341
0.007287643244005604
0.00728764259376172
0.007287642447573301
0.007287642245308924
0.007287642150798647
0.007287642196079269
0.007287642189421817
0.007287642487083227
0.007287642882394692
0.00728764289463759
0.007287643320940371
0.007287643275417556
0.007287643418657105
0.007287642562665859
0.007287642233696833
0.007287641208060574
0.007287640705028073
0.007287639211272298
0.007287638498745468
0.007287637302784689
0.007287636628830162
0.007287636160660417
0.007287635586743813
0.007287635297763711
0.007287635090543485
0.007287635081191854
0.007287635047819037
0.007287635191633371
0.007287635301898293
0.007287635836957335
0.007287636253313564
0.007287636428911096
0.007287637005030327
0.007287637043748111
0.007287637421487369
0.007287637392849156
0.007287637417083544
0.007287637229834577
0.007287637142142733
0.007287637018015808
0.007287636922861085
0.00728763691221161
0.007287637126999945
0.007287637455956083
0.007287638212529607
0.007964366050802332
0.007964366822768645
0.007964366886317152
0.007964367514683908
0.007964368061414031
0.007964368004681973
0.007964368661577922
0.007964368729714635
0.007964369727773601
0.007964369883607906
0.007964370732434672
0.007964370676970164
0.007964370793692709
0.007964371163019957
0.00796437040802375
0.00796437039516764
0.00796437023284891
0.007964370137994821
0.00796437020852105
0.007964370165223132
0.007964370673272356
0.007964371196730498
0.007964371227293657
0.007964371793453077
0.007964371784369002
0.007964372052618148
0.007964371189718334
0.007964370816683813
0.007964369735068083
0.007964369201354874
0.007964367614435098
0.007964366850625222
0.007964365583500962
0.007964364850291351
0.007964364362743521
0.007964363759442398
0.007964363435297691
0.007964363254383674
0.007964363261456622
0.007964363221075096
0.007964363484026011
0.007964363572167331
0.007964364020927754
0.007964364578061897
0.007964364649254358
0.007964365317261635
0.007964365310221759
0.007964365770418674
0.007964365531007447
0.00796436542851392
0.007964365292558817
0.007964365050086882
0.00796436482485011
0.007964364742067921
0.007964364666291305
0.007964364826074889
0.00796436513383377
0.007964365916631152
0.008588959933737386
0.008588960683798039
0.008588960718639965
0.008588961227362456
0.00858896188808461
0.00858896178334906
0.008588962445423853
0.008588962505174675
0.008588963589309162
0.008588963728033305
0.008588964689426987
0.008588964633350092
0.008588964740335844
0.008588965163718893
0.00858896443993464
0.00858896444672118
0.008588964502554303
0.008588964246032628
0.008588964353999005
0.008588964345581955
0.008588965080840279
0.008588965768101531
0.008588965713966237
0.008588966526339453
0.008588966454831802
0.008588966924897369
0.008588966189752228
0.008588965810058384
0.00858896469245809