/*--------------------------------*- C++ -*----------------------------------*\
| =========                 |                                                 |
| \\      /  F ield         | OpenFOAM: The Open Source CFD Toolbox           |
|  \\    /   O peration     | Version:  v1812                                 |
|   \\  /    A nd           | Web:      www.OpenFOAM.com                      |
|    \\/     M anipulation  |                                                 |
\*---------------------------------------------------------------------------*/
FoamFile
{
    version     2.0;
    format      ascii;
    class       volScalarField;
    location    "10000";
    object      p;
}
// * * * * * * * * * * * * * * * * * * * * * * * * * * * * * * * * * * * * * //

dimensions      [0 2 -2 0 0 0 0];


internalField   nonuniform List<scalar> 
3770
(
-1.143298387163313e-08
1.812170361163873e-08
-5.401828701498048e-08
-4.657864953285842e-08
-1.188837228758739e-08
-1.308168041155414e-08
1.81477873213927e-08
2.107490378615008e-08
5.655705715764491e-08
6.748802434666411e-08
1.271079242281339e-07
1.733324496517732e-07
2.43867088297169e-07
3.451095813664333e-07
4.145743020798581e-07
4.927278594928176e-07
5.726303437759578e-07
6.016212563871602e-07
6.462091292534588e-07
6.343815874990082e-07
6.252271531612473e-07
6.388367010963302e-07
5.996655734844983e-07
6.203900284850079e-07
5.917870562608666e-07
6.427575214521925e-07
6.412504147243027e-07
7.043763040379779e-07
7.341013057570183e-07
8.229163846313767e-07
8.727999542196441e-07
9.320783796512208e-07
9.654255436779774e-07
9.579132012875074e-07
9.657788032658445e-07
9.148844599015653e-07
8.893132509491298e-07
8.212752959653582e-07
7.748959747916732e-07
6.990975137760914e-07
6.375545460942524e-07
6.182336396646984e-07
5.466295119860265e-07
4.75860612825435e-07
4.454814975269545e-07
3.959028002496491e-07
3.400186936471483e-07
2.921192750967527e-07
2.514916293543216e-07
2.272751027887605e-07
2.399062083390427e-07
2.150296784872593e-07
2.247255996143004e-07
2.031913093289138e-07
1.619473746601594e-07
1.134352127339983e-07
1.731446167268537e-08
-6.639801879252132e-08
-1.507550942131214e-08
1.449125378887314e-08
-5.399794529512805e-08
-4.634076704244233e-08
-1.191141759636731e-08
-1.298745489125581e-08
1.823342484509051e-08
2.11299108702354e-08
5.658494549946636e-08
6.751345252500746e-08
1.270728515928884e-07
1.733393749470576e-07
2.438139542175751e-07
3.450394218479723e-07
4.145377938451031e-07
4.926508475675996e-07
5.726082910795364e-07
6.015844273576034e-07
6.461786359382437e-07
6.344317757465847e-07
6.251910357765554e-07
6.388390882740225e-07
5.996461191467847e-07
6.20389202638936e-07
5.917472294941724e-07
6.427264120709909e-07
6.412140898237523e-07
7.043290357913372e-07
7.340459979031911e-07
8.228442728052439e-07
8.727447569612858e-07
9.320248463000253e-07
9.653696611551672e-07
9.578942070657039e-07
9.658036525753628e-07
9.148973985288951e-07
8.893314996909828e-07
8.213707393951768e-07
7.750007009412448e-07
6.992830279137825e-07
6.377984710845951e-07
6.181659907275803e-07
5.466308654633664e-07
4.759818306028199e-07
4.454006593749592e-07
3.958210749771917e-07
3.398786185971238e-07
2.919511687789694e-07
2.515396401772575e-07
2.271873883264605e-07
2.398295070751807e-07
2.149709193365181e-07
2.246236506322285e-07
2.031079096626055e-07
1.618193663265796e-07
1.132727182748291e-07
1.743007381608759e-08
-6.247301348743201e-08
-1.440398382061209e-08
9.963035789424105e-09
-5.405312645681474e-08
-4.59737561971166e-08
-1.192540693707329e-08
-1.282151786738987e-08
1.837415199132933e-08
2.119781756132217e-08
5.659452762932758e-08
6.752132968841794e-08
1.269917773370328e-07
1.733452099778585e-07
2.437066371722305e-07
3.449258607218021e-07
4.144830368584272e-07
4.925364892309561e-07
5.725910946829445e-07
6.015416474940626e-07
6.461365581850985e-07
6.345522336802948e-07
6.251084276306071e-07
6.388472143251635e-07
5.996007268746239e-07
6.203679147330348e-07
5.916835616218643e-07
6.426717027355795e-07
6.411792173697739e-07
7.042663753865543e-07
7.339894725657745e-07
8.22759125777135e-07
8.727062646966571e-07
9.319763803151781e-07
9.653237845291459e-07
9.57919368783736e-07
9.658857551036951e-07
9.14941689513314e-07
8.894022741720594e-07
8.215695272702868e-07
7.751907691573881e-07
6.996149625842745e-07
6.381852835528999e-07
6.179777732123033e-07
5.465612465424797e-07
4.761180704679686e-07
4.451592612990777e-07
3.956107672298252e-07
3.395763802324584e-07
2.916505094277448e-07
2.516222320990804e-07
2.270016015496985e-07
2.397106096613544e-07
2.148845960855091e-07
2.24485398836846e-07
2.030115377508916e-07
1.616793224710715e-07
1.13096205106422e-07
1.759490832084169e-08
-5.743846734434071e-08
-1.212950010196085e-08
5.693420653052875e-09
-5.420970021678667e-08
-4.552328293870012e-08
-1.189060949926859e-08
-1.257583258238069e-08
1.861380800546719e-08
2.133053923154696e-08
5.661565760460593e-08
6.75423386342074e-08
1.268710098442538e-07
1.733646521302944e-07
2.435729242778837e-07
3.447845670589047e-07
4.144239823988376e-07
4.924098664397153e-07
5.72602490515817e-07
6.015080877547726e-07
6.460902168024813e-07
6.347041383933362e-07
6.250065950889489e-07
6.388410602421889e-07
5.995225845938488e-07
6.203278432868503e-07
5.915669749107313e-07
6.425830851128136e-07
6.411031565083452e-07
7.04162707410621e-07
7.339125053591324e-07
8.226512232974634e-07
8.726681776130228e-07
9.319336535238866e-07
9.652772807814635e-07
9.579722729795019e-07
9.660154056218236e-07
9.150282998496229e-07
8.895153873626736e-07
8.21890069639945e-07
7.754900365766258e-07
7.001409302607039e-07
6.388328685211898e-07
6.176773187991531e-07
5.464205543698681e-07
4.763595315755223e-07
4.447375426072265e-07
3.952411074109663e-07
3.390592746708836e-07
2.911147570459647e-07
2.516703402502672e-07
2.266863742333495e-07
2.395047560530385e-07
2.147313099817066e-07
2.24288196020711e-07
2.028514362660522e-07
1.614906387921309e-07
1.129005183276513e-07
1.771974126113503e-08
-5.240919499342658e-08
-1.037212216477129e-08
1.869768236351297e-09
-5.42143293936973e-08
-4.513068322071618e-08
-1.180650860928877e-08
-1.229232225188446e-08
1.889657256516974e-08
2.146197008038856e-08
5.660701347004358e-08
6.75206217766436e-08
1.267019620919857e-07
1.733748160964339e-07
2.433826790661012e-07
3.446123796470496e-07
4.143526113017702e-07
4.922609276776533e-07
5.726350845564585e-07
6.014825698977015e-07
6.460474819715324e-07
6.349268494278087e-07
6.248712152571658e-07
6.388518072456545e-07
5.994183551568324e-07
6.20268976645454e-07
5.914224948521586e-07
6.42476171265443e-07
6.410266443891535e-07
7.040485676748143e-07
7.338358330344309e-07
8.225414455209124e-07
8.726564424220631e-07
9.319050081599161e-07
9.652674820699788e-07
9.580674577921162e-07
9.662089037922072e-07
9.151467240353114e-07
8.897007736635005e-07
8.222983444368713e-07
7.758594471839561e-07
7.007691567276044e-07
6.395659564331433e-07
6.172617313245247e-07
5.462016654648947e-07
4.765860210779151e-07
4.441504976101404e-07
3.947550606541647e-07
3.384088813702067e-07
2.904872877118749e-07
2.517190217265769e-07
2.262831537198149e-07
2.392692698965992e-07
2.145694403819072e-07
2.240969523070891e-07
2.027270061193732e-07
1.613768553481426e-07
1.128844855743388e-07
1.812069050953524e-08
-4.773721488142978e-08
-8.828735680030152e-09
-1.805569253420543e-09
-5.403472914155757e-08
-4.47341592672776e-08
-1.165382489073433e-08
-1.193096919592848e-08
1.929201655875641e-08
2.167863807157165e-08
5.661887899407944e-08
6.75144913662428e-08
1.264974536714204e-07
1.734033636982543e-07
2.431652014497852e-07
3.444089389378048e-07
4.142749057946933e-07
4.920948859791646e-07
5.726949196325527e-07
6.014658118344746e-07
6.460012190157213e-07
6.351650114298683e-07
6.247262382896556e-07
6.388516478390073e-07
5.992864268718635e-07
6.201947111809175e-07
5.912209622270247e-07
6.423335286393956e-07
6.408971759544295e-07
7.038859879805842e-07
7.337313460698416e-07
8.224004782954616e-07
8.726352445419661e-07
9.318722730906795e-07
9.652553561545354e-07
9.581665064145697e-07
9.664343660052151e-07
9.153043664221738e-07
8.899288580468248e-07
8.228244450136391e-07
7.763378149299889e-07
7.015794728253834e-07
6.405499476387779e-07
6.167949018207144e-07
5.459353200161351e-07
4.769254116031168e-07
4.434126468894736e-07
3.94110449770658e-07
3.37562527847627e-07
2.896284735611628e-07
2.516959143888432e-07
2.257442288304521e-07
2.389310716178749e-07
2.143297756022049e-07
2.238389228822822e-07
2.025340392225592e-07
1.612238834923695e-07
1.129403501660199e-07
1.878581316337511e-08
-4.296898403020717e-08
-7.916165217625848e-09
-5.323808076424749e-09
-5.361154228118256e-08
-4.441990675591524e-08
-1.14514912158038e-08
-1.153952637078028e-08
1.97244236575997e-08
2.188670006621288e-08
5.659316518429047e-08
6.744968105392255e-08
1.262421702625475e-07
1.734182816273259e-07
2.428801223911523e-07
3.441719839630041e-07
4.141808467200594e-07
4.919021941820031e-07
5.727739543841714e-07
6.014574020719022e-07
6.459596920062292e-07
6.354756062897507e-07
6.245530875218891e-07
6.38879354774237e-07
5.991343527649182e-07
6.201019976398368e-07
5.909978054629239e-07
6.421730733489978e-07
6.407742724098364e-07
7.037158609991256e-07
7.336319994296081e-07
8.222622260044807e-07
8.726456383132572e-07
9.318519373303866e-07
9.652894526199053e-07
9.58298969774842e-07
9.667218519355917e-07
9.154933930608807e-07
8.902390990160911e-07
8.234269189890862e-07
7.768739685493164e-07
7.0246122324274e-07
6.415663502667327e-07
6.162458778607321e-07
5.456122476588118e-07
4.77219098094824e-07
4.425303801320294e-07
3.933510158957465e-07
3.366122950989119e-07
2.887113751767917e-07
2.516505390665657e-07
2.251211786088591e-07
2.385691271534914e-07
2.140887725363691e-07
2.235992752200922e-07
2.02398189558699e-07
1.611733657855301e-07
1.132255864179182e-07
1.98493276916509e-08
-3.830952472408439e-08
-7.02182040619814e-09
-8.837256326787876e-09
-5.298088968781014e-08
-4.408734869486212e-08
-1.117196260512819e-08
-1.106050198073819e-08
2.029086151992102e-08
2.220602137819827e-08
5.659707875025974e-08
6.740124157767926e-08
1.259508380941598e-07
1.73458988652655e-07
2.42561372822119e-07
3.438989145467003e-07
4.140782295904518e-07
4.916867592515253e-07
5.728810663291455e-07
6.014588182237162e-07
6.45918179858772e-07
6.357893090240674e-07
6.243758948429331e-07
6.388977015241204e-07
5.989544031467609e-07
6.199930608308977e-07
5.907082238675572e-07
6.419722210626248e-07
6.405858957840308e-07
7.034894443088739e-07
7.335050220396017e-07
8.220951022588673e-07
8.726488798553709e-07
9.318211788455651e-07
9.653277985336771e-07
9.584250452327741e-07
9.670308382652768e-07
9.157220277962069e-07
8.905979129377098e-07
8.241519521559033e-07
7.775336957283781e-07
7.035322704185358e-07
6.428316916084762e-07
6.156917619005565e-07
5.452641655040443e-07
4.776371179569686e-07
4.415177643069657e-07
3.924081389212253e-07
3.354778292566034e-07
2.875478035150574e-07
2.514854237435087e-07
2.243381803528294e-07
2.380744914582755e-07
2.137509635187957e-07
2.23269520861e-07
2.021801772224565e-07
1.610657865492781e-07
1.135896957849288e-07
2.121510139289111e-08
-3.335029199095913e-08
-6.665577374870567e-09
-1.223662090132215e-08
-5.213967123887127e-08
-4.384948166656829e-08
-1.084035814857926e-08
-1.054624453200463e-08
2.090048070442439e-08
2.251276455881177e-08
5.654818776714608e-08
6.726888937879736e-08
1.2558931943179e-07
1.734798517620401e-07
2.421422519394138e-07
3.435776328556126e-07
4.139517408358219e-07
4.914319970690205e-07
5.730124879621019e-07
6.014739009088678e-07
6.458874187643869e-07
6.361903941161641e-07
6.241678978806585e-07
6.389550624307956e-07
5.987518417518008e-07
6.198596110364616e-07
5.903910747354863e-07
6.417447040910582e-07
6.404070069952318e-07
7.032497459959118e-07
7.333886274185285e-07
8.21933350735432e-07
8.726950205014104e-07
9.318057273627741e-07
9.65436656079671e-07
9.585903177956349e-07
9.674180577984431e-07
9.159971944369187e-07
8.910642103820755e-07
8.249675277276993e-07
7.782663945144976e-07
7.04680257386938e-07
6.441129906414086e-07
6.150558497390497e-07
5.448652493441418e-07
4.779947315938153e-07
4.403455927291526e-07
3.9131548285668e-07
3.342309597305187e-07
2.863240381029778e-07
2.512779755467979e-07
2.234432817854073e-07
2.375434052453888e-07
2.13413332183839e-07
2.229586635881898e-07
2.02045852767064e-07
1.610964985783056e-07
1.142432861209899e-07
2.300526530265673e-08
-2.845396822188834e-08
-6.44755521483385e-09
-1.569487377668146e-08
-5.102115712079307e-08
-4.362765657002455e-08
-1.039845434384586e-08
-9.912743475228535e-09
2.169545542913532e-08
2.29551976697553e-08
5.653398172628743e-08
6.712818745925718e-08
1.251635613044622e-07
1.735347875752577e-07
2.416358310695417e-07
3.43197214823601e-07
4.138095453576127e-07
4.91133509763232e-07
5.731876487406422e-07
6.015108090233401e-07
6.458708796102249e-07
6.366121917559818e-07
6.239425589384138e-07
6.390054476422187e-07
5.985091868229979e-07
6.196986158589445e-07
5.899810786416977e-07
6.414557770706122e-07
6.401491914144608e-07
7.029299126039897e-07
7.332451769311314e-07
8.2173433264761e-07
8.727449595068937e-07
9.317852612494551e-07
9.655872685267417e-07
9.587495564588791e-07
9.678454396822315e-07
9.163401677531414e-07
8.916107028659034e-07
8.259619115087412e-07
7.791791950777598e-07
7.060821481424765e-07
6.456991627525421e-07
6.144107053510444e-07
5.444493661048206e-07
4.785088977184908e-07
4.390135422559092e-07
3.899780261472437e-07
3.327441300768104e-07
2.848072368254711e-07
2.509200530056047e-07
2.222944848160587e-07
2.36832147074008e-07
2.129397318258466e-07
2.225192157598329e-07
2.018115029339927e-07
1.610829817171931e-07
1.150613522635383e-07
2.52554443075949e-08
-2.30873941319723e-08
-6.869163750361457e-09
-1.911762736772155e-08
-4.965459975395273e-08
-4.357389774887446e-08
-9.864111350674478e-09
-9.205716998475126e-09
2.257596176355169e-08
2.339428888205085e-08
5.643596840355896e-08
6.684553371062254e-08
1.24606044609497e-07
1.735510427104532e-07
2.409284052275897e-07
3.4272594768322e-07
4.136284119125273e-07
4.907559503445291e-07
5.734186151002813e-07
6.015836344562661e-07
6.458913357112617e-07
6.371783369121578e-07
6.236631221273614e-07
6.391141050651852e-07
5.982224436412731e-07
6.194897876278425e-07
5.895005902035606e-07
6.411061094415346e-07
6.398883108441036e-07
7.025649545671716e-07
7.331047866947753e-07
8.215229060576115e-07
8.72864226281689e-07
9.317918165110841e-07
9.658659475939704e-07
9.589713592070572e-07
9.684241886898821e-07
9.167911826633889e-07
8.923354389402628e-07
8.271412222771347e-07
7.802524401265436e-07
7.076431632954853e-07
6.473466579736197e-07
6.136496876065964e-07
5.439866837775865e-07
4.789601222175523e-07
4.374244386076584e-07
3.883891834564357e-07
3.31040833063388e-07
2.831406106383079e-07
2.504683570215696e-07
2.209050815149397e-07
2.360299385678685e-07
2.124436350915557e-07
2.220739382632709e-07
2.017107901570916e-07
1.612885986371934e-07
1.163654526066086e-07
2.813761682437885e-08
-1.760696655457797e-08
-7.568538784264376e-09
-2.259196159858032e-08
-4.793425352370672e-08
-4.363215017236819e-08
-9.12408696313984e-09
-8.310368297274676e-09
2.372534308108073e-08
2.401642005252083e-08
5.635767460660926e-08
6.648707106724461e-08
1.239054512043958e-07
1.735744161293308e-07
2.399859830691769e-07
3.42144739520993e-07
4.1341896313371e-07
4.902765177373071e-07
5.737532285120854e-07
6.01715258195841e-07
6.459697522903161e-07
6.37848677844998e-07
6.23318233383852e-07
6.392485169547403e-07
5.978620841329482e-07
6.192180244750115e-07
5.88855029220707e-07
6.406351766184395e-07
6.395127900410498e-07
7.020518739209163e-07
7.328998312435947e-07
8.212336243177993e-07
8.730277765080487e-07
9.31807916331728e-07
9.662687199124035e-07
9.592082873241667e-07
9.691446975088826e-07
9.173913687824589e-07
8.932270510952379e-07
8.286380943709241e-07
7.816478343742904e-07
7.095932003015945e-07
6.49378227318921e-07
6.128713139433225e-07
5.435542900324934e-07
4.795831783718864e-07
4.355988325674279e-07
3.864665702507079e-07
3.289749397843024e-07
2.810516742619056e-07
2.497601659072242e-07
2.190536413444179e-07
2.349550484275943e-07
2.117547984336472e-07
2.214300889904527e-07
2.015548077145957e-07
1.615059647041776e-07
1.180690115236614e-07
3.174117272066398e-08
-1.144349827283116e-08
-8.819188442949315e-09
-2.595956182706692e-08
-4.60024151782261e-08
-4.396608695740289e-08
-8.182550611524148e-09
-7.284335782041706e-09
2.505719717791176e-08
2.469599548451123e-08
5.616535700891891e-08
6.587901474969088e-08
1.229274903466402e-07
1.734981614051565e-07
2.386384994108727e-07
3.413980459459301e-07
4.131488397696071e-07
4.896277265756572e-07
5.742294797219279e-07
6.019480489324824e-07
6.461540886218458e-07
6.387982824651146e-07
6.228580759051186e-07
6.394963652062095e-07
5.974141154791914e-07
6.188475446138814e-07
5.880318384054637e-07
6.400098251983948e-07
6.390775019170808e-07
7.013666329988812e-07
7.326155788543177e-07
8.208432196292206e-07
8.733068471191693e-07
9.318591236156649e-07
9.669158200808923e-07
9.595383786277748e-07
9.701597719683587e-07
9.1821886683573e-07
8.944170065132962e-07
8.305119555410422e-07
7.83370164890514e-07
7.11876309208815e-07
6.516006666142836e-07
6.120287355021555e-07
5.431533461684841e-07
4.801936009744274e-07
4.334778335192902e-07
3.842118734917743e-07
3.265260413496954e-07
2.785897755586512e-07
2.487693824436903e-07
2.166805970583307e-07
2.3366413643755e-07
2.109756676683127e-07
2.207270377972878e-07
2.016370044228556e-07
1.620282241078532e-07
1.204979586229239e-07
3.616723974904178e-08
-4.985785558422346e-09
-1.02051533740719e-08
-2.910066358848057e-08
-4.38145750700531e-08
-4.45226112623467e-08
-6.902243705247954e-09
-6.021615915220635e-09
2.675191170686579e-08
2.563165969150318e-08
5.598125813236594e-08
6.505061517881069e-08
1.21613052138862e-07
1.733247236842613e-07
2.367865495951979e-07
3.404655722382549e-07
4.128388209236391e-07
4.887713908997412e-07
5.749437050402093e-07
6.023473469001424e-07
6.464993969402301e-07
6.400475306414429e-07
6.222301263343184e-07
6.398668600901932e-07
5.968428551113941e-07
6.183517732092223e-07
5.86913067986421e-07
6.391287913144458e-07
6.384527605223347e-07
7.003294048586925e-07
7.321141937391732e-07
8.20237630949748e-07
8.737006752145327e-07
9.319425073135924e-07
9.678697846722555e-07
9.599219614942383e-07
9.714923971739033e-07
9.193244457795524e-07
8.958960700033377e-07
8.328981244847692e-07
7.855774102291554e-07
7.147122694991742e-07
6.543049323326414e-07
6.11292959997518e-07
5.429156770131508e-07
4.810211177664237e-07
4.312389067220332e-07
3.817070841127498e-07
3.236511264873393e-07
2.755357861938232e-07
2.473050481899239e-07
2.135417550043833e-07
2.319872187427742e-07
2.099483297068156e-07
2.197846938507481e-07
2.018170890906008e-07
1.626157882348255e-07
1.234889748642701e-07
4.13540644554615e-08
2.129023213164139e-09
-1.170494929381329e-08
-3.185345576047088e-08
-4.161897275039001e-08
-4.543227933458409e-08
-5.330019276037377e-09
-4.591476192245575e-09
2.872672826340064e-08
2.673174832324087e-08
5.56832694221861e-08
6.380375942725749e-08
1.197805512119022e-07
1.729282974832155e-07
2.342491565611676e-07
3.393085144488519e-07
4.12493587949745e-07
4.876419362628042e-07
5.760056921916476e-07
6.030211161291283e-07
6.471110228952455e-07
6.41801721255641e-07
6.213697534556531e-07
6.404684570200719e-07
5.961200224751509e-07
6.176865047914247e-07
5.854319903243652e-07
6.379433498623585e-07
6.376496491827183e-07
6.988576794229679e-07
7.313092935359689e-07
8.193660463312865e-07
8.74300189920306e-07
9.321202456374486e-07
9.693111093893511e-07
9.604383715663367e-07
9.733139268256714e-07
9.207895795953564e-07
8.977651892380738e-07
8.358465854306381e-07
7.882754248587437e-07
7.180492653608592e-07
6.57328307546224e-07
6.106932461267452e-07
5.428492125364872e-07
4.819460278411891e-07
4.289736056396804e-07
3.790676500115195e-07
3.20399642865992e-07
2.719058587948794e-07
2.452760312084886e-07
2.095287128893292e-07
2.299503331711938e-07
2.087850008288448e-07
2.187619430839324e-07
2.024059778377943e-07
1.63465867822763e-07
1.271914263879192e-07
4.71517326065081e-08
9.462402006472001e-09
-1.303175890855827e-08
-3.407029130397521e-08
-3.941674066541193e-08
-4.664508412227728e-08
-3.369330968835798e-09
-2.897004618076964e-09
3.111283536510666e-08
2.812157011114451e-08
5.53693735272415e-08
6.211702467061553e-08
1.173812573578783e-07
1.722998513391089e-07
2.309336375638696e-07
3.379783393681134e-07
4.122266807217475e-07
4.862709243508672e-07
5.776312695705644e-07
6.041251170044104e-07
6.481274856094539e-07
6.441266740848768e-07
6.201854394623309e-07
6.413506855159355e-07
5.951910212940418e-07
6.168317071875164e-07
5.834496949420237e-07
6.363916676821589e-07
6.365633733732435e-07
6.96810167828357e-07
7.300427474691962e-07
8.181898955963963e-07
8.751805608721724e-07
9.325042178442876e-07
9.714345394006902e-07
9.610994006870019e-07
9.757014824892919e-07
9.226333890114668e-07
8.999710009447001e-07
8.393818914467415e-07
7.915224973772808e-07
7.219665346264667e-07
6.607633051111346e-07
6.103443742183654e-07
5.429782574946689e-07
4.830183021101073e-07
4.268649309234763e-07
3.764955283005838e-07
3.168961922221867e-07
2.676777805651826e-07
2.426052194266906e-07
2.044919222571672e-07
2.275064221124112e-07
2.074536366130249e-07
2.176158074773354e-07
2.03382429350775e-07
1.643678932224406e-07
1.313713964925015e-07
5.322555885740169e-08
1.694606553974645e-08
-1.42012555811901e-08
-3.580383683157519e-08
-3.740854327741357e-08
-4.827508882059172e-08
-1.09623516139014e-09
-9.684360263110775e-10
3.384503692298103e-08
2.9697867809354e-08
5.492678582284236e-08
5.980030983532578e-08
1.142965345677759e-07
1.713946502407856e-07
2.267572104161637e-07
3.365382072840107e-07
4.12166473354922e-07
4.846867434388027e-07
5.80035551702481e-07
6.058495960521795e-07
6.497258795777108e-07
6.472064982448789e-07
6.186060664856456e-07
6.426013101983969e-07
5.940008738873409e-07
6.157518656214332e-07
5.808513998355672e-07
6.344980682013719e-07
6.352166467068311e-07
6.942013741462616e-07
7.282620845695568e-07
8.16778875820932e-07
8.76496220404218e-07
9.332699082048588e-07
9.745152921810143e-07
9.620112222375105e-07
9.788020683549387e-07
9.248775497275621e-07
9.025040786420815e-07
8.434337768986182e-07
7.952472849731427e-07
7.263319572699881e-07
6.644094735403841e-07
6.102243241692222e-07
5.431845837330085e-07
4.840437726108959e-07
4.248933098489017e-07
3.740610193722891e-07
3.132313344821785e-07
2.629192283192434e-07
2.392992246433684e-07
1.983726515104214e-07
2.247271715167756e-07
2.061030232800481e-07
2.16549939260939e-07
2.050363436797564e-07
1.6544820212825e-07
1.360264623632261e-07
5.924259647687727e-08
2.410042892065327e-08
-1.519562443389655e-08
-3.712041784253806e-08
-3.556240555491191e-08
-5.03097960088092e-08
1.540846453943607e-09
1.285541968875935e-09
3.698648500813401e-08
3.150258429304434e-08
5.439678279503975e-08
5.679488073643302e-08
1.105285887814236e-07
1.702540811964831e-07
2.216916954536747e-07
3.350932068044662e-07
4.125039725219383e-07
4.829786064271353e-07
5.834742441793183e-07
6.083904539264088e-07
6.520681521674016e-07
6.511147740401847e-07
6.165268837661246e-07
6.442544138815007e-07
5.924994297431094e-07
6.144302238721863e-07
5.775020749725546e-07
6.322617496535858e-07
6.335569966740805e-07
6.909995089327504e-07
7.258652898226071e-07
8.151983371060159e-07
8.783912836869534e-07
9.346154024798232e-07
9.787958151411172e-07
9.632587636389957e-07
9.826999978896347e-07
9.274937470972176e-07
9.052424973468264e-07
8.478795507591807e-07
7.993525476571828e-07
7.310539793242863e-07
6.682314698257649e-07
6.103770382582531e-07
5.433918579590054e-07
4.849333113130754e-07
4.230372792627062e-07
3.718696705333106e-07
3.095607540192361e-07
2.577559672194796e-07
2.355221693084087e-07
1.912268070600022e-07
2.217448207874528e-07
2.048477882313248e-07
2.156436680178151e-07
2.07449249456262e-07
1.66600138542346e-07
1.409261893982954e-07
6.479778034155311e-08
3.064632589625394e-08
-1.614355018540133e-08
-3.82688038887135e-08
-3.396259758265759e-08
-5.288143537722784e-08
4.441405993559342e-09
3.846401891889871e-09
4.048708596021242e-08
3.346361459351351e-08
5.366811883313145e-08
5.293324268726418e-08
1.059955626241996e-07
1.689067768673395e-07
2.157071096771643e-07
3.336858406121756e-07
4.133749425452146e-07
4.811442545261741e-07
5.880928348688854e-07
6.119090539076182e-07
6.552783378118892e-07
6.559953518855767e-07
6.138815955001727e-07
6.463418841900168e-07
5.906690328913269e-07
6.128275130931923e-07
5.732871722760365e-07
6.297246267711224e-07
6.316244875620091e-07
6.872583011961673e-07
7.228258296237249e-07
8.135320095663109e-07
8.809970456766336e-07
9.366946758538371e-07
9.844701220008895e-07
9.649187373521836e-07
9.874777965617423e-07
9.304814658297111e-07
9.081067548648143e-07
8.526001690013161e-07
8.037168218011466e-07
7.359821633982124e-07
6.721177627707755e-07
6.107966866176406e-07
5.435123153363535e-07
4.856016911895167e-07
4.211938403214151e-07
3.698897238917403e-07
3.059347972196079e-07
2.522559022180031e-07
2.314239213496303e-07
1.830903433812063e-07
2.186743715120459e-07
2.038731604258832e-07
2.150767830040326e-07
2.108451024401038e-07
1.679302860149802e-07
1.460722180840279e-07
6.967268523666999e-08
3.625200859728777e-08
-1.717146228719979e-08
-3.943107249734627e-08
-3.252703363337156e-08
-5.602283102331021e-08
7.641018743609532e-09
6.802083220576312e-09
4.439700878605025e-08
3.56121133146615e-08
5.276004235019616e-08
4.815016890715304e-08
1.006866794025666e-07
1.67418619053325e-07
2.087697391679579e-07
3.323505534976531e-07
4.149280076912885e-07
4.791917459924516e-07
5.940276414695392e-07
6.165361219991933e-07
6.594246425772229e-07
6.619021994225791e-07
6.10562607358723e-07
6.488604434276297e-07
5.885205669272168e-07
6.10921990559921e-07
5.681124154129335e-07
6.268845552839352e-07
6.29405342636285e-07
6.829513454487989e-07
7.190354197901532e-07
8.118107405891828e-07
8.844057963794135e-07
9.396385804765644e-07
9.91697734943499e-07
9.670474031815407e-07
9.931831904203249e-07
9.338404532324392e-07
9.109705511979017e-07
8.5747004674577e-07
8.081988664400192e-07
7.409776262390001e-07
6.760277640659522e-07
6.115026026939982e-07
5.435444216284253e-07
4.860816114693309e-07
4.193036895608194e-07
3.681243842237259e-07
3.024347021791079e-07
2.465205471520132e-07
2.272609519932127e-07
1.741175181560617e-07
2.157358725650745e-07
2.033947049621968e-07
2.149513959658018e-07
2.152967565345654e-07
1.693840478564144e-07
1.513539660544776e-07
7.367632766527635e-08
4.073154918628646e-08
-1.846568836185647e-08
-4.086561780935342e-08
-3.128609687218135e-08
-5.98893405929855e-08
1.107387200414479e-08
1.01722956783198e-08
4.870018855469972e-08
3.791204680065843e-08
5.157825549233568e-08
4.229669142127119e-08
9.451497340263574e-08
1.658614862477384e-07
2.008483869512916e-07
3.310717888613399e-07
4.172560740206757e-07
4.770285993188887e-07
6.01302014836613e-07
6.223649367054395e-07
6.645401632688965e-07
6.689419128698655e-07
6.065004802160176e-07
6.518070969239685e-07
5.860958876711482e-07
6.086730765088198e-07
5.618945577092153e-07
6.237895089373436e-07
6.269781011868404e-07
6.781222630435591e-07
7.144473030127736e-07
8.100507189511593e-07
8.886887617394314e-07
9.43523252137282e-07
1.000579523864448e-06
9.696663964938508e-07
9.998315946082702e-07
9.375752266383153e-07
9.137482892890442e-07
8.624102175172438e-07
8.127017191820856e-07
7.459046203798646e-07
6.798857765254456e-07
6.124818335511477e-07
5.435140258652988e-07
4.864179556257339e-07
4.172723195680302e-07
3.664789564753175e-07
2.990207929393158e-07
2.40521673431276e-07
2.231311493970923e-07
1.6429849523554e-07
2.130182030609704e-07
2.036051335224241e-07
2.153982807809256e-07
2.209641858561914e-07
1.710603930160376e-07
1.568430905763223e-07
7.68161722636969e-08
4.397158547506099e-08
-2.019365648012335e-08
-4.272245557329196e-08
-3.01699761951944e-08
-6.456083435906964e-08
1.480178833358789e-08
1.407971233965115e-08
5.347235793301758e-08
4.041582666250943e-08
5.014613917930774e-08
3.528467909214531e-08
8.746101972941277e-08
1.643195804125169e-07
1.91867386909277e-07
3.298494012322345e-07
4.204957466803644e-07
4.745898112698675e-07
6.099732914328217e-07
6.294845681857101e-07
6.706310710648517e-07
6.771491208325933e-07
6.015517834115419e-07
6.551654553902094e-07
5.834606583476152e-07
6.060558572266682e-07
5.545612381844122e-07
6.204443937675801e-07
6.2439116168295e-07
6.727307166737497e-07
7.08914884322768e-07
8.082169532827425e-07
8.938990646701319e-07
9.484272295255281e-07
1.011236362383259e-06
9.72822715754052e-07
1.007467669810297e-06
9.417298511951613e-07
9.163536243747431e-07
8.67361713504062e-07
8.171125604938933e-07
7.50599637034403e-07
6.835937790753551e-07
6.136663811517341e-07
5.434583203238795e-07
4.866974423701154e-07
4.150476086098445e-07
3.649096797447195e-07
2.95666979673791e-07
2.342382856562933e-07
2.191730692539542e-07
1.536887924005636e-07
2.107162218886328e-07
2.047508249250592e-07
2.165304273075481e-07
2.279433893789546e-07
1.729457696148529e-07
1.625169545282355e-07
7.908835862686307e-08
4.592153594309965e-08
-2.253315653380009e-08
-4.519511400427466e-08
-2.922459064882363e-08
-7.024358898560014e-08
1.877316950358863e-08
1.859199140912559e-08
5.874616574248825e-08
4.313598130656805e-08
4.838156707459678e-08
2.693943222090689e-08
7.942266794407506e-08
1.628976435799565e-07
1.817550349908512e-07
3.286485914024609e-07
4.247486359391993e-07
4.717135846584693e-07
6.200149189445665e-07
6.37974150534887e-07
6.777003519845955e-07
6.866319286440033e-07
5.956058474128674e-07
6.58922883514908e-07
5.807046092461097e-07
6.030204144870141e-07
5.460081444198371e-07
6.169072486820823e-07
6.217869922234334e-07
6.668108121567939e-07
7.023595354197133e-07
8.06266175244216e-07
9.000823557121267e-07
9.543872148724811e-07
1.02374574430711e-06
9.765027218894366e-07
1.016098839297563e-06
9.463461659996255e-07
9.187246611905829e-07
8.723081920496295e-07
8.213943266779689e-07
7.549618057432195e-07
6.870704426799888e-07
6.149807679331346e-07
5.434240468398022e-07
4.870103048232429e-07
4.125805612526102e-07
3.633230801622747e-07
2.922612922819263e-07
2.27526578469706e-07
2.153206177839972e-07