/*--------------------------------*- C++ -*----------------------------------*\
| =========                 |                                                 |
| \\      /  F ield         | OpenFOAM: The Open Source CFD Toolbox           |
|  \\    /   O peration     | Version:  v1812                                 |
|   \\  /    A nd           | Web:      www.OpenFOAM.com                      |
|    \\/     M anipulation  |                                                 |
\*---------------------------------------------------------------------------*/
FoamFile
{
    version     2.0;
    format      ascii;
    class       surfaceScalarField;
    location    "10000";
    object      phi;
}
// * * * * * * * * * * * * * * * * * * * * * * * * * * * * * * * * * * * * * //

dimensions      [0 3 -1 0 0 0 0];
oriented        oriented;


internalField   nonuniform List<scalar> 
7417
(
-0.0009491880167275699
2.161810087853091e-09
-0.0009491883852112468
3.48313242735364e-10
-0.0009491883029364988
-1.055539838445411e-10
-0.0009491883511377129
5.672683475237738e-11
-0.0009491883245157676
-2.748538020997225e-11
-0.0009491883398970494
2.359219198297073e-11
-0.0009491883327327321
-6.881385212103985e-12
-0.0009491883494107593
2.980318819624485e-11
-0.0009491883436902653
1.119673061302669e-11
-0.0009491883694325557
2.580018364987832e-11
-0.0009491883613233777
1.911242213800164e-11
-0.0009491883695341695
1.860474453824342e-11
-0.0009491883735961342
2.212346495512395e-11
-0.0009491883485580182
-9.103436669713576e-12
-0.0009491883399682691
2.246484332029969e-12
-0.000949188319032556
-9.963927604391485e-12
-0.0009491882890065149
-1.950656317492183e-11
-0.0009491882833218796
5.549868966985634e-12
-0.000949188277245136
-1.20666585962726e-11
-0.0009491882640087307
6.805983230592604e-12
-0.0009491882759727461
1.55973002524904e-11
-0.0009491882641289441
-1.055969393385429e-11
-0.0009491882801390721
2.290870059861167e-11
-0.0009491882741632407
-2.363587292704218e-11
-0.0009491882925516906
2.2172085928027e-11
-0.0009491882825637413
-2.855423486293925e-11
-0.0009491882983294357
1.261018002630029e-11
-0.0009491882819226819
-2.611822257692198e-11
-0.000949188288962635
-3.332306221124325e-12
-0.0009491882549856754
-3.426374401916118e-11
-0.0009491882402064624
-1.945393689298378e-11
-0.0009491882125736749
-3.006084153148865e-11
-0.0009491881823152916
-3.298579024304785e-11
-0.0009491881725872749
-1.556457240505546e-11
-0.0009491881484433522
-2.866326957526615e-11
-0.0009491881476934082
1.50135853865646e-11
-0.0009491881298734201
-2.881580804973885e-11
-0.000949188133426553
2.049006436153464e-11
-0.0009491881263743341
6.350317397248088e-12
-0.0009491881326483441
3.143310066888482e-11
-0.0009491881498031233
4.70467470787445e-11
-0.0009491881900141835
1.33090752247737e-10
-0.0009491882176951748
-1.741900747927305e-11
-0.0009491882382688157
4.923321865283419e-11
-0.0009491882672050609
4.083061041028825e-11
-0.0009491882819054632
1.538919235197751e-11
-0.0009491883057359609
7.237984579580328e-12
-0.0009491883061039263
-8.305247098943142e-12
-0.0009491883199435701
-1.758587002128881e-11
-0.0009491883302219211
-1.788668536715686e-13
-0.000949188310586745
-4.140198958938322e-11
-0.0009491883142958763
-2.352135012289884e-11
-0.0009491882905401929
-4.615646009123966e-11
-0.0009491882762172638
-5.200899801043933e-11
-0.0009491882532450463
-6.283597702181141e-11
-0.0009491882078121434
-9.706195693186062e-11
-0.0009491881024690866
-1.516101393595797e-10
-3.439790651994579e-10
-0.0009516311835228633
2.435765810783196e-09
-0.000951631249319677
4.024358918573512e-10
-0.0009516312039008994
-1.871274918359771e-10
-0.0009516312614383156
1.253886161110068e-10
-0.0009516312291540427
-6.488769785388855e-11
-0.0009516312543764232
5.685902219769162e-11
-0.0009516312534036524
-3.399026020021916e-12
-0.0009516312758281275
7.297521048210664e-11
-0.0009516312811652997
4.120784086936716e-11
-0.0009516313055737985
6.671183505951616e-11
-0.0009516312922724388
2.961303702743422e-11
-0.0009516312917570645
2.907293899742688e-11
-0.0009516312762997198
2.442069295898363e-11
-0.000951631228489583
-4.250968818341677e-11
-0.0009516312012576324
-1.220371586497966e-11
-0.0009516311506107204
-4.525390439612055e-11
-0.0009516311027831798
-5.269685997989947e-11
-0.0009516310798075659
-3.446706870405877e-12
-0.0009516310641889247
-2.881003690846109e-11
-0.000951631054974124
-1.120993276483459e-11
-0.0009516310646788913
4.307366030970319e-11
-0.0009516310607975966
-1.990400694220028e-11
-0.0009516310812664683
5.066325186870855e-11
-0.0009516310788255312
-3.565454358978541e-11
-0.0009516310938678847
3.664918229653828e-11
-0.0009516310770241721
-6.223173799658934e-11
-0.0009516310818612713
4.303122129946557e-12
-0.0009516310492568242
-7.529185996083341e-11
-0.0009516310297502922
-3.821256855644494e-11
-0.0009516309676512575
-1.027766331619753e-10
-0.0009516309255157803
-7.08970428805458e-11
-0.0009516308737737434
-8.478348384978493e-11
-0.0009516308207609542
-9.161852276696006e-11
-0.0009516307916704546
-5.41218627973938e-11
-0.000951630760218568
-6.604302833262361e-11
-0.0009516307582567688
2.482127875880001e-11
-0.000951630736640726
-5.920881078597506e-11
-0.0009516307456256481
4.526113805563681e-11
-0.0009516307517151073
2.708889094497439e-11
-0.0009516307714047274
7.92971197452918e-11
-0.0009516308051565636
1.204922404128119e-10
-0.0009516308915657546
3.100117265763099e-10
-0.0009516309584508058
1.24019940527048e-11
-0.0009516309952410078
1.265284884452348e-10
-0.0009516310692260623
1.283138669587178e-10
-0.0009516311071106695
5.612843875050099e-11
-0.0009516311517751903
3.342001599537852e-11
-0.0009516311614618467
-2.130739024063411e-11
-0.0009516311908648661
-1.864592035674135e-11
-0.0009516312001855697
9.151822437611528e-13
-0.0009516311734796391
-9.163882168979066e-11
-0.0009516311704715115
-5.411535094390603e-11
-0.0009516311269598009
-1.155006089259894e-10
-0.0009516311062871909
-1.162133407414055e-10
-0.0009516310675988621
-1.508214248319774e-10
-0.000951631028513573
-2.02334422232151e-10
-0.0009516309745306754
-2.717220738616156e-10
-3.620322787791632e-10
-0.0009533230521748817
2.488363111359588e-09
-0.0009533230017957576
3.274285383669393e-10
-0.0009533230201984906
-1.817454783787062e-10
-0.0009533230602776509
1.704665556532115e-10
-0.0009533230301049173
-9.370365033376458e-11
-0.0009533230592334103
9.338016800758764e-11
-0.0009533230580735196
-6.037227869867935e-12
-0.0009533230793800055
1.022049156420904e-10
-0.0009533230821085872
5.629986382207392e-11
-0.0009533231002785064
8.006334083685451e-11
-0.0009533230777990767
3.168026252286659e-11
-0.0009533230662732725
2.671867735040204e-11
-0.0009533230332809837
8.044092772128556e-12
-0.0009533229675354889
-9.266046445816203e-11
-0.0009533229264365525
-4.380767948402307e-11
-0.0009533228589611861
-1.043887673430407e-10
-0.0009533228037272246
-9.972686203510734e-11
-0.0009533227736711119
-2.404292362061791e-11
-0.0009533227600204537
-5.063751124963182e-11
-0.0009533227517072102
9.444094340325391e-12
-0.0009533227569982866
4.498071222702972e-11
-0.0009533227563958454
-1.577629596437387e-11
-0.0009533227736984683
7.381038690718012e-11
-0.0009533227682910196
-6.078878080651587e-11
-0.0009533227769989267
5.149747723377685e-11
-0.000953322751619357
-1.057432010959357e-10
-0.0009533227458382274
1.004719855628459e-12
-0.0009533226965379927
-1.304296593669268e-10
-0.0009533226587414102
-8.28629096193443e-11
-0.0009533225774092136
-1.808343059796994e-10
-0.0009533225208304033
-1.294323181210015e-10
-0.0009533224574254862
-1.490826898406381e-10
-0.0009533223970009197
-1.522795850553043e-10
-0.0009533223645477334
-8.985623389159718e-11
-0.000953322337533148
-9.66443684596362e-11
-0.0009533223405386944
4.254616895495777e-11
-0.0009533223264811096
-8.211442516869904e-11
-0.0009533223505795047
8.585982481878959e-11
-0.0009533223724540412
6.12329895802877e-11
-0.0009533224090381081
1.37899086177505e-10
-0.0009533224572275984
1.907259791286815e-10
-0.0009533225627426257
4.903828153722106e-10
-0.0009533226544728454
6.884621661306637e-11
-0.000953322703229048
1.957417459883426e-10
-0.00095332279562712
2.312186780648523e-10
-0.0009533228449691601
1.058196285415893e-10
-0.0009533228973631209
7.095765615170811e-11
-0.0009533229128845567
-6.948564682518573e-12
-0.0009533229496751524
-7.471162434967364e-12
-0.0009533229566765606
-2.674362197801735e-12
-0.0009533229257776277
-1.407938718005537e-10
-0.0009533229219311507
-8.28120245234782e-11
-0.0009533228716230148
-1.848001504636133e-10
-0.0009533228540688094
-1.657077556755429e-10
-0.0009533228211838719
-2.156011783382539e-10
-0.000953322814524755
-2.491936279025704e-10
-0.0009533228389848764
-2.772064886991517e-10
-2.383861756163591e-10
-0.0009547652200739067
2.546815034169582e-09
-0.0009547651611683458
2.469583023309593e-10
-0.0009547652057339697
-1.657389755485103e-10
-0.0009547652243444396
1.986031002837071e-10
-0.0009547652004598986
-1.228368072395168e-10
-0.0009547652280173566
1.283825231429312e-10
-0.0009547652236098227
-4.774601591802014e-12
-0.0009547652438168675
1.444750476889151e-10
-0.0009547652417195331
8.124450734213079e-11
-0.0009547652505052774
1.091194886144877e-10
-0.000954765216861008
2.068797396382766e-11
-0.0009547651944549211
1.594725170967885e-11
-0.0009547651498682062
-1.887458256002992e-11
-0.0009547650753664053
-1.525583271457443e-10
-0.0009547650267667037
-7.854427451940235e-11
-0.0009547649517680098
-1.629462529864213e-10
-0.0009547648935157554
-1.418184723607034e-10
-0.000954764860338734
-4.22348987777989e-11
-0.0009547648418915517
-6.854959627031668e-11
-0.0009547648360887254
-9.663062978718856e-12
-0.000954764842463192
6.815024650398321e-11
-0.0009547648388517394
-2.64001948694998e-11
-0.0009547648545934228
9.6121132697939e-11
-0.0009547648449578619
-7.839076006062629e-11
-0.0009547648465157428
5.153326150819471e-11
-0.0009547648136071492
-1.547664631478439e-10
-0.0009547647981100786
-2.946393739113563e-11
-0.0009547647387219236
-2.073534383945001e-10
-0.0009547646906540234
-1.467684843574839e-10
-0.0009547646008291489
-2.77648421711445e-10
-0.0009547645393416637
-2.000732608605101e-10
-0.0009547644735537689
-2.17030167971308e-10
-0.0009547644142801942
-2.162568183392597e-10
-0.0009547643835834964
-1.292110579241389e-10
-0.0009547643623409722
-1.242952790663094e-10
-0.0009547643733373856
6.353439436643052e-11
-0.0009547643675655796
-9.478716219344479e-11
-0.0009547644015511238
1.364544943009269e-10
-0.0009547644349843826
1.100429862612085e-10
-0.000954764482906767
2.151761958840634e-10
-0.0009547645466570116
2.941291391675212e-10
-0.0009547646619560901
6.863012566631163e-10
-0.0009547647646433487
1.442094012847252e-10
-0.000954764826604324
2.992421838912971e-10
-0.0009547649323523623
3.519370816965369e-10
-0.0009547649888126371
1.666237046092847e-10
-0.0009547650475063086
1.116275760848001e-10
-0.0009547650661634404
-1.081316685344545e-11
-0.0009547651027054452
1.885104466584075e-12
-0.0009547651090131065
-4.521311928222826e-12
-0.0009547650772059218
-1.954641704308148e-10
-0.0009547650725930524
-1.156421206192422e-10
-0.0009547650224637125
-2.616683057988086e-10
-0.0009547650110603212
-2.22783208151119e-10
-0.000954764988595342
-2.891976985323188e-10
-0.000954765007079907
-2.985820720997008e-10
-0.0009547650617707563
-2.810602029057524e-10
-1.015017639691108e-10
-0.0009572468710253112
2.463781142274938e-09
-0.0009572468051379587
1.52646736832531e-10
-0.0009572468697406781
-1.056426284270472e-10
-0.0009572468722658648
2.035057952478374e-10
-0.0009572468515597456
-1.401791413511988e-10
-0.0009572468755674017
1.596351084600978e-10
-0.000957246864839098
-1.841960993333282e-11
-0.0009572468798363583
1.62569211347114e-10
-0.0009572468683708255
8.082298307601108e-11
-0.0009572468709466152
1.039440256211898e-10
-0.0009572468303653921
1.514291868742391e-12
-0.0009572468011214337
-5.486220602754514e-12
-0.000957246748017176
-5.573921526716436e-11
-0.0009572466661815045
-2.18387926122418e-10
-0.0009572466115443348
-1.246714249622178e-10
-0.0009572465326524948
-2.341289634913837e-10
-0.0009572464726238016
-1.951644192964349e-10
-0.0009572464373507857
-6.861142414755416e-11
-0.0009572464222816533
-9.477361468329074e-11
-0.0009572464154545407
1.791334680285826e-11
-0.0009572464170305857
6.297684533108905e-11
-0.000957246412137241
-2.300132259122381e-11
-0.0009572464216255574
1.113750302207596e-10
-0.0009572464082326032
-1.13104890002666e-10
-0.0009572464045733546
5.705084552127e-11
-0.0009572463671949635
-2.113822687828419e-10
-0.0009572463466594598
-4.193345279389724e-11
-0.000957246281223466
-2.765867186408074e-10
-0.0009572462291773041
-2.029592869577682e-10
-0.0009572461362253061
-3.634847205505923e-10
-0.0009572460742647333
-2.612810637393602e-10
-0.0009572460093445668
-2.810971398471848e-10
-0.0009572459553314527
-2.684918606039486e-10
-0.0009572459314659466
-1.533739018976139e-10
-0.0009572459190436692
-1.392150033500467e-10
-0.0009572459368957279
9.520098603990001e-11
-0.0009572459426379498
-9.518385557749877e-11
-0.0009572459899067347
2.01371937381628e-10
-0.0009572460348936131
1.671170815126469e-10
-0.0009572460959593965
2.96872276928259e-10
-0.0009572461658904554
3.795869125696678e-10
-0.0009572462799350603
8.582531450272723e-10
-0.0009572463915693561
2.306888033651091e-10
-0.000957246457889633
3.782515238739444e-10
-0.0009572465619618037
4.650213895774519e-10
-0.0009572466194896397
2.248614627516893e-10
-0.0009572466779720717
1.564033832173292e-10
-0.000957246699450411
1.419894071099167e-11
-0.0009572467363093006
1.795577165338474e-11
-0.0009572467411919255
-9.630536868501317e-12
-0.0009572467084704571
-2.44693872105188e-10
-0.0009572467034067662
-1.440053365086063e-10
-0.0009572466538574558
-3.278985858671849e-10
-0.0009572466463763475
-2.584943793918619e-10
-0.0009572466347821598
-3.265679368187383e-10
-0.0009572466743193403
-2.909984154685631e-10
-0.0009572467587503748
-2.137697662748065e-10
4.35806530238135e-11
-0.000963605350762768
2.443158029036869e-09
-0.0009636053007100067
7.097169766655031e-11
-0.0009636053616521099
-6.416656772740263e-11
-0.0009636053523015311
2.015140059429122e-10
-0.0009636053348759848
-1.625947028465375e-10
-0.0009636053528493671
1.84178107579651e-10
-0.0009636053374790295
-2.685198223345906e-11
-0.0009636053512124686
1.994998032575146e-10
-0.0009636053346241571
9.430983355718362e-11
-0.0009636053314941055
1.243560439984045e-10
-0.0009636052833614124
-2.475972377330767e-11
-0.0009636052480163171
-2.861159605898285e-11
-0.0009636051908201595
-9.560234293278871e-11
-0.0009636051075794584
-2.868608660309191e-10
-0.0009636050503382568
-1.667129666298482e-10
-0.0009636049703998781
-2.962388505429148e-10
-0.0009636049085078813
-2.391571554715988e-10
-0.0009636048724514904
-8.841399104929952e-11
-0.0009636048510044061
-1.136472139642239e-10
-0.0009636048446783035
-6.00259719795482e-12
-0.0009636048480185485
8.065333023415688e-11
-0.0009636048386638197
-4.112668787254822e-11
-0.0009636048485311722
1.266891483633852e-10
-0.000963604832574505
-1.348884886011403e-10
-0.0009636048256590839
4.779285604125642e-11
-0.0009636047853201792
-2.666776830475591e-10
-0.0009636047613391784
-8.259562346361973e-11
-0.0009636046951488792
-3.610056252884165e-10
-0.0009636046426415821
-2.715841634331481e-10
-0.0009636045513640501
-4.617532000278875e-10
-0.0009636044924502657
-3.284467318688539e-10
-0.000963604431178533
-3.428801080957497e-10
-0.0009636043834436736
-3.191815159705964e-10
-0.0009636043652765781
-1.78194289772285e-10
-0.00096360435776436
-1.535358005756199e-10
-0.0009636043819338604
1.281481651639346e-10
-0.0009636043939209676
-8.82109400776594e-11
-0.0009636044460198442
2.714257947496745e-10
-0.0009636044964035843
2.33801776542319e-10
-0.0009636045627683035
3.940785471213206e-10
-0.0009636046411474008
4.964422965750259e-10
-0.0009636047562323504
1.041914747301784e-09
-0.000963604868523043
3.263589249306047e-10
-0.0009636049427816598
4.93301158740493e-10
-0.0009636050523040741
5.913225903127305e-10
-0.0009636051128267157
2.913899914987521e-10
-0.0009636051747336128
2.01536494216541e-10
-0.000963605197597273
1.659484791924541e-11
-0.0009636052318367568
2.982841108131637e-11
-0.0009636052364274837
-1.282430947600558e-11
-0.0009636052030378501
-2.994351744995241e-10
-0.0009636051960513542
-1.794929417083541e-10
-0.0009636051488298488
-4.027158551229006e-10
-0.0009636051455191823
-3.093135187029518e-10
-0.0009636051411749066
-3.838021822080979e-10
-0.0009636051869980046
-3.135635461561657e-10
-0.0009636052676345458
-1.821939730627733e-10
1.786662715315826e-10
-0.0009793617350421465
2.30894120049927e-09
-0.0009793616845221382
-8.717240434677163e-12
-0.0009793617510808405
3.181538378910014e-12
-0.0009793617327658649
1.817987238774062e-10
-0.0009793617157640361
-1.745575359799347e-10
-0.0009793617280247293
2.033726986686307e-10
-0.0009793617077296353
-5.171115348110733e-11
-0.0009793617162216345
2.052378024167594e-10
-0.0009793616917289835
7.908819116324973e-11
-0.0009793616862328631
1.068231895935963e-10
-0.0009793616346124854
-5.711059791422189e-11
-0.0009793615965765345
-6.066093174441667e-11
-0.0009793615347072344
-1.432174799892236e-10
-0.0009793614464665005
-3.588575508672704e-10
-0.0009793613848527566
-2.210088647587274e-10
-0.0009793613029500743
-3.709506161029193e-10
-0.0009793612385293369
-2.977883935750478e-10
-0.0009793612009792044
-1.176224964242513e-10
-0.0009793611835904378
-1.457374803015107e-10
-0.0009793611762213515
2.869600732662444e-11
-0.0009793611755796964
6.751097256333885e-11
-0.0009793611657140681
-3.835239125281452e-11
-0.0009793611711714735
1.390487341778878e-10
-0.0009793611536355203
-1.748445763945858e-10
-0.0009793611454457769
5.402402731193293e-11
-0.0009793611040262106
-3.287294716127578e-10
-0.0009793610804617215
-9.190513381985057e-11
-0.0009793610132152156
-4.302538818745679e-10
-0.0009793609627143471
-3.242622513586068e-10
-0.0009793608723326316
-5.407965725034743e-10
-0.0009793608153890331
-3.82298614291177e-10
-0.0009793607564402105
-3.98047428723502e-10
-0.0009793607145775639
-3.560473794416039e-10
-0.000979360703927086
-1.866621770651906e-10
-0.0009793607033294048
-1.554001328409911e-10
-0.0009793607325636674
1.718300251978202e-10
-0.0009793607543808925
-6.949076188098813e-11
-0.0009793608170223002
3.525977419494266e-10
-0.0009793608745814735
3.034053550710351e-10
-0.0009793609502841902
4.890195512493153e-10
-0.0009793610292527296
5.846959579836386e-10
-0.0009793611381580215
1.191694320357397e-09
-0.0009793612543692813
4.253054806148794e-10
-0.0009793613294739915
5.734191276973487e-10
-0.0009793614316351302
6.993196892609012e-10
-0.0009793614917179326
3.525166265822837e-10
-0.0009793615518994088
2.482306235698328e-10
-0.0009793615758776845
5.100458967146142e-11
-0.0009793616107488165
4.973024606826683e-11
-0.0009793616129133954
-2.006107305662372e-11
-0.0009793615774404845
-3.474922142432273e-10
-0.00097936156991985
-2.085600629498707e-10
-0.0009793615237258537
-4.619692549162941e-10
-0.0009793615231100603
-3.336386192675092e-10
-0.0009793615275860961
-3.969012061113806e-10
-0.0009793615843398523
-2.807190338400484e-10
-0.0009793616812873533
-9.256672133888271e-11
2.961861249561198e-10
-0.001013923502733306
2.25278875060113e-09
-0.001013923465928427
-8.265960547750376e-11
-0.001013923521456469
4.868287309660175e-11
-0.001013923498120633
1.624070947090497e-10
-0.001013923481419527
-1.951549478089425e-10
-0.001013923487260403
2.147086846693825e-10
-0.001013923464458171
-6.663964852233548e-11
-0.001013923473188726
2.378064060316467e-10
-0.00101392344630724
8.538949319096467e-11
-0.001013923437720766
1.23943561855082e-10
-0.001013923379659767
-9.266338512441243e-11
-0.001013923336783845
-9.142958426378995e-11
-0.001013923272425813
-1.917025794797007e-10
-0.001013923183071372
-4.332360858240605e-10
-0.001013923118759367
-2.686698504167977e-10
-0.001013923035336138
-4.351424231625555e-10
-0.001013922967230835
-3.458690461882269e-10
-0.001013922929414343
-1.383494481461646e-10
-0.001013922904688706
-1.67409712361867e-10
-0.001013922897959674
2.253828771510974e-12
-0.001013922901651831
8.012514448682795e-11
-0.001013922887908505
-6.102204330385121e-11
-0.001013922897664899
1.534312134277583e-10
-0.001013922879128921
-1.972722650449982e-10
-0.001013922871094303
4.412776478051779e-11
-0.001013922828138371
-3.862126797394043e-10
-0.001013922804048431
-1.340363411264066e-10
-0.001013922737673263
-5.152863918678178e-10
-0.001013922688674099
-3.900335500691462e-10
-0.001013922599446256
-6.355995750014126e-10
-0.001013922545742489
-4.424091381695222e-10
-0.001013922489381462
-4.521523085393926e-10
-0.00101392245196797
-3.935576388166446e-10
-0.001013922446211592
-1.961514308814354e-10
-0.001013922447742796
-1.605532501677633e-10
-0.001013922482246241
2.152361130410654e-10
-0.001013922507910546
-4.705783847998072e-11
-0.001013922572505165
4.367804450865842e-10
-0.001013922632709531
3.811903443382987e-10
-0.001013922711783917
6.001758804818001e-10
-0.001013922796749704
7.052322057802497e-10
-0.001013922906268988
1.357259423941153e-09
-0.001013923021849071
5.336383710732354e-10
-0.001013923105383523
6.94007070319617e-10
-0.001013923212938237
8.249305751810562e-10
-0.001013923277771192
4.251287131808631e-10
-0.001013923344237164
3.000696957234158e-10
-0.001013923369648798
6.050086380919839e-11
-0.001013923401703536
6.557475996026265e-11
-0.001013923403166484
-2.534769492329403e-11
-0.001013923365583364
-4.032101382473801e-10
-0.001013923356442913
-2.455354824624102e-10
-0.001013923312747251
-5.337422933478791e-10
-0.001013923315937256
-3.784122289035211e-10
-0.001013923324450042
-4.424455825028218e-10
-0.001013923376500397
-2.94924356853282e-10
-0.001013923459521895
-4.832038190476165e-11
4.165121192461166e-10
-0.00108108775219031
2.101294832462361e-09
-0.001081087719391089
-1.412927754650153e-10
-0.001081087777653386
1.106857627338027e-10
-0.001081087748411185
1.286247232032223e-10
-0.001081087729666594
-2.070938645395249e-10
-0.001081087730253836
2.218959569425529e-10
-0.001081087703203486
-1.016961430957288e-10
-0.001081087706872334
2.344494949575372e-10
-0.001081087672357553
5.62425770262879e-11
-0.001081087662634235
1.002281501688629e-10
-0.001081087600060757
-1.377913316184068e-10
-0.001081087553920473
-1.35757128647322e-10
-0.001081087482833359
-2.510378170551425e-10
-0.001081087383957349
-5.162031704188671e-10
-0.001081087312454384
-3.34022118697937e-10
-0.001081087223871822
-5.175073383564599e-10
-0.001081087149624805
-4.142354026662468e-10
-0.001081087109702268
-1.721595147401558e-10
-0.001081087089995703
-2.090523007847402e-10
-0.001081087083904107
4.211225351514444e-11
-0.001081087086474761
6.62501847519858e-11
-0.001081087072135137
-5.450571416558123e-11
-0.001081087079370742
1.696301687534065e-10
-0.001081087059352932
-2.416422317849727e-10
-0.001081087052179333
5.601288802346283e-11
-0.001081087007062956
-4.553267349530609e-10
-0.001081086985274799
-1.381000836915263e-10
-0.001081086915464896
-5.85116030068053e-10
-0.001081086868732265
-4.384745583848945e-10
-0.001081086775033071
-7.114445071164239e-10
-0.00108108672022371
-4.904884369157943e-10
-0.001081086662813474
-5.032114064945696e-10
-0.001081086627836266
-4.209503596359786e-10
-0.00108108662871615
-1.897919359436362e-10
-0.001081086636108308
-1.514167288229811e-10
-0.00108108667797764
2.718871981502174e-10
-0.001081086715086284
-9.768577224016764e-12
-0.001081086792306086
5.328417865097286e-10
-0.001081086860767525
4.619882562278998e-10
-0.001081086951828263
7.064168606567022e-10
-0.001081087037090725
7.902492915301141e-10
-0.001081087141301897
1.488194189804119e-09
-0.001081087264320799
6.453656798409787e-10
-0.001081087350912545
7.73484033773585e-10
-0.001081087449891748
9.26323769124841e-10
-0.001081087516448382
4.912292632172362e-10
-0.001081087584419134
3.538939902228495e-10
-0.001081087611011444
1.017239410084838e-10
-0.001081087643469136
8.76070419876809e-11
-0.001081087641496385
-3.469116759942415e-11
-0.001081087599391219
-4.543340807051312e-10
-0.001081087590753038
-2.718188927844409e-10
-0.001081087547434644
-5.869832092916029e-10
-0.001081087554454702
-3.860742139809416e-10
-0.001081087573586192
-4.343549385607513e-10
-0.001081087636017471
-2.423987286279364e-10
-0.0010810877353937
5.460706538590657e-11
5.029156778387772e-10
-0.001197699800462782
2.018755325609994e-09
-0.001197699778012846
-1.982226231403229e-10
-0.001197699825722091
1.571661816120447e-10
-0.001197699795037731
9.652705824776528e-11
-0.001197699771943424
-2.319360223075345e-10
-0.001197699767124629
2.21305474555227e-10
-0.001197699737235237
-1.243652645808526e-10
-0.001197699743592273
2.623361296438704e-10
-0.001197699705325749
5.368491139499449e-11
-0.001197699693121272
1.130375487728688e-10
-0.001197699618412045
-1.888272997880166e-10
-0.001197699564505148
-1.806737530385118e-10
-0.001197699487440035
-3.165499404902036e-10
-0.001197699380272637
-6.087175461727279e-10
-0.001197699302108495
-3.953839368634273e-10
-0.001197699206669182
-5.922316394657741e-10
-0.001197699123129434
-4.761044780828697e-10
-0.001197699082781645
-1.967908013171532e-10
-0.001197699053958388
-2.396800549428562e-10
-0.001197699048620711
2.036789783130345e-11
-0.001197699059203784
7.662201249434781e-11
-0.001197699039363986
-7.799506169098486e-11
-0.001197699055694295
1.916914559306061e-10
-0.001197699032840744
-2.667942277261596e-10
-0.00119769902747671
5.295449214234909e-11
-0.001197698976866325
-5.230201067766529e-10
-0.001197698954342728
-1.776563844089864e-10
-0.001197698880384829
-6.788307663652254e-10
-0.001197698833193146
-5.03303855799143e-10
-0.001197698732664149
-8.132181829021384e-10
-0.001197698676603909
-5.493029607569711e-10
-0.001197698616367284
-5.571806451246071e-10
-0.001197698583528052
-4.496750326434069e-10
-0.001197698590082823
-1.827836500554505e-10
-0.001197698597398706
-1.485034235298182e-10
-0.001197698648157929
3.329278487824107e-10
-0.001197698690447141
3.171021377750056e-11
-0.001197698773179542
6.363054512753397e-10
-0.001197698846210215
5.532949541828543e-10
-0.001197698945557967
8.364252756583875e-10
-0.00119769904479837
9.176332939562559e-10
-0.001197699154366795
1.638790860851272e-09
-0.001197699281036852
7.714225324373359e-10
-0.001197699384336774
9.031838060747664e-10
-0.001197699494226693
1.05244206897379e-09
-0.001197699570240461
5.76765342664169e-10
-0.001197699650054059
4.227949297206846e-10
-0.001197699680481719
1.247532912775494e-10
-0.001197699712274581
1.111236621281843e-10
-0.001197699709195711
-4.077201703219172e-11
-0.001197699662005624
-5.127406269046818e-10
-0.0011976996530748
-3.047308132052058e-10
-0.001197699611165778
-6.544043031438551e-10
-0.001197699622553414
-4.18016252026698e-10
-0.001197699645055422
-4.61613924195407e-10
-0.00119769969958527
-2.453859918270165e-10
-0.001197699784741259
1.120613637830557e-10
5.986615878144277e-10
-0.001379600323578739
1.867371973773654e-09
-0.001379600310949124
-2.315355101237321e-10
-0.001379600359600649
2.097375132790057e-10
-0.00137960032430934
5.423570146795037e-11
-0.001379600293737359
-2.557354146123259e-10
-0.001379600283231715
2.166085074550384e-10
-0.001379600245840487
-1.711957581296384e-10
-0.001379600247626691
2.516688382172335e-10
-0.001379600197155459
7.389844092319884e-12
-0.001379600183279143
8.137667305918506e-11
-0.001379600095837619
-2.627408568679776e-10
-0.001379600033762519
-2.452132050918355e-10
-0.001379599942475054
-4.000473988365459e-10
-0.001379599812981251
-7.24073057870149e-10
-0.001379599720207116
-4.846853428108481e-10
-0.001379599611150389
-6.946256289951449e-10
-0.00137959951303473
-5.697556337812385e-10
-0.001379599470116665
-2.361955664650796e-10
-0.001379599445178619
-2.91554933051309e-10
-0.001379599441670595
6.7491631574652e-11
-0.001379599454914272
7.098579502881371e-11
-0.001379599430356632
-7.59145445977474e-11
-0.001379599447857893
2.209321345219113e-10
-0.001379599419540208
-3.168970882671099e-10
-0.001379599416419541
7.310994162337296e-11
-0.001379599357427352
-6.080875876739166e-10
-0.001379599336678343
-1.772630629914545e-10
-0.00137959925089767
-7.657472514001768e-10
-0.001379599202386874
-5.5234930407098e-10
-0.001379599084404496
-9.095615129113991e-10
-0.001379599019664064
-6.050287181748935e-10
-0.001379598950733753
-6.183606509669054e-10
-0.001379598917303094
-4.737540458765145e-10
-0.001379598932936995
-1.595907226242085e-10
-0.001379598946521676
-1.303806232429182e-10
-0.001379599013608832
4.144662616754786e-10
-0.001379599074488727
9.638976027844265e-11
-0.001379599179799753
7.594291717572325e-10
-0.001379599267415616
6.520326931294784e-10
-0.001379599388109088
9.685934697287431e-10
-0.001379599497618647
1.020842878529223e-09
-0.001379599608571427
1.762434455396387e-09
-0.00137959975122043
9.053404684168996e-10
-0.001379599866980765
1.00392774498398e-09
-0.001379599973120815
1.15549113665985e-09
-0.001379600055726613
6.579344534398984e-10
-0.001379600142502588
4.95281781840545e-10
-0.001379600176483538
1.755880985425723e-10
-0.001379600208905669
1.362348878755797e-10
-0.001379600201606199
-5.221242839900168e-11
-0.001379600145698863
-5.736167772154255e-10
-0.001379600138951049
-3.245540678999628e-10
-0.001379600096632502
-7.01344815247382e-10
-0.001379600115376366
-4.064189014686781e-10
-0.001379600155520336
-4.21801697541224e-10
-0.001379600226950016
-1.743888981409487e-10
-0.001379600332994013
2.270928964162488e-10
6.516680131332262e-10
-0.001635455463542763
1.77204239730078e-09
-0.001635455460609136
-2.587265864112745e-10
-0.001635455498665233
2.508152871327783e-10
-0.001635455464137816
1.220568978440625e-11
-0.001635455421341085
-2.983491929025716e-10
-0.001635455406204444
2.039655730650176e-10
-0.001635455363256324
-2.108252836036349e-10
-0.001635455369520218
2.712736087690138e-10
-0.001635455310352527
-1.844044457596036e-11
-0.001635455291755431
8.097718980643743e-11
-0.001635455181571154
-3.505549841228808e-10
-0.001635455104306095
-3.209452785760697e-10
-0.001635454998147044
-5.02895902629972e-10
-0.001635454845619001
-8.644138663103993e-10
-0.001635454736823948