/*--------------------------------*- C++ -*----------------------------------*\
| =========                 |                                                 |
| \\      /  F ield         | OpenFOAM: The Open Source CFD Toolbox           |
|  \\    /   O peration     | Version:  v1812                                 |
|   \\  /    A nd           | Web:      www.OpenFOAM.com                      |
|    \\/     M anipulation  |                                                 |
\*---------------------------------------------------------------------------*/
FoamFile
{
    version     2.0;
    format      ascii;
    class       volVectorField;
    location    "10000";
    object      U;
}
// * * * * * * * * * * * * * * * * * * * * * * * * * * * * * * * * * * * * * //

dimensions      [0 1 -1 0 0 0 0];


internalField   nonuniform List<vector> 
3770
(
(-1.001791688818822 5.943543097672625e-08 -1.175995442966486e-06)
(-1.001792852398043 4.260435315542546e-09 -1.176012043687675e-06)
(-1.001792535388007 -3.842880881957185e-09 -1.175991153806613e-06)
(-1.001792651831165 1.393769871249933e-09 -1.176007976234028e-06)
(-1.001792621308712 -7.037707515565533e-10 -1.175993456890349e-06)
(-1.001792623666438 4.559706739237465e-10 -1.176006238088857e-06)
(-1.001792637631474 -1.286720778110232e-10 -1.175994176536151e-06)
(-1.001792625133463 9.036552447444289e-10 -1.176005414962466e-06)
(-1.001792649687706 3.149023714586075e-10 -1.175994392685607e-06)
(-1.001792644026892 8.713504693495758e-10 -1.176004781428573e-06)
(-1.0017926721804 3.938547841859421e-10 -1.175994612511499e-06)
(-1.001792655360152 5.148047451255961e-10 -1.176004076510099e-06)
(-1.001792674127382 7.779316851601191e-10 -1.175994784751225e-06)
(-1.001792646420775 1.05088371422883e-10 -1.176003407410749e-06)
(-1.001792641329243 3.21957277613086e-10 -1.175994728731655e-06)
(-1.001792619313395 1.902521965377357e-10 -1.176002847159555e-06)
(-1.001792592812629 -1.618550415496072e-10 -1.175994593207356e-06)
(-1.001792574608983 3.285314869632978e-10 -1.176002274151412e-06)
(-1.001792553777495 -2.079183688426278e-10 -1.175994495836959e-06)
(-1.001792568304821 -1.605065900117618e-10 -1.17600174471975e-06)
(-1.001792538793117 9.246776512141134e-10 -1.175994403995552e-06)
(-1.001792559540023 -4.289153877434552e-10 -1.176001227133085e-06)
(-1.001792566549919 6.025999917042808e-10 -1.17599438827423e-06)
(-1.001792563792255 -4.930566082659229e-10 -1.176000778567291e-06)
(-1.001792586309929 4.138505958570511e-10 -1.175994315384591e-06)
(-1.001792575459768 -7.181908246026848e-10 -1.176000415968593e-06)
(-1.001792586075996 9.33892316003772e-11 -1.175994224289732e-06)
(-1.001792579654546 -7.152714702893912e-10 -1.176000098617472e-06)
(-1.001792572822801 -1.212339660506085e-11 -1.17599408456042e-06)
(-1.001792557946751 -6.678080393253486e-10 -1.175999667539934e-06)
(-1.001792531700809 -3.473870696725257e-10 -1.175993806262067e-06)
(-1.001792512261992 -6.034318054096085e-10 -1.175999156937014e-06)
(-1.001792478601552 -6.321911938449239e-10 -1.175993543427247e-06)
(-1.001792457594078 -4.133144486261334e-10 -1.175998539070946e-06)
(-1.001792438077564 -6.080134018875872e-10 -1.175993160790148e-06)
(-1.001792426080894 1.721041765976666e-10 -1.17599800011525e-06)
(-1.001792417591736 -5.224251889205386e-10 -1.175992932481184e-06)
(-1.001792401353901 2.212296528377158e-10 -1.175997350656392e-06)
(-1.001792413880754 -1.42224109106463e-11 -1.175992573935737e-06)
(-1.001792402354345 6.189867628769048e-10 -1.175996868843395e-06)
(-1.001792427990417 1.474178704764951e-09 -1.175992297814532e-06)
(-1.001792409996731 3.228771632428578e-09 -1.175996545802883e-06)
(-1.001792533762537 -1.188561219680625e-09 -1.175992590555055e-06)
(-1.001792480982258 1.63094790834266e-09 -1.175996437997825e-06)
(-1.001792540044576 6.649237354664719e-10 -1.175992250399302e-06)
(-1.001792560914878 2.868660362003478e-10 -1.175996350073043e-06)
(-1.001792571239402 -2.307202227766664e-11 -1.175991906737361e-06)
(-1.001792601721427 -7.343031738364174e-10 -1.175995710593218e-06)
(-1.00179258958225 -8.674082779996224e-10 -1.175991468227922e-06)
(-1.00179263073085 1.329721945527264e-10 -1.175995094435323e-06)
(-1.001792594698129 -1.021431309979551e-09 -1.175991096589212e-06)
(-1.00179262035069 -4.637662126208045e-10 -1.175994491013559e-06)
(-1.00179257915381 -9.340882947168953e-10 -1.175990592517781e-06)
(-1.001792578626867 -1.317888035696303e-09 -1.175993539227321e-06)
(-1.001792549321135 -1.693280423761439e-09 -1.175989679089845e-06)
(-1.001792522310158 -3.0720556728585e-09 -1.175991562690622e-06)
(-1.001792478422397 -5.526773377886796e-09 -1.175986183865232e-06)
(-1.001792331536169 -4.739609077307037e-09 -1.175988167894925e-06)
(-1.004247068331576 1.34686227045536e-07 -3.503872645572799e-06)
(-1.00424753330289 1.758310955805828e-08 -3.503907226670122e-06)
(-1.00424726780459 -1.225964146932114e-08 -3.503857177788227e-06)
(-1.0042474141123 5.836838011705166e-09 -3.503901884287378e-06)
(-1.004247375183074 -2.438652929612472e-09 -3.50386118560841e-06)
(-1.004247370803581 2.1464803955593e-09 -3.503897872888711e-06)
(-1.004247414046969 1.654891878949194e-10 -3.503862826518242e-06)
(-1.004247383605085 3.076022141915337e-09 -3.503895700268833e-06)
(-1.004247440651691 1.590178395274676e-09 -3.503863390797714e-06)
(-1.004247422590284 2.936438017175586e-09 -3.503893864483269e-06)
(-1.004247463729057 1.133593646990119e-09 -3.503864037549979e-06)
(-1.00424741989949 1.403814274866789e-09 -3.503891757341921e-06)
(-1.004247448904591 1.56359247414796e-09 -3.50386453732075e-06)
(-1.004247371561056 -8.730264347370403e-10 -3.50388982373738e-06)
(-1.004247365956068 4.193883062436603e-11 -3.503864297317737e-06)
(-1.004247306076655 -9.809122896269615e-10 -3.503888195389792e-06)
(-1.004247255143338 -1.558168382404233e-09 -3.503863863950245e-06)
(-1.004247221922128 2.324687661847791e-11 -3.503886482848448e-06)
(-1.004247182391582 -1.051950456105264e-09 -3.503863563296977e-06)
(-1.004247194815109 -5.309776620118125e-10 -3.50388483187e-06)
(-1.004247174463762 2.231537873180769e-09 -3.503863340122925e-06)
(-1.004247184926592 -8.31455161433199e-10 -3.503883326155892e-06)
(-1.004247213516196 1.932708649119592e-09 -3.50386322193569e-06)
(-1.004247201632273 -1.1860364444206e-09 -3.503882041512649e-06)
(-1.00424723746056 1.223331381172111e-09 -3.503862970003469e-06)
(-1.004247208977515 -2.287117473187327e-09 -3.503880963322476e-06)
(-1.004247220644674 -2.493071683809938e-11 -3.503862669356073e-06)
(-1.004247193074176 -2.702356491693151e-09 -3.503880032088767e-06)
(-1.004247170994071 -1.141536582500436e-09 -3.503862292210763e-06)
(-1.004247119125505 -3.35021208469233e-09 -3.503878799017801e-06)
(-1.00424706735998 -2.387070023204814e-09 -3.503861471280816e-06)
(-1.004247017206815 -3.036036403031629e-09 -3.503877269485853e-06)
(-1.004246962849098 -3.288568095801353e-09 -3.503860704162366e-06)
(-1.004246913573915 -2.157993676012513e-09 -3.503875495787684e-06)
(-1.004246883481417 -2.414519532523488e-09 -3.503859539196213e-06)
(-1.004246864701139 4.081649357823925e-10 -3.503873853652388e-06)
(-1.00424686232346 -1.955367333121098e-09 -3.503858925655575e-06)
(-1.004246830687654 1.126286756194978e-09 -3.503872002950653e-06)
(-1.004246871212261 7.372641587691535e-10 -3.503857838829067e-06)
(-1.004246857764884 2.862410359851752e-09 -3.503870581614619e-06)
(-1.004246913466004 5.088575914084517e-09 -3.503857019710158e-06)
(-1.004246903566049 1.162537598070874e-08 -3.503869573913713e-06)
(-1.004247114584248 -9.632555484169468e-10 -3.50385767814153e-06)
(-1.004247055742549 5.218944016793281e-09 -3.503869322560552e-06)
(-1.004247159218947 3.729958787697433e-09 -3.503856754957971e-06)
(-1.004247228635736 1.513291591939461e-09 -3.503869005535189e-06)
(-1.004247239390987 4.039766003423157e-10 -3.503855893082877e-06)
(-1.004247314454934 -2.281271381882208e-09 -3.503867106953786e-06)
(-1.004247275357855 -1.670352208099982e-09 -3.503854599861e-06)
(-1.004247376481982 -2.12315558979049e-11 -3.503865296987678e-06)
(-1.004247280148163 -3.563215946120974e-09 -3.503853484846897e-06)
(-1.00424734794029 -2.043043722817875e-09 -3.50386353946191e-06)
(-1.004247252894675 -4.127646795027887e-09 -3.50385212585028e-06)
(-1.004247263624706 -4.68222389259509e-09 -3.503860898698441e-06)
(-1.004247209668317 -6.28889678955421e-09 -3.503849744142966e-06)
(-1.004247175007764 -9.600784395168819e-09 -3.503855861246455e-06)
(-1.004247150155694 -1.644205426475858e-08 -3.503843492709045e-06)
(-1.00424708631877 -1.641818564200794e-08 -3.503854978345506e-06)
(-1.005619807649897 1.401754153195687e-07 -5.848993059629349e-06)
(-1.005619843323959 2.23186383250285e-08 -5.849035747550259e-06)
(-1.005619757955874 -1.536857281336389e-08 -5.848964803635999e-06)
(-1.005619859799166 8.858846562400734e-09 -5.849031927621812e-06)
(-1.005619828887032 -4.098405486332613e-09 -5.848968654537839e-06)
(-1.005619820539411 3.917248048119697e-09 -5.8490266500373e-06)
(-1.005619876102481 5.04001615371159e-10 -5.848970694844889e-06)
(-1.005619832958672 5.257281587412639e-09 -5.849023425276047e-06)
(-1.005619900338893 2.939539887585e-09 -5.848971425355219e-06)
(-1.005619866412223 4.680789635619031e-09 -5.849020535424902e-06)
(-1.00561991032175 1.380365970613352e-09 -5.848972416425109e-06)
(-1.005619844243741 1.701944322509064e-09 -5.849017152127355e-06)
(-1.005619872339823 1.440696981347141e-09 -5.848973164964969e-06)
(-1.00561975887159 -2.768743007738826e-09 -5.849014023759659e-06)
(-1.005619751603964 -9.392491554304194e-10 -5.848972627630227e-06)
(-1.005619664199799 -3.11220145266178e-09 -5.849011355949615e-06)
(-1.005619605245083 -3.360253074434884e-09 -5.84897180137689e-06)
(-1.005619564574254 -6.739703286652218e-10 -5.849008528528928e-06)
(-1.005619517495699 -1.95971764321304e-09 -5.848971225431923e-06)
(-1.005619541551827 -6.580720180209875e-10 -5.849005847529655e-06)
(-1.005619511587886 3.425675941127523e-09 -5.848970819035256e-06)
(-1.005619522278663 -1.051589994184888e-09 -5.849003385022939e-06)
(-1.005619557673584 3.267783380362319e-09 -5.848970591012264e-06)
(-1.005619532204934 -1.952638154641761e-09 -5.849001309024238e-06)
(-1.005619575493585 1.706001149977425e-09 -5.848970150827543e-06)
(-1.005619526066187 -4.260646136309435e-09 -5.848999578558087e-06)
(-1.005619540739932 -7.297075554456185e-10 -5.848969626363603e-06)
(-1.005619487689791 -5.550858353277113e-09 -5.848998095685593e-06)
(-1.005619455905977 -3.356659636931054e-09 -5.848968989584938e-06)
(-1.00561937512223 -7.144081577604325e-09 -5.848996083741776e-06)
(-1.005619311798849 -5.341470012063007e-09 -5.848967580795092e-06)
(-1.005619242759749 -6.19117146056871e-09 -5.848993513492544e-06)
(-1.005619182725454 -6.400130731608746e-09 -5.848966260792827e-06)
(-1.00561912355655 -4.311989568256717e-09 -5.848990614316736e-06)
(-1.00561909618209 -4.121678830712021e-09 -5.848964320266557e-06)
(-1.005619084228475 7.298749237480915e-10 -5.848987886006852e-06)
(-1.005619085348716 -3.116033114720684e-09 -5.848963333475446e-06)
(-1.005619066276068 2.485991923601589e-09 -5.848984900581264e-06)
(-1.005619126081791 2.113681832413759e-09 -5.848961592795368e-06)
(-1.00561912661937 5.579165567598962e-09 -5.848982626259575e-06)
(-1.005619203853298 9.305222655777417e-09 -5.848960348481281e-06)
(-1.005619203139626 2.075710518826332e-08 -5.848980989013213e-06)
(-1.00561944521828 7.414763987852055e-10 -5.848961354792961e-06)
(-1.005619407258147 9.633827499118116e-09 -5.848980693996435e-06)
(-1.005619515570191 8.199904628533278e-09 -5.848959929393509e-06)
(-1.005619618615783 3.783744028105517e-09 -5.84898015632711e-06)
(-1.005619620036482 1.721769135531488e-09 -5.848958644969904e-06)
(-1.005619720755374 -3.121184294239804e-09 -5.848977070882227e-06)
(-1.005619667973195 -1.908097499820451e-09 -5.848956609679418e-06)
(-1.005619798618629 -4.302512544507353e-11 -5.848974163992894e-06)
(-1.005619667768382 -6.285667904737177e-09 -5.848954831622986e-06)
(-1.005619761283276 -3.553054129481765e-09 -5.848971339613414e-06)
(-1.005619638777871 -7.622419259764926e-09 -5.848952718051638e-06)
(-1.005619662650844 -7.783474087225135e-09 -5.848967207782229e-06)
(-1.005619602205524 -1.056787847457647e-08 -5.848949226787801e-06)
(-1.005619586370556 -1.417219016185182e-08 -5.848959964367267e-06)
(-1.005619611985578 -2.140950176749432e-08 -5.848942524828566e-06)
(-1.005619660122005 -1.927242682492634e-08 -5.848965918251904e-06)
(-1.005887575691526 1.361083984296557e-07 -8.190072094287184e-06)
(-1.005887478195852 1.979952617891937e-08 -8.190120906304294e-06)
(-1.005887504127348 -1.445261709279646e-08 -8.190033145012977e-06)
(-1.00588755028362 1.06411299776111e-08 -8.190118436476488e-06)
(-1.005887530448667 -5.504292749127856e-09 -8.1900364323843e-06)
(-1.005887523769201 5.769324890787007e-09 -8.190112302934904e-06)
(-1.00588757444196 7.799769815058209e-10 -8.190038602170171e-06)
(-1.005887529340129 7.386697445397907e-09 -8.190108284404139e-06)
(-1.005887596393274 4.123192193465904e-09 -8.190039373635592e-06)
(-1.005887552486346 6.070995799987082e-09 -8.190104587581503e-06)
(-1.005887586833674 1.095179737605819e-09 -8.190040521984541e-06)
(-1.005887506538006 1.482183550044031e-09 -8.190100071135133e-06)
(-1.00588752610377 5.963851885413844e-10 -8.190041351580049e-06)
(-1.005887396787582 -5.323353970536804e-09 -8.190095880955547e-06)
(-1.005887387048473 -2.429466998198919e-09 -8.190040408779607e-06)
(-1.005887286498731 -5.822523117101597e-09 -8.190092272254002e-06)
(-1.005887224916652 -5.403261190940969e-09 -8.19003907848121e-06)
(-1.005887180777298 -1.616579052647666e-09 -8.190088407693046e-06)
(-1.005887130613913 -2.922576462977266e-09 -8.190038138779398e-06)
(-1.005887147654141 -7.065709817186847e-10 -8.190084698642745e-06)
(-1.005887129902675 4.405389265786403e-09 -8.190037533996971e-06)
(-1.005887130866894 -1.268897726318449e-09 -8.190081471437121e-06)
(-1.005887169560379 4.461177976580398e-09 -8.190037101160666e-06)
(-1.00588713743332 -2.901300606911465e-09 -8.19007876505568e-06)
(-1.005887178662635 1.862079007394272e-09 -8.190036437035207e-06)
(-1.005887116040997 -6.625523162663078e-09 -8.190076456782311e-06)
(-1.005887128219926 -1.921755944798473e-09 -8.190035642044606e-06)
(-1.005887057112939 -9.045417353494988e-09 -8.190074469768547e-06)
(-1.005887022238234 -6.222891027437629e-09 -8.190034719705658e-06)
(-1.005886923023863 -1.157545475527355e-08 -8.190071712565205e-06)
(-1.005886860440112 -8.703514490282296e-09 -8.19003269381607e-06)
(-1.005886780481934 -9.62635758937431e-09 -8.190068122585055e-06)
(-1.005886726513129 -9.606769629290607e-09 -8.190030807587134e-06)
(-1.005886663876549 -6.440861575346769e-09 -8.190064169984122e-06)
(-1.005886643635179 -5.574486320458288e-09 -8.190028105698515e-06)
(-1.005886636971722 1.341480194512696e-09 -8.190060383831312e-06)
(-1.005886649431748 -3.861433827990188e-09 -8.190026812120217e-06)
(-1.00588663664807 4.514251138683927e-09 -8.190056345569608e-06)
(-1.005886710900531 4.179260315634956e-09 -8.190024461954788e-06)
(-1.005886721216094 8.985118010335913e-09 -8.190053324777744e-06)
(-1.005886812264226 1.411642321648015e-08 -8.190022900773764e-06)
(-1.005886830948498 3.014259687926862e-08 -8.190051273242106e-06)
(-1.005887073913404 3.6916254271545e-09 -8.190024329537516e-06)
(-1.005887057205743 1.458805130612568e-08 -8.190051003072152e-06)
(-1.005887172913994 1.344718675308325e-08 -8.190022640260482e-06)
(-1.005887295848449 6.501972940528474e-09 -8.190050419974598e-06)
(-1.005887292517359 3.394035473170606e-09 -8.190021109876538e-06)
(-1.00588741124968 -3.642089391863597e-09 -8.190046342581747e-06)
(-1.005887346442849 -1.833857514237198e-09 -8.190018480486545e-06)
(-1.005887488890679 -1.525653147480362e-10 -8.190042442737008e-06)
(-1.005887344705778 -9.104587337754911e-09 -8.190016160266868e-06)
(-1.005887449665573 -5.117173037948339e-09 -8.190038681143239e-06)
(-1.005887314207707 -1.130979053707955e-08 -8.190013366777384e-06)
(-1.00588735152413 -1.070806918901106e-08 -8.190033230086403e-06)
(-1.005887290701298 -1.441569205120707e-08 -8.190008969020633e-06)
(-1.005887297352052 -1.699152305093286e-08 -8.190024148337941e-06)
(-1.005887354333753 -2.167841074976242e-08 -8.190002387653565e-06)
(-1.005887431899078 -1.424511351875514e-08 -8.190037082005162e-06)
(-1.005046525587424 1.331959776488542e-07 -1.052539631202915e-05)
(-1.005046339389599 1.41532395279313e-08 -1.052544933434326e-05)
(-1.005046436333557 -1.194377325425643e-08 -1.052534758328425e-05)
(-1.005046453734428 1.15191422912342e-08 -1.052544782915934e-05)
(-1.005046429355432 -6.711569384933431e-09 -1.052535063940829e-05)
(-1.005046433574306 7.471196843480343e-09 -1.05254407154498e-05)
(-1.005046465819615 7.567280847796844e-10 -1.052535296340851e-05)
(-1.005046425945726 9.286034057827218e-09 -1.052543599567534e-05)
(-1.005046476743101 4.95017249961386e-09 -1.052535358595676e-05)
(-1.005046429340473 7.056987793409942e-09 -1.052543164334418e-05)
(-1.005046454299907 3.440283417798918e-10 -1.052535469748252e-05)
(-1.005046368780286 8.342581301644337e-10 -1.052542624542564e-05)
(-1.00504637952968 -7.311000210273651e-10 -1.052535541926439e-05)
(-1.005046241386083 -8.207375243556627e-09 -1.052542112538624e-05)
(-1.005046225610454 -4.214315259593583e-09 -1.052535385569374e-05)
(-1.005046118847089 -8.753250576589546e-09 -1.052541666055892e-05)
(-1.005046055705614 -7.544070731689292e-09 -1.05253518726435e-05)
(-1.005046010000848 -2.656379744228971e-09 -1.052541188567856e-05)
(-1.005045957124247 -3.910862861457023e-09 -1.052535045078619e-05)
(-1.005045983966771 -7.200844469749206e-10 -1.052540743502966e-05)
(-1.005045954447242 5.16457117087467e-09 -1.052534954192613e-05)
(-1.005045957021539 -1.553273299187603e-09 -1.052540348212197e-05)
(-1.005045991554202 5.4635931736821e-09 -1.052534888564004e-05)
(-1.005045950238818 -4.037014541163321e-09 -1.052540018418243e-05)
(-1.005045993061288 1.777082836693208e-09 -1.052534793752173e-05)
(-1.005045917681951 -9.243433202637093e-09 -1.052539738697792e-05)
(-1.005045933583804 -3.383468868813493e-09 -1.052534682099527e-05)
(-1.005045848168241 -1.284431106865811e-08 -1.05253949730401e-05)
(-1.00504581532584 -9.325879414057235e-09 -1.052534552679298e-05)
(-1.005045706032732 -1.616040923216582e-08 -1.052539150670626e-05)
(-1.005045647657193 -1.203929464793586e-08 -1.052534283178629e-05)
(-1.005045562949346 -1.299153680775e-08 -1.052538692921648e-05)
(-1.005045516005967 -1.254596144463064e-08 -1.052534036013096e-05)
(-1.005045457869163 -8.234442139224585e-09 -1.05253820289041e-05)
(-1.005045447500295 -6.655563583065891e-09 -1.052533701252024e-05)
(-1.005045449924284 2.283720721725296e-09 -1.052537734194948e-05)
(-1.005045467316183 -4.10822196867233e-09 -1.052533547826511e-05)
(-1.005045474003132 7.089372363409012e-09 -1.05253724642561e-05)
(-1.005045556382168 6.74244670243666e-09 -1.052533277363314e-05)
(-1.005045582523092 1.285856591483203e-08 -1.052536893322752e-05)
(-1.005045684775772 1.91343578023972e-08 -1.052533117476003e-05)
(-1.005045705405447 3.929891888528321e-08 -1.05253665718041e-05)
(-1.00504594286499 7.449302362399362e-09 -1.052533301639294e-05)
(-1.005045948920442 1.969649007924482e-08 -1.052536654244568e-05)
(-1.005046051676756 1.9038173462939e-08 -1.052533116992839e-05)
(-1.005046182545338 9.445337795554753e-09 -1.052536588014778e-05)
(-1.005046173462218 5.286492708577793e-09 -1.052532951407457e-05)
(-1.005046297171025 -3.763833631083111e-09 -1.052536092708385e-05)
(-1.00504623256438 -1.584005490490784e-09 -1.052532649867948e-05)
(-1.005046375684604 -3.016353128503368e-10 -1.052535625396981e-05)
(-1.005046227674362 -1.183143420312056e-08 -1.052532375488376e-05)
(-1.005046334769753 -6.699526138535359e-09 -1.052535167711332e-05)
(-1.005046196330366 -1.492206081369853e-08 -1.052532033933562e-05)
(-1.005046238214237 -1.337371810272896e-08 -1.052534494145671e-05)
(-1.005046181203692 -1.770724814282773e-08 -1.052531495015194e-05)
(-1.005046207050241 -1.869687342428186e-08 -1.052533394445595e-05)
(-1.005046289668577 -1.987818788790959e-08 -1.052530831485945e-05)
(-1.005046401091155 -5.975800751327531e-09 -1.05253538013396e-05)
(-1.003085447007287 1.307269665846092e-07 -1.285715239094874e-05)
(-1.003085276736956 8.281933728371075e-09 -1.285720776741108e-05)
(-1.003085388671638 -9.01059260413675e-09 -1.285709515462985e-05)
(-1.003085382812464 1.178490074875513e-08 -1.285720658850159e-05)
(-1.003085357421644 -7.715809029147859e-09 -1.285709824879499e-05)
(-1.00308536946159 8.939735756158797e-09 -1.285719840212552e-05)
(-1.003085380927419 5.015346705743247e-10 -1.285710074721132e-05)
(-1.003085352483862 1.103668289259637e-08 -1.285719309067059e-05)
(-1.003085388962267 5.473407641311104e-09 -1.285710115738589e-05)
(-1.003085345396191 7.790579821313855e-09 -1.285718837344374e-05)
(-1.003085354818412 -7.41036130577435e-10 -1.285710192840305e-05)
(-1.003085269531842 -6.956256245451751e-11 -1.285718228387795e-05)
(-1.003085268021204 -2.337837624674823e-09 -1.285710224855708e-05)
(-1.003085134386993 -1.127025767312743e-08 -1.285717645551421e-05)
(-1.003085112712957 -6.182232658214171e-09 -1.285709997397406e-05)
(-1.003085007472169 -1.177160946407198e-08 -1.285717131606804e-05)
(-1.003084941857767 -9.762428042232843e-09 -1.285709722765272e-05)
(-1.003084896138193 -3.759392898313889e-09 -1.285716577601543e-05)
(-1.003084842001982 -4.947679383732672e-09 -1.285709522416338e-05)
(-1.003084857100135 -7.816544305787377e-10 -1.285716053784204e-05)
(-1.003084840425108 5.718668669942507e-09 -1.285709396050838e-05)
(-1.003084833864915 -1.951682188046551e-09 -1.285715614919438e-05)
(-1.003084868555782 6.289905888444955e-09 -1.285709292204621e-05)
(-1.003084827471505 -5.305457452302954e-09 -1.285715250142182e-05)
(-1.00308486546216 1.515060066646458e-09 -1.28570916245639e-05)
(-1.003084787743095 -1.200842428838628e-08 -1.285714928730455e-05)
(-1.003084800828234 -5.006088847397886e-09 -1.2857090108004e-05)
(-1.003084711061124 -1.676438350123761e-08 -1.285714645267265e-05)
(-1.003084682280154 -1.246439088016389e-08 -1.285708841116504e-05)
(-1.003084568706974 -2.069744100527584e-08 -1.285714230264566e-05)
(-1.003084519927046 -1.521507911175024e-08 -1.285708506325225e-05)
(-1.003084433035312 -1.618196132026551e-08 -1.285713683692879e-05)
(-1.003084397038408 -1.514390351466862e-08 -1.285708205878841e-05)
(-1.003084342111162 -9.639934890706452e-09 -1.285713110737914e-05)
(-1.003084340483923 -7.42883474310024e-09 -1.285707813981036e-05)
(-1.003084345051839 3.51478638139109e-09 -1.285712560446343e-05)
(-1.003084372675586 -3.91931894697854e-09 -1.285707647407198e-05)
(-1.003084382326256 1.016484124329617e-08 -1.285711997567067e-05)
(-1.003084470829317 9.727596478237578e-09 -1.285707347453557e-05)
(-1.0030845012698 1.721010640626368e-08 -1.285711607624858e-05)
(-1.003084608851067 2.437489160474093e-08 -1.285707194888835e-05)
(-1.003084641161523 4.810285120250171e-08 -1.285711373099546e-05)
(-1.00308486706147 1.176141841368674e-08 -1.285707441808311e-05)
(-1.003084883053878 2.496297186777161e-08 -1.285711399116273e-05)
(-1.003084992497262 2.477134088735715e-08 -1.285707274261534e-05)
(-1.003085125304263 1.244661873960752e-08 -1.285711360929539e-05)
(-1.00308511991635 7.252104077924283e-09 -1.285707121285731e-05)
(-1.003085246122016 -3.631905321052475e-09 -1.285710812267966e-05)
(-1.003085180785966 -1.270032644150036e-09 -1.285706802367306e-05)
(-1.003085319102679 -5.737126929025427e-10 -1.285710285236768e-05)
(-1.003085175015914 -1.454835295017868e-08 -1.285706508101292e-05)
(-1.003085277506744 -8.41900452018173e-09 -1.285709763080739e-05)
(-1.003085139739492 -1.849676091466859e-08 -1.28570610661235e-05)
(-1.00308518675133 -1.593012424525584e-08 -1.285708968840558e-05)
(-1.00308513349974 -2.059164895519446e-08 -1.285705458472213e-05)
(-1.003085170865237 -1.979479165813914e-08 -1.285707653565474e-05)
(-1.003085255098398 -1.731839565719634e-08 -1.285704733900069e-05)
(-1.003085353018896 2.590328022672475e-09 -1.285710275549688e-05)
(-0.9999721978758916 1.275749669514216e-07 -1.519356674096075e-05)
(-0.9999720032495713 3.064470837777833e-09 -1.519361911930413e-05)
(-0.999972137661677 -6.141054953014604e-09 -1.519350146435606e-05)
(-0.9999721190460057 1.152310513091208e-08 -1.519361895297805e-05)
(-0.9999720886336981 -8.586951287056429e-09 -1.519350430927182e-05)
(-0.9999721071748636 1.005650934332069e-08 -1.519360986868678e-05)
(-0.9999720996257904 -2.004977302837456e-12 -1.519350682037127e-05)
(-0.9999720810581969 1.255412632323299e-08 -1.519360410552473e-05)
(-0.9999720962184486 5.702013157667276e-09 -1.519350667085185e-05)
(-0.999972058737598 8.308304400130493e-09 -1.519359916297302e-05)
(-0.9999720572883183 -2.095874704189429e-09 -1.519350682444311e-05)
(-0.9999719775910433 -1.174795694972607e-09 -1.519359274294712e-05)
(-0.9999719664678444 -4.150323478133732e-09 -1.519350651023561e-05)
(-0.9999718348080555 -1.444846449296592e-08 -1.519358636653969e-05)
(-0.9999718045339905 -8.293399436375258e-09 -1.51935032452928e-05)
(-0.9999717012417622 -1.484020379199067e-08 -1.519358064564036e-05)
(-0.9999716325845472 -1.207067219117017e-08 -1.519349957517205e-05)
(-0.9999715877420261 -4.910812256490598e-09 -1.519357448975737e-05)
(-0.9999715305691214 -6.06114620590486e-09 -1.519349684475957e-05)
(-0.9999715577688766 -8.330671703884303e-10 -1.519356890207552e-05)
(-0.999971527450055 6.088636363734044e-09 -1.519349510069728e-05)
(-0.9999715257780472 -2.421726219834254e-09 -1.519356402800808e-05)
(-0.9999715557788506 7.020200398853483e-09 -1.519349369337537e-05)
(-0.9999715094426253 -6.652879209527085e-09 -1.519355996330861e-05)
(-0.9999715508781818 1.212254040403886e-09 -1.519349198375983e-05)
(-0.9999714667045771 -1.483482490149148e-08 -1.519355640281573e-05)
(-0.9999714861261128 -6.621612647151316e-09 -1.519349002449981e-05)
(-0.9999713912393796 -2.067286722481438e-08 -1.519355322379146e-05)
(-0.9999713683291768 -1.552403761670623e-08 -1.519348781059188e-05)
(-0.9999712545503185 -2.509083311081084e-08 -1.519354843301778e-05)
(-0.9999712118925328 -1.815919370132096e-08 -1.51934837741206e-05)
(-0.9999711251074767 -1.91568917460905e-08 -1.519354212651949e-05)
(-0.9999710961880104 -1.737447849968819e-08 -1.519348025596458e-05)
(-0.9999710483157364 -1.062331475663306e-08 -1.519353569262427e-05)
(-0.9999710551290454 -7.91541027877392e-09 -1.519347595930345e-05)
(-0.999971066373886 4.988917471897473e-09 -1.519352963171453e-05)
(-0.9999710959833302 -3.334770366272124e-09 -1.51934742531905e-05)
(-0.9999711236968372 1.360867690376181e-08 -1.519352355923587e-05)
(-0.9999712133701277 1.29511992332698e-08 -1.519347136935071e-05)
(-0.9999712553983742 2.189123513338503e-08 -1.519351962403718e-05)
(-0.999971367507018 2.962983316462836e-08 -1.519347030492287e-05)
(-0.9999713938911678 5.640513150607208e-08 -1.519351732915632e-05)
(-0.9999716086375456 1.645662684189696e-08 -1.519347332935398e-05)
(-0.9999716383554753 3.023588206249984e-08 -1.519351814371751e-05)
(-0.9999717339791705 3.057222474162297e-08 -1.519347184622055e-05)
(-0.9999718603894746 1.5540855726007e-08 -1.519351786004766e-05)
(-0.9999718585740717 9.31322566887143e-09 -1.519347053508628e-05)
(-0.999971975220491 -3.133506580099248e-09 -1.519351200678314e-05)
(-0.999971920191155 -8.087997342898681e-10 -1.519346743858834e-05)
(-0.9999720487804571 -9.140741672281634e-10 -1.519350651843514e-05)
(-0.9999719088871105 -1.717845316637161e-08 -1.519346453142755e-05)
(-0.9999720047002232 -1.020171168064193e-08 -1.51935008439423e-05)
(-0.999971872557128 -2.191443336337696e-08 -1.5193460082586e-05)
(-0.9999719180880796 -1.828683107804732e-08 -1.519349184239073e-05)
(-0.9999718720236842 -2.300852951274186e-08 -1.519345252047756e-05)
(-0.9999719202646369 -2.047246138519423e-08 -1.519347662078521e-05)
(-0.9999720149829722 -1.45331048999472e-08 -1.519344496609767e-05)
(-0.9999721302486481 1.014627169048206e-08 -1.519351104971761e-05)
(-0.9956267714419214 1.233814551721284e-07 -1.755266724745781e-05)
(-0.9956266188801991 -1.576472736964823e-09 -1.755271105501811e-05)
(-0.9956267395131836 -3.120438141819454e-09 -1.755259590916645e-05)
(-0.9956267083914163 1.086085400402851e-08 -1.755271239448354e-05)
(-0.9956266819429146 -9.32728782887159e-09 -1.755259755133598e-05)
(-0.9956266987505743 1.087158597559199e-08 -1.755270318183158e-05)
(-0.9956266789384225 -6.150700124590722e-10 -1.755259950152345e-05)
(-0.9956266698958098 1.396374885071009e-08 -1.755269736961555e-05)
(-0.9956266748510989 5.749614389604818e-09 -1.755259859654684e-05)
(-0.9956266454588647 8.725034978821546e-09 -1.755269264311074e-05)
(-0.9956266298808738 -3.644017028174624e-09 -1.755259771461514e-05)
(-0.9956265558711648 -2.401271538466707e-09 -1.755268610848824e-05)
(-0.9956265324457053 -6.10697318442737e-09 -1.755259638606639e-05)
(-0.9956264123269271 -1.775850271124587e-08 -1.755267946986244e-05)
(-0.9956263757944235 -1.055234278198765e-08 -1.75525921334369e-05)
(-0.9956262781814257 -1.798090407137498e-08 -1.755267337975306e-05)
(-0.9956262068627281 -1.451555484202139e-08 -1.755258747784058e-05)
(-0.9956261634074616 -6.118735745233314e-09 -1.7552666731669e-05)
(-0.9956261061932838 -7.266366615278405e-09 -1.755258395839962e-05)
(-0.9956261205793767 -8.841915456447486e-10 -1.755266058160264e-05)
(-0.9956261051016536 6.304854852761667e-09 -1.755258169251789e-05)
(-0.9956260964184972 -2.95507924178962e-09 -1.755265555529475e-05)
(-0.9956261281856418 7.70812371189246e-09 -1.755257973036474e-05)
(-0.9956260870509672 -8.045049356148614e-09 -1.755265137301899e-05)
(-0.9956261242153353 9.163767935826334e-10 -1.755257757727049e-05)
(-0.9956260438991521 -1.771025409821712e-08 -1.755264751036906e-05)
(-0.9956260607218411 -8.211998543697036e-09 -1.755257513193798e-05)
(-0.9956259679892252 -2.456312894270053e-08 -1.755264392465912e-05)
(-0.995625950548041 -1.847549994147567e-08 -1.755257242521462e-05)
(-0.9956258370826568 -2.935006603778966e-08 -1.755263847507924e-05)
(-0.9956258043593532 -2.091070920895636e-08 -1.755256777725347e-05)
(-0.9956257181212942 -2.196916672624902e-08 -1.755263149014431e-05)