/*--------------------------------*- C++ -*----------------------------------*\
| =========                 |                                                 |
| \\      /  F ield         | OpenFOAM: The Open Source CFD Toolbox           |
|  \\    /   O peration     | Version:  v1812                                 |
|   \\  /    A nd           | Web:      www.OpenFOAM.com                      |
|    \\/     M anipulation  |                                                 |
\*---------------------------------------------------------------------------*/
FoamFile
{
    version     2.0;
    format      ascii;
    class       volVectorField;
    location    "10000";
    object      wallShearStress;
}
// * * * * * * * * * * * * * * * * * * * * * * * * * * * * * * * * * * * * * //

dimensions      [0 2 -2 0 0 0 0];


internalField   uniform (0 0 0);

boundaryField
{
    inlet
    {
        type            cyclic;
    }
    outlet
    {
        type            cyclic;
    }
    bottomWall
    {
        type            calculated;
        value           nonuniform List<vector> 
58
(
(0.0001163712587854663 -5.393729876237918e-09 7.638161052410362e-08)
(0.0001164468853429447 -7.697196048236279e-10 7.638268879263703e-08)
(0.0001164262524354253 4.277441267452204e-10 7.638133197094404e-08)
(0.0001164338112301379 -1.613761077113006e-10 7.638242460188687e-08)
(0.0001164318316717977 7.428018088373706e-11 7.638148156069722e-08)
(0.0001164319837333624 -4.721455632365499e-11 7.638231170730379e-08)
(0.0001164328908620667 1.044862104320135e-11 7.638152830270968e-08)
(0.0001164320791110032 -8.396464069729368e-11 7.638225824480278e-08)
(0.0001164336742630903 -3.621487180060033e-11 7.6381542342179e-08)
(0.0001164333065105193 -8.610760069235194e-11 7.638221709707321e-08)
(0.0001164351354085313 -3.947326023425921e-11 7.63815566208093e-08)
(0.0001164340423965248 -4.550419711440572e-11 7.638217131260123e-08)
(0.0001164352619040963 -6.313764140826707e-11 7.638156780795285e-08)
(0.0001164334623746147 6.42577209132123e-12 7.638212785387586e-08)
(0.0001164331312920095 -1.504923222476317e-11 7.638156416827202e-08)
(0.0001164317017523336 6.491579784099747e-12 7.638209146425223e-08)
(0.0001164299800684088 3.517966767017405e-11 7.638155536414767e-08)
(0.0001164287978606182 -9.972012521229951e-12 7.638205424542615e-08)
(0.000116427445156352 2.099026284028146e-11 7.638154903848225e-08)
(0.0001164283875641711 2.099354403745136e-11 7.638201985829554e-08)
(0.0001164264717545288 -7.592860501111364e-11 7.638154307279044e-08)
(0.0001164278193177946 2.40044566928222e-11 7.638198624041641e-08)
(0.0001164282744319175 -5.419863167400145e-11 7.638154205267637e-08)
(0.0001164280954083537 3.334478664372264e-11 7.638195710595111e-08)
(0.0001164295579718869 -4.136314734106791e-11 7.638153731915905e-08)
(0.0001164288533144811 6.230664365464142e-11 7.63819335553662e-08)
(0.0001164295426158396 -1.007337376220832e-11 7.638153140248481e-08)
(0.0001164291256154475 6.821709250633937e-11 7.638191294337058e-08)
(0.000116428681780479 1.132627987736406e-11 7.638152232650689e-08)
(0.000116427715843071 7.729969860612854e-11 7.638188494384714e-08)
(0.0001164260108681765 5.171098248482643e-11 7.638150424938715e-08)
(0.0001164247485521788 7.739465548970086e-11 7.638185177824264e-08)
(0.0001164225619473142 8.062783702354455e-11 7.638148717620377e-08)
(0.0001164211976159713 5.497725734456068e-11 7.63818116455101e-08)
(0.0001164199296070639 6.757266395306892e-11 7.638146232224133e-08)
(0.0001164191507703753 -5.206449527890956e-12 7.638177663888393e-08)
(0.0001164185994199026 5.694810010658957e-11 7.638144749270238e-08)
(0.0001164175444358835 -1.740190087029721e-11 7.638173445525436e-08)
(0.000116418358141616 7.580659271792406e-13 7.638142420482714e-08)
(0.0001164176087193407 -6.028420794875656e-11 7.638170316124661e-08)
(0.0001164192730027277 -1.312829320907944e-10 7.638140627109484e-08)
(0.0001164181080450537 -3.296863117014765e-10 7.638168217984529e-08)
(0.00011642614595903 6.932608721914689e-11 7.638142528856023e-08)
(0.0001164227153945869 -1.442152878679951e-10 7.638167518038722e-08)
(0.0001164265538014072 -9.542271326715217e-11 7.638140319546494e-08)
(0.0001164279088753432 -3.961033537661287e-11 7.638166947248589e-08)
(0.0001164285796964934 -1.731960257076609e-11 7.638138087553391e-08)
(0.0001164305593984514 5.490781096446401e-11 7.638162793935019e-08)
(0.0001164297697355724 6.138530637275771e-11 7.638135239474014e-08)
(0.0001164324430892791 -1.39373353332722e-11 7.638158792056495e-08)
(0.0001164301030548432 9.337069597954644e-11 7.638132825676611e-08)
(0.0001164317687197443 4.752114481055331e-11 7.638154872758668e-08)
(0.0001164290936238623 1.006446867861751e-10 7.638129551646637e-08)
(0.0001164290593311933 1.282528296265543e-10 7.638148690700257e-08)
(0.0001164271566111846 1.732995477755341e-10 7.63812361877035e-08)
(0.0001164254037070544 2.996056634212808e-10 7.638135852773714e-08)
(0.0001164225516301917 5.689346511193155e-10 7.638100916822288e-08)
(0.0001164129639600233 7.84249142305112e-10 7.638113802687688e-08)
)
;
    }
    topWall
    {
        type            calculated;
        value           nonuniform List<vector> 
58
(
(0.007448089882340261 3.29123561013496e-09 1.639518196028907e-07)
(0.007447772834376003 -5.68279011294567e-09 1.639424414933155e-07)
(0.007448059324759575 9.222432424169106e-09 1.639513667270094e-07)
(0.007446478924246888 1.775916991773164e-08 1.639201346872317e-07)
(0.007458515749136021 -2.24674757350781e-08 1.641804149220392e-07)
(0.007461030884291156 -3.200468211215138e-08 1.642345515755173e-07)
(0.007461119885968823 -1.909283476589457e-08 1.642385523988952e-07)
(0.007460891343813258 -8.980082908308367e-09 1.642346588799453e-07)
(0.007460896263515902 -2.250022104681613e-08 1.642353194812477e-07)
(0.007461554292557503 -3.345271821734055e-08 1.642577728436914e-07)
(0.007450220744417965 2.840006958325164e-08 1.640012103024721e-07)
(0.007448553113339545 6.727293382329661e-08 1.63958388127964e-07)
(0.007446685632699861 3.556595168480833e-08 1.639242830785195e-07)
(0.007458477285538232 -6.817761823278581e-09 1.64179365972221e-07)
(0.007461289541210841 -5.74168416078958e-08 1.642375952207339e-07)
(0.007461821021338092 -5.563932514779677e-08 1.64260797584057e-07)
(0.00745039080862147 2.736391418822041e-08 1.640028267703945e-07)
(0.007448499192884088 4.469587245441907e-08 1.639578915475933e-07)
(0.007448088878307866 1.304617713523135e-08 1.639496226719653e-07)
(0.00744856623346877 2.694882603848435e-08 1.639638677907569e-07)
(0.007446416378579273 2.704502399297417e-08 1.639204467781131e-07)
(0.007458740510738323 -2.949367148366312e-08 1.641860529347451e-07)
(0.007460817743985945 -3.212076887490527e-08 1.642284607639819e-07)
(0.007461153142668575 -3.174400685331309e-08 1.642420290880957e-07)
(0.007461694822337557 -4.199329012152939e-08 1.642593035743188e-07)
(0.007450690043829806 1.985049297841084e-08 1.64009837048769e-07)
(0.00744787627787818 3.887313846283783e-08 1.639418815688345e-07)
(0.007447877103175697 3.912088094671254e-08 1.639481965993889e-07)
(0.007446490785886194 2.826541025528433e-08 1.639218770902303e-07)
(0.00745848761965715 -2.345147145800809e-08 1.64180868200238e-07)
(0.00746112354676444 -3.19667641151597e-08 1.642350098016908e-07)
(0.007461156565583487 -1.718496769353796e-08 1.64236162500893e-07)
(0.007460862337098186 -1.573018207871783e-08 1.642337149908114e-07)
(0.007460595551087647 3.186815135795281e-09 1.642326645070728e-07)
(0.00746090994430752 3.211732588154449e-09 1.64234315741071e-07)
(0.007460761501108987 -8.809111750410991e-09 1.642317586960062e-07)
(0.007460508642759547 2.545554260110525e-09 1.642300367228128e-07)
(0.007461004264347975 1.415826997527512e-08 1.642369011688747e-07)
(0.007461213165826814 6.773169706798085e-09 1.642409801244316e-07)
(0.007461197790672897 -1.790026952018552e-09 1.642437754241466e-07)
(0.007461016150895727 -2.415218494952829e-09 1.642395157516946e-07)
(0.007460873374714254 -6.675026835447884e-09 1.642354804999977e-07)
(0.007461346677816971 -1.033256497939459e-08 1.642417059300208e-07)
(0.007461397913827602 1.041681381317285e-10 1.642448169417854e-07)
(0.007460982951897391 7.755051706327515e-10 1.642422164233649e-07)
(0.007460616363454462 -3.021168913058211e-09 1.642302820337636e-07)
(0.007460632372651774 9.953549650482669e-09 1.642291485203324e-07)
(0.007460701345301152 2.207617864583648e-09 1.642283737161822e-07)
(0.007461060154696168 -4.154312013584041e-08 1.642353226239161e-07)
(0.007461431920393194 -3.737041266433139e-08 1.642536830948092e-07)
(0.007450207626281615 4.088472355432627e-08 1.640011931425863e-07)
(0.007448227362534376 5.89984020268796e-08 1.639501130586655e-07)
(0.007448208558999582 3.379184946027353e-09 1.639502284049783e-07)
(0.007447773376884218 -7.321529657338353e-09 1.639409335638968e-07)
(0.00744763665645666 4.101920596012605e-09 1.639405083014513e-07)
(0.00744779246534991 -5.370652990265543e-09 1.639429347764822e-07)
(0.007447608857213973 1.560458615766004e-08 1.639415954220074e-07)
(0.007447413454096624 2.103197375890324e-08 1.639382806112221e-07)
)
;
    }
    left
    {
        type            cyclic;
    }
    right
    {
        type            cyclic;
    }
}


// ************************************************************************* //
