/*--------------------------------*- C++ -*----------------------------------*\
| =========                 |                                                 |
| \\      /  F ield         | OpenFOAM: The Open Source CFD Toolbox           |
|  \\    /   O peration     | Version:  v1812                                 |
|   \\  /    A nd           | Web:      www.OpenFOAM.com                      |
|    \\/     M anipulation  |                                                 |
\*---------------------------------------------------------------------------*/
FoamFile
{
    version     2.0;
    format      ascii;
    class       surfaceScalarField;
    location    "20000";
    object      phi;
}
// * * * * * * * * * * * * * * * * * * * * * * * * * * * * * * * * * * * * * //

dimensions      [0 3 -1 0 0 0 0];
oriented        oriented;


internalField   nonuniform List<scalar> 
7417
(
-0.0008133109694054568
-5.537660901346216e-19
-0.0008133109694054567
-3.014423319237815e-19
-0.0008133109694054567
-1.168913642362368e-21
-0.0008133109694054564
-2.497776114109024e-19
-0.0008133109694054562
-1.323514341139787e-19
-0.0008133109694054563
7.927874620572407e-20
-0.0008133109694054563
2.078052907648069e-20
-0.0008133109694054563
-3.627986396394926e-20
-0.0008133109694054563
1.569277398392466e-19
-0.0008133109694054565
3.175941402021993e-20
-0.0008133109694054565
1.172253503632118e-19
-0.0008133109694054562
-2.846412424765069e-19
-0.0008133109694054562
4.481347428279849e-20
-0.0008133109694054563
1.199515952378311e-19
-0.0008133109694054567
1.545440514058445e-19
-0.0008133109694054565
3.249427840500612e-20
-0.0008133109694054567
-7.910866836208212e-22
-0.0008133109694054564
-2.083993476492916e-19
-0.0008133109694054564
2.176368957705041e-20
-0.0008133109694054568
3.221030804200565e-19
-0.0008133109694054565
-2.256843079558695e-19
-0.0008133109694054565
-5.574484406244936e-20
-0.0008133109694054568
1.968400488305526e-19
-0.0008133109694054568
-1.187437718376957e-20
-0.0008133109694054565
-2.23118676920406e-19
-0.0008133109694054565
6.984205881912254e-20
-0.0008133109694054564
-2.75602727978954e-20
-0.0008133109694054565
1.406302321556428e-19
-0.0008133109694054565
-1.55121700147484e-20
-0.0008133109694054565
-4.414126448012891e-20
-0.0008133109694054564
-1.546385217017066e-19
-0.0008133109694054565
-7.260142340327513e-20
-0.0008133109694054568
3.917782832188769e-19
-0.0008133109694054568
1.337353148742645e-19
-0.0008133109694054568
1.165662056755802e-20
-0.0008133109694054565
-1.243877293975662e-19
-0.0008133109694054565
-1.057174802612945e-19
-0.0008133109694054568
3.216772657384434e-20
-0.0008133109694054568
7.158843726648512e-20
-0.0008133109694054568
9.596072387007674e-21
-0.0008133109694054567
-1.651243259328361e-19
-0.0008133109694054567
3.482915349321248e-20
-0.0008133109694054567
4.80100640070296e-20
-0.0008133109694054567
4.792493968451893e-20
-0.0008133109694054565
-1.16131884921955e-19
-0.0008133109694054567
9.524848491101871e-20
-0.0008133109694054568
1.690623556905143e-20
-0.0008133109694054568
-4.223960115861439e-20
-0.0008133109694054569
1.506013750378405e-19
-0.0008133109694054569
-5.97986099042134e-21
-0.0008133109694054569
-2.231844652573063e-20
-0.0008133109694054567
-2.345293665311489e-19
-0.0008133109694054564
-1.702273123847461e-19
-0.0008133109694054565
1.115241167500772e-19
-0.0008133109694054569
2.621443621503805e-19
-0.0008133109694054567
-1.720987906198646e-19
-0.0008133109694054567
-4.484444516224788e-20
3.314145974963201e-19
-0.0006778515911149098
-9.377763804683409e-19
-0.00067785159111491
-2.33777753383561e-19
-0.00067785159111491
5.68930704025077e-20
-0.00067785159111491
-2.402000129496706e-19
-0.00067785159111491
-5.054050730657774e-20
-0.0006778515911149099
-8.294463122828806e-20
-0.0006778515911149101
1.68411370691954e-19
-0.0006778515911149101
6.151627680256464e-20
-0.0006778515911149099
1.252022027046255e-19
-0.0006778515911149102
1.796079075942946e-19
-0.0006778515911149098
-2.389671512073951e-19
-0.0006778515911149096
-4.524217526483274e-19
-0.0006778515911149096
1.038377259424992e-19
-0.0006778515911149097
1.197599116119631e-19
-0.00067785159111491
3.790258936276834e-19
-0.0006778515911149099
8.795099409147213e-20
-0.0006778515911149101
1.464571138784872e-19
-0.00067785159111491
-2.791882095732197e-19
-0.0006778515911149101
2.440151846614264e-20
-0.0006778515911149101
4.096420105885191e-19
-0.0006778515911149101
-1.943392926354976e-19
-0.0006778515911149101
-6.022360796442017e-20
-0.0006778515911149102
2.534965162149828e-19
-0.0006778515911149103
4.422984932749261e-20
-0.0006778515911149102
-3.801997345051693e-19
-0.00067785159111491
-5.697736350387468e-20
-0.0006778515911149098
-1.945771714036425e-19
-0.0006778515911149099
2.712759817441675e-19
-0.00067785159111491
5.481603691002337e-20
-0.00067785159111491
-1.954066224401833e-20
-0.0006778515911149101
-1.556365427581921e-19
-0.0006778515911149101
-2.284308959953553e-19
-0.0006778515911149102
5.967731660394372e-19
-0.0006778515911149103
3.93496513833703e-19
-0.0006778515911149103
5.915773276818979e-20
-0.0006778515911149101
-3.051084950069828e-19
-0.0006778515911149102
-4.475050029178594e-20
-0.0006778515911149105
2.273027055573102e-19
-0.0006778515911149103
-1.011156140378305e-19
-0.0006778515911149103
3.909095007642441e-20
-0.0006778515911149103
-2.552525232423661e-19
-0.0006778515911149101
-1.666222729305384e-19
-0.0006778515911149102
2.182074811992347e-19
-0.0006778515911149103
2.099744876277668e-19
-0.0006778515911149104
-3.844246026982435e-20
-0.0006778515911149103
4.63722831989087e-20
-0.0006778515911149104
3.696367473153984e-21
-0.0006778515911149105
4.728858722383637e-20
-0.0006778515911149105
1.332297978257865e-19
-0.0006778515911149104
-8.8228313241962e-20
-0.0006778515911149105
1.154501754264928e-19
-0.0006778515911149105
-3.003669885325649e-19
-0.0006778515911149106
-4.785756882468616e-20
-0.0006778515911149102
-3.443670603719378e-19
-0.0006778515911149101
1.837066005663305e-19
-0.0006778515911149102
-1.427615361768739e-19
-0.0006778515911149101
-1.941419786700707e-19
5.039630939814464e-19
-0.0005534471450361648
-1.299657667929053e-18
-0.0005534471450361649
-2.650894695067971e-19
-0.0005534471450361649
9.370566271622749e-20
-0.0005534471450361649
-2.272692420943842e-19
-0.0005534471450361646
-3.331371194692332e-19
-0.0005534471450361647
-3.49676529214838e-20
-0.0005534471450361647
9.333111045912579e-20
-0.0005534471450361652
6.276703048002966e-19
-0.000553447145036165
1.222925541386153e-20
-0.0005534471450361648
-1.572629863102261e-19
-0.0005534471450361649
-1.961180732097956e-20
-0.0005534471450361648
-5.699146100708361e-19
-0.0005534471450361644
-2.499299969129199e-19
-0.0005534471450361648
4.639970235363677e-19
-0.0005534471450361651
6.95618657254661e-19
-0.0005534471450361651
2.242434605708453e-19
-0.0005534471450361651
1.27720657833966e-19
-0.0005534471450361652
-2.129331086094214e-19
-0.0005534471450361654
1.248209611690169e-19
-0.0005534471450361651
2.989771881443369e-19
-0.0005534471450361652
-1.271999134582035e-19
-0.0005534471450361649
-3.899831662262076e-19
-0.0005534471450361647
4.404796312035159e-20
-0.0005534471450361649
2.324928807100788e-19
-0.0005534471450361651
-2.228934183472192e-19
-0.0005534471450361651
-1.267292857216006e-19
-0.0005534471450361649
-2.393086996939936e-19
-0.0005534471450361649
3.124644322907154e-19
-0.000553447145036165
1.868586244743542e-19
-0.000553447145036165
1.982454864682574e-20
-0.0005534471450361651
-1.506262236659066e-19
-0.0005534471450361654
-7.455603785812007e-20
-0.0005534471450361654
6.718762103550591e-19
-0.0005534471450361651
2.715408461871813e-19
-0.0005534471450361652
2.088912171272115e-19
-0.0005534471450361652
-2.584757023483506e-19
-0.0005534471450361655
1.32544579814055e-19
-0.0005534471450361654
-6.787810728677994e-21
-0.0005534471450361654
-5.13733574881219e-20
-0.0005534471450361651
-1.234245017227437e-19
-0.0005534471450361651
-2.679147062059389e-19
-0.0005534471450361652
-4.510623096193387e-20
-0.0005534471450361654
4.008172087167543e-19
-0.0005534471450361654
2.478639021123787e-19
-0.000553447145036165
-4.029636597989931e-19
-0.000553447145036165
1.372567705565549e-19
-0.0005534471450361656
4.105294099618675e-19
-0.0005534471450361656
2.591411650309949e-20
-0.0005534471450361655
4.008723341026483e-20
-0.0005534471450361655
-6.85897318790639e-20
-0.0005534471450361655
6.422404669487518e-20
-0.0005534471450361655
-2.96593590820092e-19
-0.0005534471450361656
9.312610600451409e-20
-0.0005534471450361656
-3.655472310597828e-19
-0.0005534471450361655
7.509250223326716e-20
-0.0005534471450361652
-3.729576999972862e-19
-0.0005534471450361652
-2.629102134220427e-19
5.182557438286593e-19
-0.0004916341111432871
-1.655615612010372e-18
-0.0004916341111432871
-3.781866929897306e-19
-0.0004916341111432869
-2.119726298469949e-19
-0.000491634111143287
-1.324111682438759e-19
-0.0004916341111432872
-6.221155318906769e-20
-0.0004916341111432874
1.440100923323161e-19
-0.0004916341111432875
1.432225006040269e-19
-0.0004916341111432873
3.909408419377171e-19
-0.0004916341111432872
-4.789540439707205e-20
-0.0004916341111432871
-3.136936156744841e-19
-0.000491634111143287
-4.517475196981891e-20
-0.000491634111143287
-5.431235033671506e-19
-0.0004916341111432873
1.306323868805774e-20
-0.0004916341111432872
2.727317144498539e-19
-0.0004916341111432872
6.088848264239809e-19
-0.0004916341111432872
2.621354460715707e-19
-0.0004916341111432873
1.433297118435023e-19
-0.0004916341111432873
-2.511705117122807e-19
-0.0004916341111432872
1.394627641000483e-20
-0.0004916341111432871
2.252581883751139e-19
-0.0004916341111432875
2.759659504782127e-19
-0.0004916341111432876
-3.449983950690828e-19
-0.0004916341111432875
-1.203755804117524e-19
-0.0004916341111432871
-2.441110827938278e-19
-0.0004916341111432871
-2.704359057676705e-19
-0.0004916341111432872
-2.295068043695222e-21
-0.0004916341111432874
4.740202261178002e-20
-0.0004916341111432873
1.905450424851409e-19
-0.0004916341111432873
1.777807742471184e-19
-0.0004916341111432872
-6.72557481026849e-20
-0.0004916341111432871
-3.8878184216564e-19
-0.0004916341111432873
1.199003605054953e-19
-0.0004916341111432874
8.312010342847379e-19
-0.0004916341111432874
3.519011802640206e-19
-0.0004916341111432875
3.68678058525902e-19
-0.0004916341111432875
-2.034530418506234e-19
-0.0004916341111432875
1.359266873841012e-19
-0.0004916341111432878
2.549479003951147e-19
-0.0004916341111432873
-6.016100513141556e-19
-0.0004916341111432872
-2.328995981790214e-19
-0.0004916341111432874
-1.008884345181806e-19
-0.0004916341111432874
9.596973404578094e-21
-0.0004916341111432875
5.300255120126064e-19
-0.0004916341111432875
2.761398074609436e-19
-0.0004916341111432877
-2.207223224049854e-19
-0.0004916341111432877
1.911211429875199e-19
-0.0004916341111432878
4.373197941839901e-19
-0.0004916341111432878
-4.908305150795095e-20
-0.0004916341111432877
-3.293975306401712e-21
-0.0004916341111432876
-1.349243350852603e-19
-0.0004916341111432874
-1.282295988236235e-19
-0.0004916341111432875
-1.496866394825427e-19
-0.0004916341111432876
2.719471647513741e-19
-0.0004916341111432877
-2.352897763573556e-19
-0.0004916341111432874
-2.156205874591438e-19
-0.0004916341111432872
-5.805259547688669e-19
-0.0004916341111432874
-9.385258209643356e-20
5.766552137602253e-19
-0.0004553846394643562
-2.12925079730997e-18
-0.000455384639464356
-6.876328112158685e-19
-0.000455384639464356
-1.826158025371643e-19
-0.000455384639464356
-1.260751077485962e-19
-0.0004553846394643561
4.255150063925491e-20
-0.0004553846394643561
9.140465231791589e-20
-0.0004553846394643561
1.599412886047436e-19
-0.0004553846394643563
6.428346427465578e-19
-0.0004553846394643564
6.950278244827443e-20
-0.0004553846394643567
-1.132619714091215e-19
-0.000455384639464356
-7.419974293992515e-19
-0.0004553846394643569
4.37549369477719e-19
-0.000455384639464356
-9.436680867008957e-19
-0.0004553846394643561
3.655477493511329e-19
-0.0004553846394643563
8.55990304299093e-19
-0.0004553846394643563
3.369805416004058e-19
-0.0004553846394643566
2.822842854164983e-19
-0.000455384639464357
1.680157316240367e-19
-0.0004553846394643569
-1.180418007008461e-19
-0.0004553846394643563
-3.564359825789584e-19
-0.0004553846394643562
2.444667241439155e-19
-0.0004553846394643568
2.449117796082759e-19
-0.0004553846394643563
-6.598864048545073e-19
-0.0004553846394643563
-2.457610306565514e-19
-0.0004553846394643568
2.73072938992168e-19
-0.0004553846394643564
-4.370465794499027e-19
-0.0004553846394643561
-2.079335515716475e-19
-0.0004553846394643563
4.544361663045651e-19
-0.0004553846394643562
8.5626331813241e-20
-0.000455384639464356
-2.738912215235854e-19
-0.0004553846394643562
-2.735056201635852e-19
-0.0004553846394643565
3.727993595466784e-19
-0.0004553846394643566
9.706018776760293e-19
-0.0004553846394643565
2.998289882898821e-19
-0.0004553846394643567
5.279352522943942e-19
-0.0004553846394643566
-2.957635021549911e-19
-0.0004553846394643569
5.182989805032932e-19
-0.0004553846394643567
-1.254674837936006e-19
-0.0004553846394643566
-6.426687459658207e-19
-0.0004553846394643569
1.11446618695223e-19
-0.0004553846394643564
-6.076382298775739e-19
-0.0004553846394643566
1.198269528099501e-19
-0.0004553846394643571
1.153735251824141e-18
-0.0004553846394643566
-2.387349702001773e-19
-0.0004553846394643566
-2.789099298136698e-19
-0.0004553846394643571
7.410533748247971e-19
-0.0004553846394643568
7.15051092719576e-20
-0.0004553846394643568
-9.146814317960553e-20
-0.0004553846394643568
3.658633326412312e-20
-0.0004553846394643569
-3.136533909552003e-20
-0.0004553846394643568
-2.314730100020411e-19
-0.0004553846394643567
-2.259150524402794e-19
-0.0004553846394643567
2.574241368525522e-19
-0.0004553846394643569
-8.333483621312783e-20
-0.0004553846394643567
-4.359541582472285e-19
-0.0004553846394643564
-8.318766801604715e-19
-0.0004553846394643567
1.627220201419428e-19
6.229049663796565e-19
-0.0004318325991408154
-2.791218113346404e-18
-0.0004318325991408155
-6.222539060946666e-19
-0.0004318325991408153
-4.136859228764067e-19
-0.0004318325991408156
1.766307333099833e-19
-0.0004318325991408151
-4.225803121456242e-19
-0.0004318325991408153
2.481070939518558e-19
-0.0004318325991408152
9.924496911067335e-20
-0.0004318325991408155
9.47735995129466e-19
-0.0004318325991408158
4.7723873199566e-19
-0.000431832599140815
-9.356654872085565e-19
-0.0004318325991408152
-5.146312849016921e-19
-0.0004318325991408147
-5.044310776321415e-20
-0.0004318325991408154
-2.724082542881396e-19
-0.0004318325991408154
3.315362363551691e-19
-0.0004318325991408154
7.701558951912378e-19
-0.0004318325991408161
1.087479599425605e-18
-0.0004318325991408157
-1.634872745533373e-19
-0.0004318325991408155
-2.628527601380764e-20
-0.0004318325991408152
-3.365124238171448e-19
-0.0004318325991408162
5.72268858351351e-19
-0.0004318325991408158
-6.003099573124179e-20
-0.0004318325991408154
-2.837111574351427e-19
-0.0004318325991408154
-6.823221818392986e-19
-0.0004318325991408161
5.243039890321313e-19
-0.0004318325991408154
-4.374851715353961e-19
-0.0004318325991408158
-1.363718795041167e-20
-0.0004318325991408157
-2.089270750383925e-19
-0.0004318325991408158
5.257188058971724e-19
-0.0004318325991408157
4.607356430052573e-20
-0.0004318325991408156
-4.263380747218825e-19
-0.0004318325991408156
-3.284239155615432e-19
-0.0004318325991408158
5.554942304357684e-19
-0.0004318325991408161
1.336356040036775e-18
-0.0004318325991408162
4.125398104643487e-19
-0.0004318325991408159
3.229916753298597e-19
-0.0004318325991408157
-4.904460341218e-19
-0.0004318325991408156
3.428992253826054e-19
-0.0004318325991408162
4.685668030657966e-19
-0.0004318325991408157
-1.087326427607685e-18
-0.0004318325991408151
-5.002973356435003e-19
-0.000431832599140816
2.47907835036258e-19
-0.0004318325991408163
3.79013346503904e-19
-0.0004318325991408155
4.300153935874597e-19
-0.0004318325991408157
7.319276498619919e-21
-0.0004318325991408161
1.238409773843843e-20
-0.0004318325991408158
4.766814899237047e-19
-0.0004318325991408161
3.290825719260304e-19
-0.0004318325991408161
-1.839246901747206e-19
-0.0004318325991408162
1.870625250083099e-19
-0.0004318325991408162
-1.111731626517592e-19
-0.0004318325991408162
-1.81329290184473e-19
-0.0004318325991408161
-3.507773190291323e-19
-0.0004318325991408162
3.301350908800625e-19
-0.0004318325991408163
6.301562285918495e-20
-0.0004318325991408162
-5.738536832484123e-19
-0.0004318325991408162
-8.570099498711771e-19
-0.0004318325991408162
1.70947882517429e-19
5.369497339416966e-19
-0.0004179686915826221
-2.760211557209323e-18
-0.0004179686915826215
-1.270232071530808e-18
-0.0004179686915826218
-1.740162203396027e-19
-0.0004179686915826215
-9.853950719909445e-20
-0.0004179686915826218
-1.40748650134605e-19
-0.0004179686915826223
8.059410985262816e-19
-0.0004179686915826221
-2.043243116486962e-19
-0.000417968691582622
8.724695686191949e-19
-0.000417968691582622
5.399864883635342e-19
-0.0004179686915826221
-8.664333383270548e-19
-0.0004179686915826219
-7.264352935995182e-19
-0.0004179686915826211
-7.732382086014287e-19
-0.0004179686915826215
1.747340754865738e-19
-0.0004179686915826217
5.597661833339739e-19
-0.0004179686915826219
8.273781981000281e-19
-0.0004179686915826214
6.446820260753704e-19
-0.0004179686915826221
5.661773359949193e-19
-0.0004179686915826219
-2.346719141630863e-19
-0.0004179686915826222
-4.043500698790366e-20
-0.0004179686915826216
-4.982277621026987e-20
-0.0004179686915826219
2.278344727852887e-19
-0.0004179686915826219
-2.849015032885406e-19
-0.000417968691582622
-5.095620196710911e-19
-0.0004179686915826215
-5.969215046425125e-21
-0.0004179686915826219
-3.12708712725691e-20
-0.0004179686915826219
-4.899905208345979e-20
-0.0004179686915826217
-2.347413600234509e-19
-0.0004179686915826211
-1.095079506947231e-19
-0.0004179686915826217
6.844246674167045e-19
-0.0004179686915826216
-5.165707689790757e-19
-0.000417968691582622
-7.726723134284865e-20
-0.0004179686915826224
9.412065665133742e-19
-0.0004179686915826221
1.042613845407545e-18
-0.0004179686915826218
1.842967394931725e-19
-0.0004179686915826223
8.2794343011422e-19
-0.0004179686915826224
-3.512118297921277e-19
-0.0004179686915826219
-2.007043295783883e-19
-0.000417968691582622
5.02540189730382e-19
-0.0004179686915826223
-7.398151553799209e-19
-0.0004179686915826223
-4.633347472949833e-19
-0.0004179686915826221
-1.264543261935657e-20
-0.0004179686915826221
3.933270449437959e-19
-0.0004179686915826223
6.895143672137217e-19
-0.0004179686915826225
2.414561687778714e-19
-0.0004179686915826222
-3.145115215242715e-19
-0.0004179686915826219
2.154682338969766e-19
-0.0004179686915826224
7.526309932495362e-19
-0.0004179686915826224
-1.494864632320414e-19
-0.0004179686915826222
-2.414353676195181e-20
-0.0004179686915826226
2.2462026089624e-19
-0.0004179686915826226
-2.175757224082567e-19
-0.0004179686915826226
-3.404474942143027e-19
-0.0004179686915826223
8.620964813538589e-20
-0.0004179686915826223
1.22891985759805e-19
-0.0004179686915826222
-6.796562180810225e-19
-0.0004179686915826219
-1.25577705159972e-18
-0.0004179686915826221
4.418485588418731e-19
5.768643256253246e-19
-0.0004148321328854509
-3.145940935994919e-18
-0.0004148321328854508
-1.392777584448184e-18
-0.0004148321328854502
-8.063452968431588e-19
-0.0004148321328854507
3.93025807598074e-19
-0.0004148321328854506
-2.124361187892701e-19
-0.0004148321328854507
9.287916551729421e-19
-0.0004148321328854509
-8.233090130207071e-20
-0.000414832132885451
9.794575681254467e-19
-0.000414832132885451
5.984227295692705e-19
-0.0004148321328854508
-1.038947839097625e-18
-0.0004148321328854507
-8.695875938167853e-19
-0.0004148321328854504
-9.707659694833324e-19
-0.0004148321328854505
2.896783505174016e-19
-0.0004148321328854507
6.745148185408258e-19
-0.0004148321328854511
1.28138494502886e-18
-0.0004148321328854507
2.645480187011146e-19
-0.0004148321328854511
8.855170520694154e-19
-0.000414832132885451
-3.545198757666635e-19
-0.000414832132885451
-1.154895812405085e-20
-0.000414832132885451
-3.356674611261402e-20
-0.000414832132885451
2.00660088940027e-19
-0.000414832132885451
-3.147879673398691e-19
-0.0004148321328854508
-6.669494893200778e-19
-0.0004148321328854516
7.665440867675282e-19
-0.0004148321328854511
-4.723725692490642e-19
-0.000414832132885451
-1.410006400886251e-19
-0.0004148321328854508
-3.777538565715322e-19
-0.0004148321328854514
5.055764869446127e-19
-0.0004148321328854508
5.818852111504473e-20
-0.0004148321328854506
-6.761679380985973e-19
-0.0004148321328854509
1.798131222621616e-19
-0.0004148321328854512
1.204592182624858e-18
-0.0004148321328854512
1.050026528501093e-18
-0.000414832132885451
8.98936716028032e-20
-0.0004148321328854511
9.543395014675397e-19
-0.000414832132885451
-4.683437230160367e-19
-0.0004148321328854509
-3.552614890037582e-19
-0.0004148321328854512
7.993039798963272e-19
-0.0004148321328854512
-7.399071942499771e-19
-0.0004148321328854511
-6.311457352901444e-19
-0.0004148321328854511
7.457778308741431e-21
-0.0004148321328854512
5.269093603725096e-19
-0.0004148321328854516
1.003945110452805e-18
-0.0004148321328854511
-1.396520108775761e-19
-0.0004148321328854512
-2.69267133892378e-19
-0.0004148321328854512
2.875121477870257e-19
-0.0004148321328854514
8.636429349264213e-19
-0.0004148321328854514
-1.705650727408846e-19
-0.0004148321328854514
-3.613138276017491e-21
-0.0004148321328854515
2.640131702404998e-19
-0.0004148321328854515
-2.083308976265426e-19
-0.0004148321328854518
2.150534975750602e-20
-0.0004148321328854515
-2.393550061431138e-19
-0.0004148321328854516
2.028172870257702e-19
-0.0004148321328854511
-1.093401909610361e-18
-0.0004148321328854517
-6.893610405177555e-19
-0.0004148321328854518
4.938492069306847e-19
1.135007161169259e-19
-0.0004257236350027124
-3.683276127107442e-18
-0.0004257236350027119
-1.90512142349967e-18
-0.0004257236350027127
-8.053368898124114e-20
-0.0004257236350027121
-1.79104233978703e-19
-0.0004257236350027121
-2.733352617526294e-19
-0.0004257236350027118
6.312762314839733e-19
-0.0004257236350027123
3.739094073452169e-19
-0.0004257236350027123
1.056591185824661e-18
-0.0004257236350027128
1.116955609157264e-18
-0.0004257236350027125
-1.335995379054635e-18
-0.0004257236350027123
-1.009754313703284e-18
-0.0004257236350027122
-1.050417481980522e-18
-0.0004257236350027123
3.880044565426244e-19
-0.0004257236350027122
4.760597445821462e-19
-0.0004257236350027121
1.12236775157212e-18
-0.0004257236350027122
4.075284109680645e-19
-0.0004257236350027123
9.996949908389097e-19
-0.0004257236350027129
2.1300888516641e-19
-0.0004257236350027124
-5.010663460091393e-19
-0.0004257236350027123
-1.175467293553608e-19
-0.0004257236350027122
1.286318012746266e-19
-0.0004257236350027123
-2.320860564731984e-19
-0.0004257236350027121
-8.492897841728981e-19
-0.0004257236350027116
2.613879430292997e-19
-0.0004257236350027123
1.698425307849524e-19
-0.0004257236350027123
-1.443241535112887e-19
-0.0004257236350027123
-3.157950093172287e-19
-0.0004257236350027117
-9.415356223720912e-20
-0.0004257236350027122
5.983161339063886e-19
-0.0004257236350027121
-8.166242751227853e-19
-0.0004257236350027122
2.807355786487613e-19
-0.0004257236350027124
1.402177123516545e-18
-0.0004257236350027124
1.011908858125759e-18
-0.0004257236350027123
1.210998742441583e-19
-0.0004257236350027127
1.278599807571322e-18
-0.0004257236350027127
-4.312094297228117e-19
-0.0004257236350027123
-6.595985360556198e-19
-0.0004257236350027124
8.36953093759805e-19
-0.0004257236350027126
-5.55285795411919e-19
-0.0004257236350027124
-7.982190972721558e-19
-0.0004257236350027124
-3.875335387167062e-20
-0.0004257236350027126
6.655134771621841e-19
-0.0004257236350027126
1.085449429621476e-18
-0.0004257236350027129
1.690215350101315e-19
-0.000425723635002713
-1.131797153659896e-19
-0.0004257236350027128
6.070540978952998e-20
-0.000425723635002713
1.092249546841991e-18
-0.000425723635002713
-1.512136565595183e-19
-0.0004257236350027131
1.348472464232696e-19
-0.0004257236350027128
-5.942799436678436e-20
-0.0004257236350027129
-1.847357071196146e-19
-0.000425723635002713
1.826707412837466e-19
-0.0004257236350027134
6.843783352565973e-20
-0.0004257236350027129
-2.315028044357093e-19
-0.0004257236350027131
-9.198061337747402e-19
-0.000425723635002713
-7.643703967625663e-19
-0.0004257236350027128
2.212153477284223e-19
3.479684140141018e-19
-0.0004548369052080055
-4.174148179503124e-18
-0.0004548369052080051
-2.280418108248257e-18
-0.0004548369052080052
-5.747055832338004e-20
-0.0004548369052080053
-6.87671328422654e-20
-0.0004548369052080052
-3.643902309760304e-19
-0.000454836905208005
4.372854851579842e-19
-0.0004548369052080055
8.251932860277965e-19
-0.0004548369052080056
1.167080360381478e-18
-0.000454836905208005
6.099439726041278e-19
-0.0004548369052080051
-1.175922054307153e-18
-0.0004548369052080053
-8.873519432080745e-19
-0.0004548369052080051
-1.203549917158617e-18
-0.000454836905208005
2.790022986176185e-19
-0.0004548369052080054
8.412041389617698e-19
-0.0004548369052080047
4.047022034439839e-19
-0.0004548369052080053
1.092118706148996e-18
-0.0004548369052080056
1.272431537697945e-18
-0.0004548369052080049
-5.715730560366875e-19
-0.0004548369052080054
2.727998799530076e-20
-0.0004548369052080056
3.525374174153219e-20
-0.0004548369052080055
9.348636604950466e-21
-0.0004548369052080055
-2.715121303665784e-19
-0.0004548369052080052
-1.137076045313465e-18
-0.0004548369052080054
4.476948709530661e-19
-0.0004548369052080056
4.309760613856133e-19
-0.0004548369052080056
-1.394141658635086e-19
-0.0004548369052080055
-4.154000144453868e-19
-0.000454836905208006
4.6657243157158e-19
-0.0004548369052080054
3.238072952941025e-20
-0.0004548369052080052
-1.02422255285443e-18
-0.0004548369052080055
4.563063348676095e-19
-0.0004548369052080057
1.585325648777772e-18
-0.0004548369052080056
9.686922794694609e-19
-0.0004548369052080056
1.331478853504581e-19
-0.0004548369052080057
1.424103657088098e-18
-0.000454836905208006
-2.168843239373647e-19
-0.0004548369052080056
-1.007050408642585e-18
-0.0004548369052080057
8.318964676740918e-19
-0.0004548369052080059
-3.554822797984616e-19
-0.0004548369052080058
-8.183791307721136e-19
-0.0004548369052080057
-2.070242681986974e-19
-0.0004548369052080057
7.281097721486522e-19
-0.0004548369052080056
9.75236007844086e-19
-0.0004548369052080056
1.593397797786723e-19
-0.0004548369052080057
-2.804407614365344e-20
-0.0004548369052080059
2.89235384151604e-19
-0.0004548369052080056
7.550106378816992e-19
-0.0004548369052080056
-2.035921870231266e-19
-0.0004548369052080058
3.615214381476981e-19
-0.000454836905208006
1.617258165587978e-19
-0.000454836905208006
-1.808802873160494e-19
-0.0004548369052080061
2.752310229100766e-19
-0.0004548369052080063
2.665154537772946e-19
-0.0004548369052080064
-1.149879171284145e-19
-0.0004548369052080061
-1.305180072294138e-18
-0.0004548369052080063
-5.156958443641256e-19
-0.0004548369052080063
2.234785458863413e-19
2.677265742407668e-21
-0.0005052839646783631
-4.851119721707703e-18
-0.0005052839646783626
-2.73423480775757e-18
-0.0005052839646783627
-1.762163337138797e-20
-0.0005052839646783627
-3.517872779287818e-20
-0.0005052839646783628
-2.019781931368157e-19
-0.0005052839646783629
5.457013770591072e-19
-0.0005052839646783633
1.158512661908331e-18
-0.0005052839646783632
1.0628562437533e-18
-0.0005052839646783629
5.137841696176202e-19
-0.0005052839646783629
-1.168513308808338e-18
-0.0005052839646783631
-7.640629764435581e-19
-0.0005052839646783629
-1.291590566103738e-18
-0.0005052839646783628
1.975247178287285e-19
-0.0005052839646783628
8.544609408141862e-19
-0.0005052839646783628
3.467140109232438e-19
-0.0005052839646783629
1.301107304748083e-18
-0.0005052839646783633
1.579836410428563e-18
-0.0005052839646783629
-9.034953371796283e-19
-0.0005052839646783631
1.072070651720313e-19
-0.0005052839646783629
-1.093172176157789e-19
-0.0005052839646783631
1.309074262265857e-19
-0.0005052839646783633
-2.171009314174556e-20
-0.0005052839646783629
-1.460841323925952e-18
-0.0005052839646783629
4.809341540183661e-19
-0.0005052839646783633
7.278070605099586e-19
-0.0005052839646783633
-1.787464442854136e-19
-0.0005052839646783631
-5.747396428493055e-19
-0.0005052839646783629
3.253921481972907e-19
-0.0005052839646783627
-1.218208963847226e-19
-0.0005052839646783626
-1.093468330498059e-18
-0.0005052839646783632
9.250565892537245e-19
-0.0005052839646783633
1.724399677194326e-18
-0.0005052839646783632
8.505619981684244e-19
-0.0005052839646783631
5.50054940507665e-20
-0.0005052839646783633
1.655551511622442e-18
-0.0005052839646783634
-1.194548279286897e-19
-0.0005052839646783631
-1.288732869021805e-18
-0.0005052839646783634
1.039030218334865e-18
-0.0005052839646783636
-8.199451537308734e-20
-0.0005052839646783635
-9.346957991940292e-19
-0.0005052839646783635
-2.006720755119054e-19
-0.0005052839646783635
7.210353291808506e-19
-0.0005052839646783637
1.213448583217509e-18
-0.0005052839646783637
2.678186683615569e-19
-0.0005052839646783638
6.240991562936817e-20
-0.0005052839646783635
6.920680828067699e-21
-0.0005052839646783636
7.812307880700831e-19
-0.0005052839646783635
-3.338584706902308e-19
-0.0005052839646783638
6.39814358628248e-19
-0.0005052839646783637
1.17050725322566e-19
-0.0005052839646783637
-2.426857702307524e-19
-0.0005052839646783641
7.530077336717912e-19
-0.0005052839646783642
4.067141642162199e-19
-0.0005052839646783641
-2.074412076933266e-19
-0.000505283964678364
-1.433406968954955e-18
-0.0005052839646783641
-4.047369345099276e-19
-0.0005052839646783641
2.46323905856473e-19
-2.90170991828224e-19
-0.0005766245845212379
-5.424339321471397e-18
-0.0005766245845212374
-3.297531101278627e-18
-0.0005766245845212375
6.634833337259756e-20
-0.0005766245845212375
-7.593435803703884e-20
-0.0005766245845212376
-1.247604380359469e-19
-0.0005766245845212377
6.943197807107118e-19
-0.0005766245845212379
1.358771788307496e-18
-0.0005766245845212379
1.116225164517345e-18
-0.0005766245845212377
3.576547150005919e-19
-0.0005766245845212376
-1.340992694720284e-18
-0.0005766245845212377