/*--------------------------------*- C++ -*----------------------------------*\
| =========                 |                                                 |
| \\      /  F ield         | OpenFOAM: The Open Source CFD Toolbox           |
|  \\    /   O peration     | Version:  v1812                                 |
|   \\  /    A nd           | Web:      www.OpenFOAM.com                      |
|    \\/     M anipulation  |                                                 |
\*---------------------------------------------------------------------------*/
FoamFile
{
    version     2.0;
    format      ascii;
    class       volVectorField;
    location    "20000";
    object      wallShearStress;
}
// * * * * * * * * * * * * * * * * * * * * * * * * * * * * * * * * * * * * * //

dimensions      [0 2 -2 0 0 0 0];


internalField   uniform (0 0 0);

boundaryField
{
    inlet
    {
        type            cyclic;
    }
    outlet
    {
        type            cyclic;
    }
    bottomWall
    {
        type            calculated;
        value           nonuniform List<vector> 
58
(
(-0.00268226783418922 1.099347597230137e-18 6.85754097788859e-11)
(-0.002682267834189247 8.172684471130019e-21 6.857559838168386e-11)
(-0.002682267834189228 -1.034481214816342e-19 6.857407555315711e-11)
(-0.002682267834189239 4.563844274318774e-20 6.857601041582894e-11)
(-0.002682267834189239 1.536514869081355e-19 6.857377335449327e-11)
(-0.002682267834189244 1.077827639478135e-19 6.857609020663737e-11)
(-0.00268226783418924 -1.462392204339901e-19 6.857372944479642e-11)
(-0.002682267834189239 3.084997873713234e-20 6.857598424205868e-11)
(-0.00268226783418924 -9.819781146861375e-20 6.857381842768864e-11)
(-0.002682267834189238 -1.761791103279096e-19 6.857579815838626e-11)
(-0.002682267834189227 1.616032620108702e-19 6.85739551944852e-11)
(-0.002682267834189242 2.251719073848222e-19 6.857559527194667e-11)
(-0.002682267834189241 -1.319190637423066e-19 6.85740937503698e-11)
(-0.002682267834189238 -1.018338051553939e-19 6.85754061149659e-11)
(-0.002682267834189234 -3.840423741044662e-20 6.857421397626837e-11)
(-0.002682267834189234 -1.664237759113843e-19 6.857524178532384e-11)
(-0.002682267834189234 1.460034759696357e-19 6.857430970233519e-11)
(-0.002682267834189236 9.447660649285483e-20 6.857510360897173e-11)
(-0.002682267834189238 -1.83055863539042e-19 6.857438123339354e-11)
(-0.002682267834189231 5.547233318344286e-20 6.857498866594083e-11)
(-0.002682267834189234 1.633941979281116e-19 6.857443129680686e-11)
(-0.002682267834189236 2.13363769144709e-20 6.857489263873882e-11)
(-0.002682267834189234 4.558521017862811e-21 6.857446305181651e-11)
(-0.002682267834189231 -1.391531944224303e-19 6.857481102102291e-11)
(-0.002682267834189234 4.196833938451185e-20 6.857447929440451e-11)
(-0.002682267834189236 3.007743496301116e-20 6.857473961043028e-11)
(-0.002682267834189234 -4.739799293250882e-21 6.857448211899726e-11)
(-0.002682267834189236 -8.065567873222193e-20 6.857467458630665e-11)
(-0.002682267834189229 6.400758467847391e-21 6.857447282277372e-11)
(-0.002682267834189238 1.069286646989883e-19 6.857461253131557e-11)
(-0.002682267834189234 9.903616043717726e-20 6.857445201805819e-11)
(-0.002682267834189241 -8.643512036192362e-20 6.857455021776059e-11)
(-0.002682267834189234 -1.883310790008265e-19 6.857441962303633e-11)
(-0.002682267834189231 -5.755427424134225e-20 6.857448466822641e-11)
(-0.002682267834189228 3.711381625564878e-20 6.857437504189304e-11)
(-0.002682267834189231 4.795376579193074e-20 6.857441296985301e-11)
(-0.002682267834189234 -1.554375249990956e-19 6.857431726762751e-11)
(-0.002682267834189234 -3.824789053857485e-20 6.857433249845329e-11)
(-0.002682267834189229 3.222521770950789e-20 6.857424518640784e-11)
(-0.002682267834189234 2.985165916066454e-19 6.857424101089537e-11)
(-0.002682267834189228 5.414342981354824e-20 6.857415796297684e-11)
(-0.002682267834189241 -2.349303597497641e-19 6.857413714119733e-11)
(-0.002682267834189229 7.651248216647325e-20 6.857405575797898e-11)
(-0.002682267834189236 -8.933051123942484e-20 6.857402120386169e-11)
(-0.002682267834189228 -2.370148945736681e-20 6.857394071230775e-11)
(-0.00268226783418924 4.692174560131501e-20 6.857389636517755e-11)
(-0.002682267834189231 4.43862587031031e-21 6.857381847310353e-11)
(-0.002682267834189232 1.004425033544294e-19 6.857377024324251e-11)
(-0.002682267834189232 5.946290815612032e-20 6.857369987862072e-11)
(-0.002682267834189229 -1.789926197567899e-19 6.85736566322252e-11)
(-0.002682267834189227 9.28385046824266e-20 6.857360265662061e-11)
(-0.002682267834189231 2.429716636914662e-19 6.857357707861657e-11)
(-0.002682267834189233 -4.676868700211978e-19 6.857355348595971e-11)
(-0.00268226783418924 1.994111558108623e-19 6.857356423806849e-11)
(-0.002682267834189231 3.209225879832005e-19 6.857357958241559e-11)
(-0.002682267834189232 1.975275144289455e-20 6.857359257220225e-11)
(-0.002682267834189234 -3.58765299313377e-19 6.857379041363038e-11)
(-0.002682267834189234 -1.238794556653863e-19 6.857441976950972e-11)
)
;
    }
    topWall
    {
        type            calculated;
        value           nonuniform List<vector> 
58
(
(0.002682267833900923 3.095187286525795e-18 6.826498905989063e-11)
(0.002682267833901095 -8.11863081589476e-18 6.82650555221149e-11)
(0.002682267833900848 2.975199876496307e-18 6.826530173898909e-11)
(0.002682267833900937 2.576542616738436e-18 6.826554706396033e-11)
(0.002682267833901081 -3.066192249134363e-18 6.826576039829889e-11)
(0.002682267833900867 -8.638046732820724e-19 6.826591966829974e-11)
(0.002682267833900803 2.474905228516079e-18 6.826605605303307e-11)
(0.002682267833900998 -2.292751615003027e-18 6.826615485021707e-11)
(0.002682267833900861 -3.252813235840164e-19 6.826625188533381e-11)
(0.002682267833900927 -7.485857636388287e-20 6.826631910827783e-11)
(0.002682267833901077 -3.128024908294276e-18 6.826639681868515e-11)
(0.002682267833900779 -2.240683305540824e-18 6.826644314401664e-11)
(0.002682267833900827 -6.023525160302465e-21 6.826650824067769e-11)
(0.002682267833900917 4.461314661364196e-18 6.826653554331254e-11)
(0.002682267833900923 1.44831660121804e-18 6.82665903317604e-11)
(0.002682267833900815 1.030027448718453e-19 6.826659796745167e-11)
(0.002682267833901012 2.260685591370825e-18 6.82666446179719e-11)
(0.002682267833900977 -2.284159152760488e-18 6.826663178553076e-11)
(0.002682267833900875 1.235684690855151e-18 6.826667298853711e-11)
(0.002682267833900943 1.187222726903597e-18 6.826663864502281e-11)
(0.002682267833900909 7.471324889368271e-20 6.826667831551037e-11)
(0.002682267833901051 -2.556202308034914e-18 6.826662118241991e-11)
(0.002682267833900973 -2.129855582751436e-18 6.826666414474801e-11)
(0.002682267833900806 1.917636602753424e-20 6.826658219868097e-11)
(0.002682267833900818 3.936602974404691e-18 6.826663448919243e-11)
(0.002682267833900813 4.886146203448913e-18 6.826652444013145e-11)
(0.002682267833901219 -4.835864466031756e-18 6.826659322652149e-11)
(0.002682267833900748 1.728078337837526e-18 6.826645010995691e-11)
(0.002682267833900827 2.018858334908476e-18 6.826654416242181e-11)
(0.002682267833900927 -4.771258140421695e-19 6.826636084491138e-11)
(0.002682267833901129 -2.017638552892098e-18 6.826649106263568e-11)
(0.002682267833901052 -5.587015836407034e-18 6.826625759985315e-11)
(0.002682267833900757 3.692162032147581e-18 6.826643766594049e-11)
(0.002682267833900738 7.639585848051788e-18 6.826614055266281e-11)
(0.002682267833901093 -3.543851921610594e-18 6.826638777852121e-11)
(0.002682267833900882 -4.871488454483812e-19 6.826600905711327e-11)
(0.002682267833900918 3.022110512235839e-18 6.82663453504804e-11)
(0.002682267833901138 -5.401073024596924e-18 6.826586167712939e-11)
(0.002682267833900948 -1.427157097729882e-18 6.826631460433974e-11)
(0.002682267833900818 2.51318673949136e-18 6.826569616410773e-11)
(0.002682267833900961 9.0591915220942e-19 6.826629987938724e-11)
(0.002682267833900843 1.068582471618552e-18 6.826551013225874e-11)
(0.002682267833901019 -1.930764008381031e-18 6.826630542064183e-11)
(0.002682267833901038 -2.66060480466575e-18 6.826530147077322e-11)
(0.002682267833900949 2.559294344840263e-18 6.826633365706822e-11)
(0.002682267833900946 -9.65315543779444e-19 6.826507029790867e-11)
(0.00268226783390096 -2.416224460295755e-18 6.826638310747395e-11)
(0.002682267833901011 -3.708873876424898e-18 6.826482321850776e-11)
(0.002682267833900961 1.682349465390279e-18 6.826644293822233e-11)
(0.00268226783390097 1.64325584140599e-18 6.826457950141009e-11)
(0.002682267833900967 -1.842442434041533e-18 6.826648415136497e-11)
(0.002682267833900763 5.29747658614264e-18 6.826438246368045e-11)
(0.002682267833901085 -1.97439254163122e-18 6.826644813728552e-11)
(0.002682267833900829 -8.323021374419533e-19 6.826431012356065e-11)
(0.002682267833901019 1.664113602759281e-18 6.826630474207679e-11)
(0.00268226783390094 -4.644887428082043e-18 6.826463354776615e-11)
(0.002682267833900917 -6.158484513419871e-19 6.826550941718428e-11)
(0.002682267833900704 6.366102753028642e-18 6.826524258477485e-11)
)
;
    }
    left
    {
        type            cyclic;
    }
    right
    {
        type            cyclic;
    }
}


// ************************************************************************* //
