/*--------------------------------*- C++ -*----------------------------------*\
| =========                 |                                                 |
| \\      /  F ield         | OpenFOAM: The Open Source CFD Toolbox           |
|  \\    /   O peration     | Version:  v1812                                 |
|   \\  /    A nd           | Web:      www.OpenFOAM.com                      |
|    \\/     M anipulation  |                                                 |
\*---------------------------------------------------------------------------*/
FoamFile
{
    version     2.0;
    format      ascii;
    class       volScalarField;
    location    "3000";
    object      nut;
}
// * * * * * * * * * * * * * * * * * * * * * * * * * * * * * * * * * * * * * //

dimensions      [0 2 -1 0 0 0 0];


internalField   nonuniform List<scalar> 
1408
(
4.139972564334366e-06
4.245903721998095e-06
4.250864590500906e-06
4.140657785655176e-06
4.132182958304448e-06
4.245222744605765e-06
4.255132795468563e-06
4.251943690794828e-06
4.253357058347946e-06
4.249254406556909e-06
4.250662360710925e-06
4.251633162396076e-06
4.252727532399545e-06
4.253966063805126e-06
4.248921012566322e-06
4.248396014973321e-06
4.249448012394947e-06
4.140363285165894e-06
4.132173819555407e-06
4.245250191955677e-06
4.249895880441685e-06
4.253355275445139e-06
4.249578042133438e-06
4.250093596780136e-06
4.252038058985204e-06
4.253190853436467e-06
4.250109475617791e-06
4.253535673223954e-06
4.251122681126064e-06
4.249883677296836e-06
4.140222152535459e-06
4.132164445231381e-06
4.133809229402713e-06
4.129771165377636e-06
4.129495761613786e-06
4.129456356413395e-06
4.132736383622254e-06
4.245424205784885e-06
4.250854043293379e-06
4.140657245725611e-06
4.132184349185495e-06
4.24525178576791e-06
4.250773317923468e-06
4.249478044027868e-06
1.226033329756268e-05
1.562192265518586e-05
1.582358336291637e-05
1.224963385481954e-05
1.1868040520127e-05
1.55944728051997e-05
1.59608765947547e-05
1.5866427891356e-05
1.590027798038109e-05
1.581908843831382e-05
1.580008103811594e-05
1.583237026601573e-05
1.589771845789289e-05
1.593097016303996e-05
1.579788572074742e-05
1.572111175144785e-05
1.575632964702558e-05
1.22359110549961e-05
1.186777922183405e-05
1.560006454081181e-05
1.57845058554999e-05
1.587917569965616e-05
1.582019164835203e-05
1.576730999126951e-05
1.582790869680923e-05
1.590268722361022e-05
1.583321427336752e-05
1.589142383056715e-05
1.584547915502244e-05
1.577468892010585e-05
1.223185572118813e-05
1.186296396461537e-05
1.191871605047472e-05
1.182276127844257e-05
1.180177877548303e-05
1.180553139087046e-05
1.186834609428154e-05
1.56042159228636e-05
1.582324887299564e-05
1.224968869422328e-05
1.186815040051658e-05
1.559895895553363e-05
1.582502321659528e-05
1.577887950691189e-05
9.192454160396379e-05
9.630088016664966e-05
9.687794731027544e-05
9.192998448651334e-05
9.100869205650337e-05
9.618023211795954e-05
9.726886372511382e-05
9.702749220164137e-05
9.710940599250934e-05
9.69451278063875e-05
9.708657023288826e-05
9.705564112943113e-05
9.705753269028717e-05
9.699503025464904e-05
9.668875781804312e-05
9.663607827657088e-05
9.674703442300918e-05
9.187628689022166e-05
9.101073136854877e-05
9.621166093579788e-05
9.674690958419484e-05
9.702094456425413e-05
9.685935998680151e-05
9.678651881198928e-05
9.678361206680144e-05
9.679556729045941e-05
9.679541177991485e-05
9.7003279830202e-05
9.698855600896535e-05
9.680691271416837e-05
9.189502297977401e-05
9.098311629074771e-05
9.114165176563384e-05
9.082147091689695e-05
9.072457666302193e-05
9.075922561693635e-05
9.098086755891212e-05
9.623401538983687e-05
9.68792295207877e-05
9.193096039199273e-05
9.101008601021517e-05
9.620397366681597e-05
9.688191921934558e-05
9.676877175971227e-05
0.0003156967595508891
0.0003178019832830166
0.0003181735650944835
0.0003157298686296835
0.0003151200576949347
0.000317664277228419
0.000318697507102208
0.0003183001481211106
0.0003184088988835158
0.0003183116448634226
0.0003184267716227662
0.0003185047441003327
0.0003182063564573759
0.0003180780201376029
0.0003178588978168155
0.0003178221563005553
0.0003180037816079656
0.0003156451099845575
0.0003151252334945317
0.0003177305248863534
0.0003179893797848023
0.0003183734398430288
0.0003181957730999897
0.0003182420886093221
0.0003183565419144067
0.0003180277648355724
0.0003179928182296326
0.0003180571662823691
0.0003182717465311861
0.0003182302809124296
0.0003157280588424776
0.0003151138275541236
0.0003151981926052774
0.0003148798217389048
0.0003149560041025027
0.0003148058248145035
0.0003149806851538643
0.0003177147919263779
0.0003181772017735877
0.0003157289857066037
0.0003151213186046701
0.0003177123764800973
0.0003181718336871701
0.0003180875733903228
0.0007367667548240885
0.0007373820274079486
0.0007374977241180882
0.0007368280239192535
0.0007365494363810862
0.0007372621693932765
0.0007378799521502614
0.000737584452512073
0.0007375092437518496
0.0007375259227883702
0.0007376054948945597
0.0007377285035702935
0.000737512506391396
0.0007373729411953608
0.000737242273429589
0.0007371892695898946
0.0007372852305419618
0.0007367135920899574
0.0007365352847966841
0.0007373351735737529
0.0007373455790150185
0.0007375811396727805
0.0007375328820566616
0.0007375323507007764
0.0007376698381495348
0.0007373813957428839
0.0007373074651630572
0.0007373250288959617
0.0007375200231822672
0.0007375983914063401
0.0007368527150790771
0.0007365694562411315
0.0007365723714822724
0.0007364225304777649
0.0007364924917255627
0.0007363483930991571
0.000736328670330134
0.0007372873858080545
0.0007374844896996059
0.0007368113870124127
0.0007365408278061446
0.0007373147790913912
0.0007374884273124902
0.0007374446081041103
0.001451647554633217
0.001451752405451558
0.001451749576105443
0.001451706856947432
0.001451633540419516
0.001451689270501969
0.001451908841336876
0.001451825421659171
0.001451738923844404
0.001451749803472221
0.001451744162295087
0.001451821406199107
0.001451752226642363
0.001451660398917633
0.001451580706563809
0.001451620851944761
0.001451557066994052
0.001451588358307037
0.001451584253303316
0.001451716754882813
0.00145166717030968
0.001451726249165087
0.001451746319040474
0.001451727140038333
0.001451820711207287
0.001451695893133237
0.001451637528354907
0.00145163946467803
0.001451711269936845
0.001451814885040234
0.001451736146341569
0.001451663638224314
0.001451637574433591
0.001451582887739224
0.001451631223294799
0.001451561732413151
0.001451434160802195
0.001451673729477497
0.001451708627560755
0.001451663217286418
0.001451603452720386
0.001451706928214266
0.001451732625603697
0.001451715744625739
0.00246569727983518
0.002465718637425634
0.002465711643253278
0.002465740044979777
0.002465735640375717
0.002465718549294112
0.002465766651078283
0.002465753959449445
0.002465721932724532
0.002465737869189649
0.002465727760569618
0.002465740135501637
0.002465715512890245
0.002465686179261977
0.002465648722295957
0.002465662114329693
0.002465629432608582
0.002465659624765195
0.00246567973412907
0.002465694923298832
0.002465676749133958
0.002465685276974985
0.002465693510017125
0.00246569870852483
0.002465722943692645
0.002465711257897867
0.002465693082579076
0.002465678095627528
0.002465688230715142
0.00246575863650848
0.002465768405011264
0.002465766178897123
0.002465758549523541
0.002465723583818406
0.002465718930313572
0.002465708499089325
0.002465646301430248
0.002465678158310765
0.002465666939588408
0.002465686228278089
0.002465689257124599
0.002465691439541978
0.002465691033005576
0.002465693086139956
0.0035305236375565
0.003530535201963292
0.003530534727923559
0.003530551714787871
0.00353055221808688
0.00353055525553506
0.003530564025580157
0.003530565691564594
0.003530560114309586
0.003530572665786528
0.003530574572340386
0.00353058082414664
0.003530568668039857
0.003530560123183143
0.003530543029533463
0.003530540178278377
0.003530531299235498
0.003530530225443893
0.00353053408727163
0.003530535937279913
0.003530536639137273
0.003530540354232621
0.003530545889009052
0.003530546089063135
0.003530557743569748
0.00353056116473779
0.00353056211486765
0.003530559152754918
0.003530558550638689
0.003530583251394218
0.003530593355692662
0.00353059913211793
0.003530589992892629
0.003530582022918136
0.003530558936963625
0.003530550681133954
0.003530528473871353
0.003530526912196882
0.003530518271447658
0.003530520513719685
0.003530517940403476
0.003530519154721527
0.003530515328990908
0.00353052683609156
0.00440444098540703
0.004404444829086874
0.00440444645114239
0.004404454774714623
0.004404455782673561
0.004404458944071429
0.004404462776389831
0.004404468239090954
0.004404467818351339
0.004404474352863375
0.004404478777555769
0.004404489251717402
0.004404486805484823
0.004404485536259265
0.004404479696571839
0.004404473919183055
0.004404473512713391
0.004404469664232858
0.004404470304614068
0.004404468898145191
0.004404471799199758
0.004404474327336901
0.004404476798761346
0.004404476494330941
0.004404480751923377
0.004404483604742334
0.004404484678421331
0.004404485900860002
0.004404484367439026
0.004404493224263143
0.00440450298240478
0.004404507388454388
0.004404502996787652
0.004404500821128233
0.004404487350582189
0.00440447338401187
0.004404464606678269
0.004404458614667671
0.004404451070439185
0.004404446469661445
0.004404439238906496
0.004404438666747974
0.00440443687023918
0.004404442708545195
0.005016662000713544
0.005016663575818311
0.005016664143764478
0.005016668808770216
0.005016668725396432
0.005016670660526873
0.005016672038584372
0.005016676061940677
0.005016676748767828
0.005016680376815673
0.005016683454858713
0.005016692073254649
0.005016693585841833
0.005016695784323321
0.005016694897933228
0.005016692364506676
0.005016693446044156
0.005016692558016921
0.005016693377268427
0.005016692435863082
0.005016695939318673
0.005016697969203028
0.005016699285911234
0.005016698906490785
0.005016700557486152
0.005016701384922474
0.005016701496758829
0.005016703064180547
0.005016701517379333
0.005016704967999192
0.005016710965121475
0.00501671428726957
0.005016712960890441
0.005016711722054145
0.00501670598828453
0.005016694007327792
0.005016689525861182
0.005016683680990851
0.005016677152097869
0.005016672180328934
0.005016665134492489
0.005016663420321449
0.005016660708951562
0.005016663784909808
0.005396760250610194
0.005396760810467395
0.005396760814923476
0.005396763496377016
0.005396762538673909
0.005396763395266775
0.005396763747018068
0.005396765536927585
0.005396766181516793
0.005396768197304937
0.005396770058529842
0.005396775164549188
0.005396776867394574
0.005396779901903386
0.005396780808812041
0.005396780881448363
0.005396782400465597
0.005396783152878657
0.005396784776992355
0.005396783771344019
0.005396787493724802
0.005396789582146564
0.005396790798019285
0.00539679094763251
0.005396791867406658
0.005396791900489349
0.005396791747447612
0.005396793126399336
0.005396791733449438
0.00539679323950394
0.00539679641652042
0.005396797878333851
0.005396797236127019
0.005396796498370727
0.005396793867002165
0.005396786185743292
0.005396783953420128
0.005396779182310901
0.00539677408819148
0.005396769840900839
0.005396764429715121
0.005396763056790661
0.005396760431988111
0.005396762233706443
0.005592507155304271
0.005592507239188071
0.005592507028775939
0.005592508767376382
0.005592507450656978
0.005592507486381578
0.005592507278657697
0.005592507734593344
0.005592507944858339
0.005592509016885225
0.005592510033461813
0.005592512511638062
0.005592513351339182
0.005592515335372641
0.005592516681362339
0.005592518112882376
0.005592519608946613
0.005592520676631962
0.005592522606468719
0.005592521402480955
0.005592525079714895
0.005592526963084092
0.005592528289281111
0.00559252877700112
0.005592529693938095
0.005592529647017027
0.005592529798015772
0.005592531166326433
0.00559253005178994
0.005592530836577664
0.005592532173665882
0.005592532186260922
0.005592531461190572
0.005592530782404378
0.005592529238728243
0.005592524376495804
0.005592523762818684
0.005592520481300879
0.005592516888729448
0.005592513805334066
0.005592510273700157
0.005592509238739374
0.005592507700648228
0.005592509119488553
0.005644269452298047
0.005644269448891316
0.005644269140283997
0.005644270516704094
0.005644269156260011
0.005644268723460365
0.005644268098093012
0.005644268028179305
0.005644267996238666
0.005644268444741475
0.005644268867980242
0.00564426986850881
0.005644269948759194
0.005644270816567918
0.005644271933992759
0.005644273416205054
0.005644274858369268
0.005644275815673708
0.005644277609906204
0.005644276039878982
0.005644279528174397
0.005644280932465207
0.005644282179388439
0.005644282735268604
0.005644283578857772
0.005644283800632722
0.005644284255732619
0.005644285755313981
0.005644284850841507
0.00564428546850572
0.005644285795618109
0.005644285169642714
0.005644284236010886
0.005644283283920416
0.005644282079100323
0.005644278503666415
0.005644278751778007
0.00564427685913162
0.005644274725825502
0.005644272823892168
0.005644270797629384
0.005644270477050056
0.005644269798418379
0.00564427127428935
0.005586589435718201
0.005586589520121107
0.005586589228387401
0.005586590491384952
0.005586589200388716
0.005586588413553116
0.005586587826647825
0.005586587489390525
0.005586587348457548
0.00558658741172864
0.005586587413459832
0.005586587587245614
0.005586587224538775
0.005586587496229031
0.005586588300310315
0.005586589329088774
0.005586590606671911
0.005586591380908457
0.005586592829528462
0.005586590882824365
0.005586594155672852
0.005586595105766061
0.005586596064837667
0.005586596498599352
0.005586597108773031
0.005586597451158319
0.005586598043247716
0.005586599872029752
0.005586598891928553
0.005586599622342508
0.005586599628121263
0.005586598534428781
0.005586597423127289
0.005586596039792724
0.005586594957339725
0.005586592026844745
0.00558659251248199
0.00558659156770563
0.005586590581974245
0.005586589598879794
0.005586588897823579
0.005586589207305068
0.005586589252289935
0.005586591012030912
0.0054547043737053
0.00545470462744182
0.005454704431101916
0.005454705686307904
0.005454704614700884
0.005454703370658746
0.005454703098265106
0.005454702714153399
0.005454702472599756
0.005454702493393472
0.005454702011836999
0.005454702076837972
0.005454701197384897
0.005454701142153872
0.005454701944211889
0.005454702452637919
0.005454703509110844
0.005454704168103132
0.005454705249045051
0.005454703003798808
0.005454706026630462
0.005454706776450882
0.005454707318179203
0.005454707583751276
0.005454707934166955
0.005454708243512906
0.005454708899417225
0.005454710823655388
0.005454709923988548
0.005454710643254722
0.005454710333494838
0.005454709247918676
0.005454707643071295
0.005454705956424393
0.005454704814717115
0.005454701906007547
0.005454702740821197
0.005454702160033998
0.005454701982053842
0.005454701812579558
0.005454702072362599
0.005454703128608511
0.005454703389189558
0.005454705719658388
0.005294332897519121
0.005294333632728845
0.005294333401290833
0.005294334630130401
0.005294334249259755
0.005294332115610056
0.005294332564855332
0.005294331889467467
0.005294331521239116
0.005294331938991833
0.005294330414761083
0.005294331123971017
0.005294329558231043
0.005294329022264297
0.005294330658279387
0.005294330083566793
0.005294331407339536
0.005294332172412914
0.005294332753924763
0.00529433041476599
0.005294333018151805
0.005294333974108447
0.005294333929259881
0.005294334229925072
0.005294334260904814
0.005294334254578229
0.005294335525804952
0.005294337116026756
0.005294336273809902
0.005294337381689263
0.005294336110729267
0.005294335700897016
0.005294333036770258
0.00529433131976311
0.005294329722233922
0.005294326637520438
0.005294327956909646
0.005294327574839583
0.005294327892558197
0.005294328198559409
0.005294329369403872
0.005294330660614014
0.005294331291426841
0.005294334222865868
0.005294478368614427
0.005294477416510711
0.005294476322128949
0.005294477382007244
0.005294475482545241
0.005294475362870576
0.005294473357670442
0.005294472959696322
0.005294472299783292
0.005294470481512034
0.005294471688782121
0.005294470464104511
0.005294470999202351
0.005294471443377306
0.005294470636025676
0.005294471063635274
0.005294470772824646
0.005294470543351086
0.005294471018451233
0.005294468594381248
0.005294471364856447
0.005294472047501373
0.005294473041367458
0.005294473046173135
0.005294473276316318
0.005294473597203728
0.005294472759242603
0.005294474511599202
0.005294472937142446
0.005294473233869133
0.005294475232553133
0.005294474884060984
0.005294476892226879
0.005294477194043538
0.005294478406714515
0.005294477632455961
0.00529447916685133
0.005294479587150482
0.005294479186319391
0.005294479452739757
0.0052944784011411
0.005294479013270578
0.00529447829709042
0.005294479960892024
0.005454878275484107
0.005454877960603387
0.005454877392802869
0.005454878157707235
0.005454876692077761
0.005454876119424156
0.005454874921513639
0.005454874195317131
0.005454872843982124
0.005454871889015769
0.005454871873554768
0.005454871572457114
0.005454871057998048
0.005454871055194695
0.005454871181353668
0.005454870816746597
0.005454870853557364
0.005454870801831787
0.00545487088151808
0.005454868471412844
0.005454871277848106
0.00545487176936277
0.005454872378945942
0.00545487239981432
0.005454872523516219
0.005454872549670414
0.00545487221395746
0.005454873205107455
0.00545487176238555
0.005454872118115127
0.005454873215466821
0.005454873281230034
0.005454874714473494
0.005454875094020956
0.005454876178715334
0.005454875521437872
0.005454877584910003
0.005454877972640907
0.005454878005634481
0.005454878469938208
0.005454878132761677
0.005454878798263715
0.005454878457122839
0.005454880216986356
0.005586775060879291
0.005586774882246006
0.005586774492104456
0.00558677525785021
0.005586773855654436
0.005586773231473157
0.005586772248392394
0.005586771550560764
0.005586770052212639
0.00558676923409341
0.005586768971928753
0.005586768738088715
0.00558676783863331
0.00558676784742517
0.005586768054880459
0.005586767572617086
0.005586767726158219
0.005586767669177943
0.005586767670127971
0.005586765192632562
0.00558676802447345
0.005586768381498695
0.005586768867400784
0.005586768840262487
0.005586768838586895
0.005586768747501645
0.005586768442808198
0.005586769378447282
0.005586767877301795
0.005586768191066699
0.005586768853746174
0.00558676873461047
0.005586769818372784
0.005586770001292372
0.00558677096935379
0.005586770159753706
0.005586772390035839
0.005586772917990365
0.005586773175811208
0.005586774153243524
0.005586773987834601
0.005586775028641675
0.005586774809850512
0.005586776963437874
0.00564445781225557
0.005644457692883423
0.005644457339397886
0.005644458108348615
0.00564445664978003
0.00564445597764215
0.005644454988190908
0.005644454394722652
0.005644452941363614
0.005644452216004805
0.005644451806882602
0.005644451474467575
0.005644450586953103
0.005644450687024803
0.005644450973311664
0.005644450470832834
0.005644450688855354
0.0056444505619365
0.005644450396100561
0.005644447804160836
0.005644450649611124
0.005644451017351395
0.005644451460037802
0.005644451313262268
0.005644451237712762
0.005644451056546702
0.005644450538755886
0.005644451546024139
0.005644450044031636
0.005644450350076215
0.005644450594013537
0.005644450483790386
0.005644451394814844
0.005644451352678996
0.005644452204324977
0.005644451343708955
0.005644453524483328
0.005644454257377213
0.005644454673233897
0.005644455991625021
0.005644455944316061
0.005644457416042657
0.005644457127192602
0.005644459581493053
0.005592693070452525
0.005592692889015968
0.005592692495199723
0.005592693364903601
0.005592691771746014
0.00559269079857353
0.005592689715367767
0.005592689482274407
0.005592688171807408
0.00559268754878276
0.005592687003473542
0.00559268658911303
0.005592686066303638
0.005592686194569351
0.005592686547434431
0.005592686118342572
0.005592686280812244
0.005592685997018737
0.005592685669824003
0.005592682551250846
0.005592685277605406
0.005592685742030736
0.005592686246532407
0.005592685963820716
0.005592685815481475
0.005592685605984919
0.005592684829764018
0.005592686121193549
0.005592684565833188
0.005592685128189099
0.005592685264258585
0.005592685174008226
0.005592686152545514
0.00559268598792663
0.00559268674006552
0.00559268560921659
0.005592687610924366
0.005592688701602482
0.005592689363158852
0.005592690885899069
0.005592690717537823
0.005592692515121311
0.005592691973709104
0.00559269457843896
0.005396940582194692
0.005396940061737089
0.005396939578459265
0.005396940877998516
0.005396939034978234
0.005396937331505248
0.00539693634493644
0.005396937084681369
0.005396935902796631
0.005396935324203399
0.005396934568321375
0.0053969338331186
0.005396934135712448
0.005396934133962721
0.00539693456328346
0.005396934411567514
0.005396934375702829
0.005396933786044861
0.005396932737756458
0.005396928529586624
0.005396930990706675
0.005396932007209705
0.005396932828780595
0.005396932321156702
0.005396932194279207
0.005396932047267845
0.005396931107321922
0.005396932986392947
0.005396932201202608
0.005396932785865086
0.00539693272450636
0.005396932942788105
0.005396934156062141
0.005396933854606261
0.005396934257311478
0.005396932779777081
0.005396934474193519
0.005396935961263457
0.005396937277372125
0.005396938572398791
0.005396938097845809
0.005396939887470124
0.005396939037088367
0.005396941557589634
0.005016833052649844
0.005016831975648004
0.005016831671155804
0.005016833886299369
0.005016831435973175
0.005016828932503678
0.005016828420986715
0.005016830856123269
0.00501682965757494
0.005016829351149165
0.005016828221768961
0.005016827224834808
0.005016828371251842
0.00501682781508516
0.005016828335564878
0.005016828263953855
0.005016827671326834
0.005016826387459586
0.005016824094053066
0.005016818263821616
0.005016820431753882
0.005016822846722082
0.005016824458463911
0.005016823800491619
0.005016823935456717
0.00501682406228039
0.005016823300345508
0.005016826169578836
0.005016827031215461
0.005016827463094918
0.005016826673526388
0.005016826941849496
0.005016828414938363
0.005016828054930691
0.005016828118293518
0.005016825288325189
0.005016826706483409
0.005016829133562842
0.005016831287970224
0.005016831595303271
0.005016831122767788
0.005016832411003268
0.005016830452903243
0.005016833349129524
0.004404597155049594
0.00440459519490902
0.004404594934683586
0.004404599318348025
0.004404595111972789
0.004404591880196164
0.004404592342019131
0.004404598946589586
0.004404596282561038
0.004404596146308473
0.004404594410517148
0.004404593621238433
0.00440459551465994
0.00440459375511386
0.004404594110435828
0.004404593170705563
0.004404591455390061
0.004404588538324774
0.004404584648319035
0.004404578373163188
0.004404581171859285
0.004404586383133853
0.004404588753369736
0.004404587980274622
0.004404588398713949
0.004404589426532421
0.004404589410177526
0.004404593449996204
0.004404597273670914
0.004404596903724755
0.004404592791869752
0.004404593607554085
0.004404594720885365
0.004404594081078772
0.004404593264312758
0.004404588050414951
0.004404588686456328
0.004404594452127064
0.004404596360329351
0.004404595798123264
0.004404595496552382
0.004404595585738956
0.004404592033456898
0.004404595459751588
0.003530657528528517
0.003530653811098059
0.003530654892638988
0.003530661836653426
0.00353065371730207
0.003530649581346352
0.003530655720143987
0.003530665610393157
0.003530656467409118
0.003530656799887617
0.003530653784215805
0.003530656553343533
0.003530655915735416
0.003530652467877572
0.003530651723261777
0.003530647910362497
0.003530649004636789
0.003530641814935477
0.00353063807977384
0.003530637091884208
0.003530642613728726
0.003530649978103378
0.003530651270896775
0.003530650495892518
0.003530651761397874
0.00353065444134084
0.003530655599194385
0.003530658687750588
0.003530665287395847
0.003530661466135038
0.003530651343876461
0.003530655436102674
0.003530654658090079
0.003530654862534957
0.003530651336240385
0.003530643187738136
0.003530644237132005
0.003530653985913728
0.003530654347647817
0.003530652470554844
0.003530652861014707
0.003530651941647071
0.003530647763656988
0.003530649966567879
0.002465799635215667
0.002465787557528724
0.002465786137283615
0.002465802885251622
0.002465785854923114
0.002465779411691392
0.002465797182458762
0.002465807259725577
0.002465781653828111
0.002465781110128421
0.002465785805344094
0.002465791961457284
0.002465774423430095
0.002465786084685924
0.002465765914783626
0.002465760816890606
0.002465775621215519
0.002465761710187201
0.002465779242555071
0.002465786144509775
0.00246579454630726
0.002465795204149647
0.002465796773746912
0.002465797316736365
0.002465799009750946
0.002465804888980665
0.002465802137299682
0.002465789270650207
0.002465806960203594
0.00246579140166604
0.002465775099777851
0.002465793443238462
0.002465786960403039
0.002465791370324899
0.002465782033441345
0.002465773471982357
0.002465772848342944
0.002465782777510724
0.002465778292519601
0.002465783368377506
0.002465783349387219
0.002465787228418487
0.00246578308108085
0.002465773637760682
0.001451775544912168
0.001451737778311311
0.001451739182041871
0.001451764862687818
0.001451719466915365
0.001451721628651943
0.001451728887668245
0.001451735336875574
0.001451703641454358
0.001451700639933549
0.00145170535198602
0.001451723474941687
0.001451678665756584
0.001451754943121121
0.001451700916564084
0.001451702285323568
0.001451743750752139
0.001451713767118571
0.001451738954944399
0.001451727200332242
0.001451736328457329
0.001451724058145934
0.00145174069338784
0.00145173866732792
0.001451759917065834
0.001451742062185747
0.001451728881475419
0.001451693684029382
0.001451769346198714
0.001451738421165345
0.001451724009825963
0.001451767454271051
0.001451745362757997
0.001451751557944428
0.001451740799847188
0.001451750031640708
0.001451731187371127
0.00145173191826735
0.001451734619725799
0.001451726135357345
0.001451714411101823
0.001451735605634777
0.001451713686266414
0.001451691350284842
0.0007369951136284209
0.0007368235792415233
0.0007368435874682451
0.0007371892243644718
0.000737190051877947
0.0007371684878086551
0.0007371404402826018
0.0007373317343352391
0.0007372427372169594
0.0007371511397702062
0.0007371639271972096
0.000737128292710015
0.0007371614251152864
0.0007369332552906055
0.0007366421164858684
0.0007367542441560972
0.0007368883508024486
0.0007371496522763763
0.0007373282331913497
0.0007372515723500303
0.0007371710352256617
0.0007372014536712082
0.0007372462663047208
0.0007372561093435843
0.0007373167565150244
0.0007372864626034475
0.0007371750500873333
0.0007371689776066333
0.0007369349804228611
0.0007368280881883068
0.0007368729125849117
0.0007369540973408034
0.0007369005575503588
0.0007369159582693883
0.0007369187288238957
0.0007369263982618172
0.0007368078676232608
0.0007368371368779851
0.0007371626254611612
0.0007372183113108477
0.0007372109548745827
0.0007372676005098533
0.0007371779786865542
0.0007371386051427981
0.0003169844340227338
0.0003166679467371909
0.0003166569851141746
0.0003167782502126274
0.0003167595990678784
0.0003168074882212353
0.0003168357916249991
0.0003167551210741007
0.0003168194924228043
0.0003168100582741929
0.0003168659133373091
0.0003168398761814883
0.0003168185163630811
0.0003168659545481967
0.0003166715628687817
0.0003167048314440974
0.000316680692773683
0.0003167606548742612
0.0003168127492992728
0.0003167654484281872
0.0003168399820861256
0.000316811087871397
0.0003167967324090273
0.0003168403091012086
0.0003168189632863654
0.0003167286771090312
0.0003167334508429271
0.0003168046674438014
0.000316852860818831
0.0003166861122821062
0.0003166336358544365
0.00031665354335685
0.0003166795025147931
0.0003166707976073684
0.000316677774659984
0.0003167541692866207
0.0003166413030052532
0.0003166664241069486
0.0003167775556924765
0.0003167710005769102
0.0003168303805795432
0.0003168196183588963
0.0003167089172764955
0.0003167568123924555
9.666596905266355e-05
9.652071045674667e-05
9.638339484652408e-05
9.199883153932158e-05
9.140815914026619e-05
9.154670211130664e-05
9.162342874812885e-05
9.142264667234326e-05
9.1483941668048e-05
9.152611708104584e-05
9.158539331274426e-05
9.144547494307344e-05
9.151546899734374e-05
9.610958768128319e-05
9.641210846183036e-05
9.680107871956594e-05
9.65493410957367e-05
9.201021991672045e-05
9.159950955026018e-05
9.122065231360772e-05
9.15929410039984e-05
9.161506483040834e-05
9.154985232019218e-05
9.142645207703527e-05
9.150152193080439e-05
9.130580808703401e-05
9.110752940625075e-05
9.144127558220451e-05
9.609522736180639e-05
9.649272743244048e-05
9.622314978144088e-05
9.631394527458231e-05
9.638699468264138e-05
9.63836029556909e-05
9.638474528759545e-05
9.666362555278136e-05
9.641921873041777e-05
9.638506129072062e-05
9.199221028153877e-05
9.140868147947786e-05
9.155764572862052e-05
9.154565665123903e-05
9.116771918253999e-05
9.142675862648485e-05
1.56882914567482e-05
1.589461555820956e-05
1.583788432873909e-05
1.218492105850939e-05
1.180613385898345e-05
1.185700446088704e-05
1.186988524385315e-05
1.183190090603497e-05
1.183531581648966e-05
1.183528767982033e-05
1.181511637544904e-05
1.175526842971683e-05
1.180356949820424e-05
1.56226410617541e-05
1.586797557924699e-05
1.594198447976594e-05
1.591750916628106e-05
1.219317180832288e-05
1.184383901423191e-05
1.180469736755699e-05
1.184232810653034e-05
1.188145644525667e-05
1.185281479697105e-05
1.1790997442787e-05
1.183131212591924e-05
1.184590849437267e-05
1.179506980222409e-05
1.18313305286016e-05
1.562387754528233e-05
1.588990342055751e-05
1.580151172451133e-05
1.580944635767537e-05
1.583660939660711e-05
1.583663358301026e-05
1.583663722324531e-05
1.590212434884292e-05
1.58724701494727e-05
1.583244269148234e-05
1.218906831067207e-05
1.180620255735404e-05
1.185782685101652e-05
1.185188832531083e-05
1.17982971524091e-05
1.18231090526438e-05
4.255665860769247e-06
4.264707406517152e-06
4.262663347130374e-06
4.134166285523225e-06
4.121556097318184e-06
4.12348085977369e-06
4.123484451777815e-06
4.12168611835383e-06
4.122354843940079e-06
4.12161400897387e-06