/*--------------------------------*- C++ -*----------------------------------*\
| =========                 |                                                 |
| \\      /  F ield         | OpenFOAM: The Open Source CFD Toolbox           |
|  \\    /   O peration     | Version:  v1812                                 |
|   \\  /    A nd           | Web:      www.OpenFOAM.com                      |
|    \\/     M anipulation  |                                                 |
\*---------------------------------------------------------------------------*/
FoamFile
{
    version     2.0;
    format      ascii;
    class       volScalarField;
    location    "3000";
    object      nuTilda;
}
// * * * * * * * * * * * * * * * * * * * * * * * * * * * * * * * * * * * * * //

dimensions      [0 2 -1 0 0 0 0];


internalField   nonuniform List<scalar> 
1408
(
0.0005079662891463444
0.0005014568730087668
0.0005010351440598857
0.0005078839912663406
0.0005082707237893541
0.0005015128923271915
0.0005009350697239619
0.0005010574795495372
0.0005010283119839323
0.0005009535939946179
0.0005010648282217076
0.0005009853688122546
0.0005008158890383833
0.0005009255464496844
0.0005009374422257227
0.0005009414907759713
0.0005010860653865004
0.0005078926279808424
0.000508271199741729
0.0005015091474605183
0.0005008900796695749
0.0005009744641312021
0.0005009271379540566
0.0005010798360725965
0.0005008997746395916
0.0005009395196117455
0.0005010755958560973
0.0005010281029723456
0.0005009619106633921
0.0005010869531340014
0.0005079042097677351
0.0005082682436138101
0.0005081777888691398
0.0005084139792254739
0.0005083003643150737
0.0005083056444823376
0.0005082288199357883
0.0005014896553832945
0.0005010362365922901
0.0005078841397225079
0.0005082708518720418
0.0005015093883194044
0.0005010378667717033
0.000501127681648769
0.0007258249033252721
0.0006398934229769336
0.0006320273157836626
0.0007260621702027204
0.0007331090833597052
0.0006410501487774216
0.0006310796602935263
0.000632553349447732
0.0006323570138534111
0.000631522633784193
0.0006322211313950646
0.0006322026751490434
0.0006302734963821393
0.0006308183712847229
0.0006311744071413362
0.0006306765412059495
0.0006324127952918753
0.0007261500974141986
0.0007331192086337141
0.0006410095928467712
0.0006303170419785099
0.0006312271808918402
0.000631037767036739
0.0006323123658880486
0.0006310501410552072
0.0006309736294541015
0.0006327018956100062
0.0006323594438142403
0.0006317814125512821
0.0006326599847170955
0.0007263616998487587
0.000733203659320651
0.0007318940347779235
0.0007343253660069852
0.0007335330706529864
0.0007329885477246749
0.0007325358782671027
0.0006406228192904072
0.0006320531986097228
0.00072606568634365
0.0007331122516521861
0.0006409620485486424
0.000631957242647128
0.0006333121750273763
0.001135039414391117
0.001105122836604098
0.001100035011122488
0.001134999656118772
0.00114006816252027
0.001105923425451449
0.001099096609920996
0.0011003774008286
0.001100264396059008
0.001100231335590084
0.001100339938573093
0.001100507679995061
0.001099535818917913
0.001099320956775881
0.001099066821512843
0.001098652082156304
0.001100176100742274
0.001135078365162312
0.001140087838607029
0.001105966548192225
0.001098384481540735
0.00109919195292365
0.001098959691525641
0.001100105902170954
0.00109942516284613
0.00109928513898759
0.001100565844857123
0.001100104544278587
0.001100086694890175
0.001100738489119409
0.001135301776047689
0.001140186715394988
0.001139271540705392
0.001140953389016973
0.001140513491696105
0.001140200345059892
0.001139848782702741
0.001105631331031622
0.001100075770489809
0.001135004700481835
0.001140074000994165
0.00110587843522689
0.001099922859242874
0.001100929089260147
0.001574402692043796
0.001566979512198018
0.001565239635510444
0.001574318478503941
0.001576084146037686
0.001567204292616178
0.00156521800054309
0.001565479102081063
0.001565475238457633
0.001565451941410361
0.001565249707778527
0.001565520237797427
0.001564963107670037
0.001564638450006431
0.001564410738473342
0.001564575094131475
0.001565263366153611
0.001574300477685529
0.001576097026612115
0.00156731101772319
0.001564306713508532
0.001564978918247979
0.001564722917455458
0.001565246125840189
0.001565337846953174
0.001564793625638399
0.001565180175872387
0.001564943274272467
0.001565164722812676
0.001565566941585465
0.001574463883517639
0.001576146651366126
0.001575796144013385
0.001576100474078669
0.0015760391152443
0.001575898600566358
0.001575843291730376
0.001567122448212706
0.001565260976593264
0.001574318532228917
0.001576086635311209
0.001567235307029
0.001565196940418697
0.001565516283662402
0.002050834921558702
0.002049133349266171
0.002048509181180086
0.002050769808289236
0.002051363747108002
0.002049159229045512
0.002048646640363679
0.002048605757127252
0.00204847230458862
0.002048526075693827
0.002048500537241231
0.002048636973941696
0.002048452648854396
0.002048172979954205
0.002048067227533805
0.00204815651588034
0.002048413299695285
0.002050700250306587
0.002051352071770981
0.002049251629886114
0.002048114599887195
0.00204839982098769
0.002048349225375967
0.00204847692301176
0.002048627558622709
0.002048335807829488
0.002048366313546395
0.002048335242529296
0.002048410334544235
0.002048607943074386
0.002050830941216939
0.002051403424623719
0.002051266891764568
0.002051293864509299
0.00205130119160979
0.002051223987506164
0.002051150378492315
0.002049142170064085
0.002048503912260836
0.002050755177358675
0.002051355562483812
0.002049201570556965
0.002048494790910863
0.002048570275522124
0.002649626328747164
0.002649351709846102
0.002649158249190596
0.002649610695739484
0.002649779234326201
0.002649336707816828
0.002649243245555767
0.002649228069785349
0.002649136569397031
0.002649155641350427
0.002649139699994231
0.002649199364920612
0.002649164349619993
0.002649047009797566
0.002648970226238885
0.002649024776033881
0.002649020712404019
0.002649541636105593
0.002649741487396291
0.002649373630334014
0.002649040406554055
0.00264909597218697
0.002649098954631692
0.002649132591493076
0.002649202045960698
0.002649118369464116
0.002649067901520856
0.002649071392495764
0.002649104109746857
0.0026491887101181
0.002649639113704813
0.002649810535918279
0.002649759936578721
0.002649744354422326
0.002649756024406694
0.002649725884368107
0.002649650342935541
0.002649313401344066
0.00264912915743948
0.002649578090948361
0.00264975543657492
0.002649352414601736
0.002649144960490266
0.002649152460956497
0.003415427616865953
0.003415411088201246
0.00341537943551509
0.003415447791505137
0.003415475974359991
0.003415413486657391
0.003415417112558853
0.003415415916213852
0.003415382975780693
0.003415396866795019
0.003415390326343445
0.003415399883561415
0.003415388300234605
0.003415357003630181
0.003415320076943884
0.003415332323135311
0.0034153179593164
0.003415394214781744
0.003415432713105114
0.0034154004266732
0.003415345346667749
0.003415352288219754
0.003415356585305078
0.003415365274562793
0.003415385630231302
0.003415379562098067
0.003415358401268151
0.00341534870302405
0.00341535141773618
0.003415405207732743
0.003415470048724243
0.003415503313507639
0.003415492935178877
0.003415471594047179
0.003415465799178292
0.003415462397771993
0.003415413867763435
0.003415381362915861
0.003415346325846741
0.00341540819127912
0.003415440552795124
0.003415395133837611
0.003415363212373514
0.003415365405896349
0.004240853744215221
0.004240859634112237
0.004240858145034688
0.00424087510410521
0.004240877049491322
0.004240874791548258
0.004240880984053755
0.004240883277280669
0.004240878146702268
0.004240887479053258
0.004240888926374837
0.004240894776705484
0.004240886880551364
0.004240878664126289
0.004240863496715197
0.004240860440565986
0.004240856212742671
0.004240859179244083
0.004240861213931545
0.004240860266208471
0.004240857736586101
0.004240860922082167
0.004240865886862987
0.004240865304377888
0.004240875202730111
0.004240878145540096
0.004240878653621717
0.004240876532206499
0.004240875134358613
0.004240894678819361
0.004240907832878485
0.004240916626532063
0.004240908777976965
0.004240903793077726
0.004240884577116618
0.004240878841190198
0.004240859075316734
0.004240853365253504
0.004240846250122684
0.004240851126470786
0.004240849396373486
0.004240847126024625
0.004240841669713826
0.004240851573479595
0.004958751371238847
0.004958754231087983
0.004958756080529259
0.004958762984621143
0.004958763676615007
0.004958765822501263
0.004958769062928373
0.004958774064729528
0.004958773877912318
0.004958778965720218
0.004958782561673865
0.004958791866155334
0.004958790091709651
0.004958788838492949
0.004958783897571619
0.004958778678743044
0.004958779122579087
0.0049587762693226
0.004958775467517797
0.004958773877073013
0.004958776260843459
0.004958778532448003
0.004958781018561632
0.004958780527976618
0.004958784108693618
0.004958786618608023
0.004958787846698512
0.004958788999768347
0.004958787439068229
0.004958794560151435
0.004958803708949464
0.004958808203706193
0.004958804299192573
0.004958803162836144
0.00495879169625488
0.004958779969918288
0.004958771846454955
0.004958766226269404
0.004958760633465315
0.004958756969339259
0.004958749759855502
0.004958748867678242
0.004958747448121113
0.0049587525646665
0.005483546396295343
0.005483547636002867
0.005483548412942961
0.005483552255741661
0.005483552192430902
0.005483553757570378
0.005483554933236329
0.005483558541389925
0.0054835593119049
0.005483562275941302
0.005483564931716201
0.005483572522194185
0.005483573955842738
0.005483575822961816
0.005483575169416413
0.005483572788274414
0.005483573969534586
0.005483573407795084
0.005483573305133525
0.00548357255353103
0.005483575502276978
0.00548357737955552
0.005483578755760767
0.005483578293002613
0.005483579796591575
0.005483580531051275
0.005483580824431236
0.005483582273015436
0.005483580758783128
0.005483583611040381
0.00548358915529195
0.005483592351546558
0.005483590979597199
0.005483590331947636
0.00548358526774043
0.005483574978045114
0.005483570822218506
0.005483565617377156
0.005483560286428687
0.005483555903385316
0.005483549148742231
0.005483547523092268
0.005483545235178424
0.00548354790845676
0.00581741204176824
0.0058174124600185
0.005817412579706844
0.005817414780848985
0.005817414076230406
0.005817414796745103
0.005817415067381776
0.00581741668306709
0.005817417361760737
0.005817419027596853
0.005817420683305968
0.005817425234495851
0.005817426779348915
0.005817429393805845
0.005817430313509445
0.005817430251825568
0.005817431762611187
0.005817432549238326
0.005817433478346459
0.00581743278717572
0.005817435953513196
0.005817437872770973
0.005817439084089125
0.005817439148280036
0.005817440045022811
0.005817440024592843
0.005817440021985112
0.005817441291261784
0.005817439920473938
0.005817441191417772
0.005817444187601024
0.005817445610991546
0.005817444864448673
0.005817444505613766
0.005817442064153347
0.005817435454333622
0.005817433390969053
0.005817429162504449
0.00581742477435231
0.005817420931256645
0.005817415784100737
0.005817414552525671
0.00581741221782428
0.005817413765801552
0.005991510618489697
0.005991510649949565
0.005991510485703665
0.005991511886967473
0.005991510937622771
0.005991510964267358
0.005991510736478209
0.005991511134267075
0.005991511360544455
0.005991512247362724
0.005991513171302204
0.00599151542438365
0.005991516174563966
0.005991517851319553
0.005991519136335978
0.005991520306197872
0.005991521730175783
0.005991522765353737
0.005991524223156346
0.005991523377445671
0.005991526515930945
0.005991528248726155
0.005991529506703351
0.005991529895135879
0.005991530779627679
0.005991530698018825
0.005991530905073164
0.005991532160470394
0.0059915310368349
0.00599153172321521
0.005991533050855868
0.005991533105732093
0.005991532343368262
0.005991531945895496
0.005991530447559167
0.005991526252619906
0.005991525734811546
0.005991522813277533
0.005991519609070186
0.005991516774276234
0.005991513431121093
0.005991512538155609
0.005991511123378979
0.005991512342185286
0.006037778978837243
0.006037778937727322
0.00603777866220258
0.006037779746996904
0.006037778803100012
0.00603777839528567
0.006037777800856681
0.00603777772652579
0.006037777695146081
0.006037778060217685
0.00603777845115773
0.006037779388118209
0.006037779447092541
0.006037780133286252
0.006037781193827978
0.006037782412708109
0.006037783752121708
0.006037784659445396
0.006037786134643936
0.006037784946284629
0.006037787925189564
0.006037789235821349
0.006037790389304704
0.006037790854843981
0.006037791650947168
0.006037791808608436
0.00603779229176156
0.006037793642354671
0.006037792697991926
0.00603779327308018
0.006037793654379345
0.006037793142117704
0.006037792227670369
0.006037791522014024
0.006037790335021168
0.006037787217789966
0.00603778753099027
0.006037785795052634
0.006037783856440419
0.006037782095720136
0.006037780170252892
0.006037779921751696
0.006037779287708065
0.006037780582245423
0.005986227055974984
0.005986227096116565
0.005986226828822955
0.005986227807731802
0.005986226972410169
0.005986226227730384
0.005986225671408532
0.005986225368682206
0.005986225208905175
0.005986225256441232
0.005986225264355599
0.005986225445935224
0.005986225104812624
0.00598622526836359
0.005986226036192761
0.005986226847387019
0.005986228010091639
0.005986228728309355
0.005986229975046472
0.00598622843220682
0.005986231216954149
0.005986232125372069
0.005986232997360068
0.005986233365068722
0.005986233927904457
0.005986234195528268
0.005986234777734968
0.005986236452124789
0.005986235376916705
0.005986236108484618
0.005986236200631132
0.005986235264336623
0.005986234231897826
0.005986233086560809
0.005986232037359794
0.00598622945195857
0.00598622995315519
0.005986229061565903
0.005986228138950564
0.005986227223088792
0.005986226509921862
0.005986226838711529
0.00598622687156986
0.005986228441750036
0.005868801434111998
0.005868801624686598
0.005868801448909688
0.005868802405387275
0.005868801810088389
0.005868800636218427
0.005868800344390108
0.005868800036441907
0.005868799764010527
0.005868799783415204
0.00586879936365096
0.005868799459915558
0.005868798640727218
0.005868798511737378
0.005868799267730324
0.005868799619107193
0.005868800566184219
0.005868801166089017
0.005868802123817143
0.005868800304515456
0.005868802847551937
0.005868803582681207
0.005868804074736277
0.005868804299460031
0.005868804606829383
0.005868804843844877
0.00586880546248752
0.005868807246886877
0.005868806221980153
0.005868806960990494
0.005868806773610349
0.005868805839339741
0.005868804414817168
0.005868802963616086
0.005868801890925323
0.005868799273487208
0.005868800100657934
0.005868799525879612
0.00586879930826176
0.005868799117683223
0.005868799282040193
0.00586880029325271
0.005868800505498894
0.005868802606330678
0.0057268822267277
0.005726882857680112
0.005726882671343005
0.005726883587611531
0.005726883629509842
0.005726881658734147
0.005726882004098225
0.005726881446722618
0.005726881047340038
0.005726881432903994
0.005726880097183317
0.00572688071558331
0.005726879368423889
0.005726878777183939
0.005726880255325217
0.005726879685563032
0.005726880788057147
0.005726881538945941
0.005726882014680891
0.005726880140219999
0.005726882303672897
0.005726883230759072
0.005726883207070993
0.005726883437832765
0.005726883479086855
0.005726883394741837
0.00572688456831461
0.005726886058861521
0.005726885070966778
0.005726886197991166
0.00572688513036739
0.005726884835622171
0.005726882503466671
0.005726881025116698
0.005726879547051632
0.005726876746357657
0.005726877965424998
0.005726877572546847
0.005726877792199507
0.005726878001782862
0.005726878987093854
0.005726880202749828
0.005726880768741253
0.005726883360255784
0.005727010596485655
0.005727009693753545
0.005727008700802767
0.005727009416065043
0.005727008108613896
0.005727007914282021
0.005727006171168995
0.005727005844094274
0.005727005229237395
0.005727003631714815
0.005727004662484818
0.005727003697651245
0.005727004041689728
0.005727004459276171
0.005727003809211974
0.005727003999148329
0.005727003840126772
0.005727003560475089
0.005727004003629328
0.005727001962147584
0.005727004257196279
0.005727004951007372
0.005727005773329292
0.005727005875242986
0.005727006014958663
0.005727006401302887
0.005727005614422092
0.005727007298017737
0.005727005676937366
0.005727005944991834
0.005727007780468694
0.00572700735953121
0.005727009162362053
0.005727009396128177
0.005727010514269984
0.005727009711849437
0.005727011269707291
0.00572701156690821
0.005727011188933533
0.005727011488907888
0.00572701046872402
0.005727011121903031
0.005727010451651465
0.005727012002887336
0.005868955915447914
0.005868955554928113
0.005868955062782102
0.005868955509224924
0.005868954551586843
0.005868953942054063
0.005868952906155107
0.005868952323969653
0.005868951059703578
0.005868950234511085
0.005868950198682312
0.00586895000558632
0.005868949508133285
0.00586894948083772
0.005868949630720003
0.005868949169536519
0.005868949231031833
0.005868949151900288
0.0058689492193438
0.005868947191462501
0.005868949545192593
0.005868950066824114
0.005868950570636353
0.005868950660677803
0.005868950721441765
0.005868950814895194
0.005868950515063078
0.005868951516421936
0.00586895001291643
0.005868950349738345
0.00586895136758514
0.005868951333427499
0.005868952653987223
0.005868952951159335
0.005868953935418955
0.005868953245056926
0.005868955250627974
0.00586895552959928
0.005868955517777531
0.005868955982924868
0.005868955629358588
0.005868956350554117
0.005868955994632388
0.005868957637071568
0.005986392858257712
0.005986392596779454
0.005986392281458496
0.005986392719291734
0.005986391813997165
0.005986391168860685
0.0059863902896507
0.005986389756585761
0.005986388332929367
0.005986387639911547
0.005986387365946405
0.005986387261866479
0.005986386408231811
0.005986386376497409
0.005986386623210581
0.005986386027944172
0.005986386196832667
0.005986386109523662
0.005986386094530418
0.005986384006811144
0.005986386393153204
0.00598638680001015
0.005986387202822545
0.005986387253030236
0.005986387197440334
0.00598638719569236
0.00598638690755618
0.005986387880633466
0.005986386315315157
0.005986386622316825
0.005986387279114594
0.00598638706565011
0.005986388095950283
0.005986388194532743
0.005986389080730577
0.005986388247217421
0.005986390407521034
0.00598639079124816
0.005986390985911227
0.005986391925708679
0.005986391689877756
0.005986392790216915
0.005986392515839518
0.005986394562077081
0.006037947625278123
0.006037947394784957
0.006037947155485591
0.006037947571903268
0.006037946618407639
0.006037945943278574
0.006037945023499083
0.006037944605309273
0.006037943200816163
0.006037942609477863
0.006037942181300166
0.006037942008759362
0.006037941140209975
0.006037941190932195
0.006037941526438864
0.006037940890274803
0.006037941147080255
0.006037940991539292
0.006037940813964931
0.006037938624805661
0.006037941019439547
0.006037941440295892
0.006037941802077954
0.006037941753250127
0.006037941614310322
0.006037941556672378
0.006037941052882504
0.006037942115426515
0.006037940533259062
0.006037940839987018
0.006037941131096105
0.006037940927153978
0.006037941819548615
0.006037941702829265
0.006037942500409411
0.0060379415830088
0.006037943726334172
0.00603794427063901
0.006037944618669113
0.006037945874968686
0.006037945713943929
0.006037947224064717
0.006037946868593544
0.006037949212394862
0.005991676742177798
0.005991676441950893
0.005991676245194764
0.005991676725185394
0.00599167566493494
0.005991674719627399
0.005991673676411569
0.00599167360938004
0.00599167231989418
0.005991671837821073
0.005991671270138297
0.005991671039755038
0.005991670461492665
0.005991670523651756
0.00599167095346622
0.005991670371213555
0.005991670647165255
0.005991670318254232
0.00599166999050513
0.005991667342248579
0.005991669596068697
0.005991670098689891
0.005991670511842584
0.005991670355941347
0.005991670140397278
0.005991670080513763
0.005991669323363037
0.005991670658980659
0.005991668949380141
0.005991669532759459
0.005991669757857027
0.005991669564089574
0.005991670540174719
0.005991670301718485
0.005991671011972555
0.005991669846796566
0.005991671844800858
0.005991672682676829
0.005991673281389186
0.0059916747222007
0.005991674409629924
0.005991676231293088
0.005991675608789209
0.005991678101291017
0.005817571835804587
0.005817571260574385
0.005817571101482916
0.005817571936735369
0.005817570695403892
0.005817569088131917
0.005817568060583736
0.005817568904910171
0.00581756773092868
0.005817567304621814
0.005817566525074552
0.005817566041813892
0.00581756608425578
0.00581756602479047
0.005817566584194645
0.005817566268481685
0.005817566472425581
0.00581756587067269
0.005817564853626517
0.005817561276006249
0.005817563222389773
0.005817564185005411
0.005817564885232839
0.00581756455383745
0.005817564336277173
0.005817564353474322
0.005817563426009891
0.005817565262166625
0.00581756422156094
0.00581756482187227
0.005817564923445396
0.005817564965031943
0.005817566191136895
0.005817565844839217
0.005817566261533841
0.005817564752991367
0.005817566542527808
0.005817567672435285
0.005817568908042974
0.005817570144733309
0.005817569495756504
0.005817571293069416
0.005817570382907783
0.005817572741371075
0.005483695338388126
0.005483694269178232
0.005483694381166517
0.005483695964434355
0.005483694316363195
0.005483691999903389
0.005483691290088836
0.0054836936960333
0.005483692530230293
0.005483692332870564
0.005483691197083243
0.005483690520812815
0.005483691255210748
0.005483690632276301
0.005483691330724102
0.005483691125626067
0.005483690978529521
0.005483689778127632
0.005483687619224284
0.005483682724181307
0.005483684284405432
0.005483686407788849
0.005483687793881626
0.005483687384819705
0.005483687366408588
0.005483687633917215
0.005483686865400962
0.005483689499333434
0.005483689906850667
0.00548369036896898
0.00548368987935633
0.005483689937547924
0.005483691393293699
0.005483691034860723
0.005483691198991891
0.00548368837736093
0.005483690059332492
0.00548369190261489
0.005483693945782248
0.005483694315801339
0.005483693630527101
0.005483694918538592
0.005483693011136023
0.005483695651394897
0.004958882781866865
0.004958881109821473
0.004958881481578995
0.004958884677464808
0.004958881808320991
0.004958878757173314
0.004958878654437318
0.004958884705584489
0.004958882384136536
0.004958882228316333
0.004958880589281615
0.004958880202563349
0.004958881372158881
0.004958879761888356
0.004958880420491016
0.004958879462991305
0.004958878770207775
0.004958876128533815
0.004958872603490685
0.004958867364655404
0.004958869342603489
0.004958873750540379
0.004958875733376048
0.004958875319185154
0.004958875499445347
0.004958876475719943
0.00495887637337422
0.004958879825469159
0.004958882531421343
0.004958882630464387
0.004958879320527489
0.00495887979450176
0.004958880924769163
0.004958880467144455
0.004958879982927517
0.004958874965059227
0.004958876021605386
0.004958880511164113
0.004958882578780725
0.004958882166484152
0.004958881532988207
0.004958881720204699
0.004958878432218607
0.004958881390435238
0.004240958388960981
0.004240955833120181
0.004240957981131771
0.004240962511784504
0.004240956525663427
0.004240952039700412
0.004240955664749595
0.004240964973610934
0.004240957803860895
0.004240957270076487
0.004240954429470018
0.00424095748486679
0.004240956167396293
0.004240953985607465
0.004240954372073275
0.004240951129787018
0.004240953625006442
0.00424094712173386
0.004240943010507005
0.004240942006722388
0.00424094614329593
0.004240952108782908
0.004240953037635489
0.004240952828993938
0.004240953655184166
0.004240955659006828
0.004240956575174808
0.004240958737123909
0.004240963845907837
0.004240962406742079
0.004240954293641145
0.004240957446085998
0.004240957105252735
0.004240957619705575
0.004240955218928
0.00424094761104028
0.004240949169237915
0.004240956442548152
0.004240956833904279
0.004240955045669939
0.00424095444575961
0.004240953953726477
0.004240949883483611
0.00424095157756939
0.003415472606408437
0.003415465225209994
0.003415468393098876
0.00341549430905053
0.003415485224895391
0.003415477774468388
0.00341548636953918
0.00341549957013294
0.00341548137949821
0.003415477324769208
0.003415478252772789
0.003415486106520786
0.003415471879205664
0.003415468714657466
0.003415452866024798
0.003415445012520613
0.00341546065490676
0.003415463088837889
0.003415477744023756
0.003415482890314952
0.003415488146712545
0.003415488565638613
0.003415490467357341
0.00341549120036819
0.003415493012099003
0.003415496648998681
0.003415496727451452
0.003415483713222543
0.003415483503758545
0.003415471280394487
0.003415458715021118
0.003415474131460208
0.003415470911948265
0.003415474175938678
0.003415467597778075
0.003415458662748873
0.003415458897000922
0.003415467197298955
0.003415475238108096
0.003415483091629309
0.003415480052581541
0.003415483016899105
0.003415481186893979
0.003415471479972319
0.002649536374469026
0.002649460467242728
0.002649451249257893
0.002649526597083416
0.002649534911513227
0.002649544502680637
0.00264954467877418
0.002649557211343939
0.002649539226146513
0.002649530231699265
0.002649525006432707
0.002649549311674905
0.002649519275124025
0.002649512595432172
0.002649438585066793
0.002649425028040891
0.002649449967187941
0.002649488351696296
0.00264954659257068
0.002649545737299977
0.00264955125626233
0.002649543947227127
0.002649556428029858
0.002649559155939831
0.002649572712900699
0.002649554131690108
0.002649549113066375
0.002649530230291111
0.002649527494309973
0.002649466286929315
0.002649439824381272
0.002649475210752825
0.002649464467565563
0.00264946712120798
0.002649461623317702
0.00264946897018256
0.002649451303569988
0.002649449347088464
0.002649502697062251
0.002649541492388769
0.002649541260454863
0.002649554024504577
0.002649535067892674
0.002649528246970552
0.002050647946845978
0.002050541844007434
0.002050461411627658
0.002049620404131463
0.002049351078956827
0.002049375168523057
0.002049375482307893
0.002049496866026829
0.002049430678864849
0.002049394569337262
0.002049355887544644
0.002049331106621727
0.002049408477170998
0.002050322547713408
0.002050384359143788
0.002050515256358648
0.002050536912597267
0.002049582348423993
0.002049465047362236
0.002049352074255102
0.002049346531204312
0.002049403269091312
0.002049401174013382
0.002049414399196281
0.002049490262548953
0.002049424287890937
0.002049289583879752
0.002049378869330205
0.002050321840648996
0.0020505134039456
0.00205050747479945
0.00205056393565554
0.002050494759216888
0.002050481799838138
0.002050530013193171
0.002050601935990192
0.002050510015760715
0.002050459092644836
0.002049598821732788
0.002049366725874434
0.002049439185069047
0.002049432963977085
0.002049301870459047
0.002049335258914382
0.001570609026579175
0.00157088603649562
0.001571074140353927
0.001571014734278499
0.001570624194185255
0.001570489069992187
0.00157066369005509
0.001570582596736281
0.001570537102022361
0.00157054309291668
0.00157076112901928
0.001570617854154729
0.001570509097059952
0.001570810416659462
0.001570828863161776
0.001570892028367833
0.001571060771189005
0.001570985242711837
0.00157075566173696
0.001570621713697287
0.001570723791415649
0.001570550184697056
0.001570627919657258
0.001570595587843107
0.00157055052292976
0.001570678024800885
0.001570640735985259
0.001570536877259978
0.001570825564080006
0.001570933783428821
0.001570971271652292
0.00157099462903862
0.001571118013198902
0.001571100613673515
0.001571103391408465
0.001571060771161633
0.001570872436256283
0.001571055087335153
0.001571012369694772
0.001570635409286928
0.001570527649308036
0.001570741684308913
0.001570551765440213
0.001570374765836571
0.001104030209021371
0.001102722453805182
0.001103500041948426
0.001134460787740947
0.001137420763880941
0.001136593084577334
0.001138448761280318
0.001137363425129798
0.001136640874114782
0.001137368053043738
0.001139359173419571
0.001137809654924515
0.001136823796567233
0.001106484997101113
0.001100727657039315
0.001101997924431814
0.001103133106584049
0.001134406571153667
0.001139754157690439
0.0011378016657004
0.001138941035048346
0.001137401250533556
0.001138742217424359
0.001137650792124651
0.001137495721405263
0.001138345542688775
0.001137495845960356
0.001136810770777744
0.001106396259680863
0.001102754199841719
0.001101808003494503
0.001102997395741639
0.001103717881820359
0.001103760996490243
0.001103701440849598
0.00110319434305475
0.001101890365199436
0.001103100565734764
0.001134389978407625
0.001137419861967607
0.001136628580109113
0.001138702127416241
0.001137685673610461
0.001136783173928919
0.0006372716766491191
0.0006303639416086569
0.0006317159197609231
0.0007271292673696472
0.0007348216938163678
0.0007334554885795873
0.0007348902895849411
0.0007344762578521063
0.0007334842733441972
0.0007343087281928354
0.0007365827176257864
0.0007354534852406665
0.0007337565504161301
0.0006398038024377545
0.0006288579970531791
0.0006298593046896805
0.0006311559829470445
0.0007268832600282777
0.0007371174064091205
0.0007351982731294025
0.0007357955440405902
0.0007348749570470793
0.0007355901655736007
0.0007352047250633409
0.0007353928210113489
0.0007351129522806159
0.0007337584060358643
0.0007334792143535301
0.0006396909280208217
0.000630448644666107
0.0006303296683746542
0.0006308096488264386
0.0006318176958279668
0.0006318738503267886
0.0006318188044269092
0.0006313299437056667
0.000630649441136284
0.0006312957045654959
0.0007270177287999789
0.0007348177936368379
0.000733472114916618
0.0007355040138294495
0.0007350695881858093
0.0007335747622458427
0.0005009194282167999
0.0005003350195788884
0.0005004576573315745
0.0005083385201387788
0.0005090588041802333
0.0005089404323301426
0.000509021125284878
0.0005090258471230361
0.0005089588001730769
0.0005090176951591192
0.0005091638648785221
0.0005091238223217965
0.0005089910811161081
0.0005011184627987161
0.0005002410452220515
0.0005002776628343254
0.0005003822906462012
0.0005083183557639152
0.0005091665797813833
0.0005090766975776354
0.0005090961149952845
0.0005090134055355737
0.0005090798514287192