/*--------------------------------*- C++ -*----------------------------------*\
| =========                 |                                                 |
| \\      /  F ield         | OpenFOAM: The Open Source CFD Toolbox           |
|  \\    /   O peration     | Version:  v1812                                 |
|   \\  /    A nd           | Web:      www.OpenFOAM.com                      |
|    \\/     M anipulation  |                                                 |
\*---------------------------------------------------------------------------*/
FoamFile
{
    version     2.0;
    format      ascii;
    class       volScalarField;
    location    "3000";
    object      nuTilda_0;
}
// * * * * * * * * * * * * * * * * * * * * * * * * * * * * * * * * * * * * * //

dimensions      [0 2 -1 0 0 0 0];


internalField   nonuniform List<scalar> 
1408
(
0.0005014549598847054
0.0005079288408522613
0.0005082720190247515
0.0005015101595966194
0.0005010367794434354
0.00050788237974391
0.0005084776792684821
0.0005083077746846429
0.000508374521037546
0.0005082350971336206
0.0005082537668263614
0.0005083198894031272
0.0005084217020532645
0.0005084340526364129
0.0005082272000146012
0.0005082047070732632
0.0005081977069434307
0.0005014953057294007
0.0005010362493763523
0.0005078847585958631
0.0005082825551943605
0.0005083928191168379
0.0005082571340386439
0.0005082257852762766
0.0005083653645066277
0.0005083981342319579
0.0005082278694554172
0.0005083817693682979
0.0005083073719895718
0.0005082149194724158
0.0005014857174772074
0.000501036846698339
0.0005011338350303864
0.0005008910436579067
0.0005009174394507478
0.0005009140844011562
0.0005010732132497051
0.0005078983935857303
0.0005082712224561141
0.0005015100883529572
0.0005010367936885093
0.0005078847406964983
0.0005082674215309613
0.0005081847258150701
0.0006412332874556789
0.0007268532186735032
0.0007331394082860421
0.0006409724628554801
0.0006320613809251318
0.0007259685042843452
0.000735685692341673
0.0007336088036747391
0.0007342215004780248
0.0007332684394461887
0.0007326901349360432
0.0007332090271417552
0.000735010085877514
0.0007353181224886233
0.0007330704973305485
0.0007320480665432798
0.0007319200586262677
0.0006407026095445371
0.0006320537081508289
0.0007260731220823971
0.0007331988292299626
0.0007343370583002764
0.0007334785119572186
0.0007321341340206681
0.0007335959045302918
0.0007348096122058638
0.0007330245426154702
0.0007340807111570841
0.0007335836975579247
0.0007321136791154598
0.0006405673253442424
0.0006319421432212133
0.0006333304192055132
0.0006308889113388513
0.0006307399961992622
0.0006309666566679487
0.0006322344283815278
0.0007262888809850893
0.0007331238452405993
0.0006409723833294311
0.0006320624381523875
0.0007260739408450143
0.0007331900090875284
0.0007319223126973143
0.001105841382975944
0.001135703515065901
0.001140105543331459
0.001105879182158143
0.001100070827237068
0.001134883691759041
0.001142141701761819
0.001140618794720477
0.001141013579209509
0.001140320087830245
0.001140886839918338
0.001140690384772121
0.001141067012851593
0.001140879822511793
0.001139657978821756
0.001139588188822681
0.001139488783408712
0.001105617040219396
0.00110007287915889
0.001135002912119607
0.001140167238472229
0.001141040205910808
0.00114043321117841
0.001139685305475542
0.001139930662576988
0.001140035201986811
0.001139549471301455
0.001140618137817043
0.001140561609250987
0.001139533625874657
0.001105619888003584
0.001099917398583403
0.001100931563033104
0.001098941608872242
0.001098670294397152
0.001098931514578743
0.001100025663882822
0.001135224826723344
0.001140095618029405
0.001105881657572929
0.001100074890147156
0.001135002817216734
0.001140165120455866
0.001139297429983745
0.001567141968914894
0.001574601060872229
0.001576103027872963
0.001567245447565802
0.001565251646967908
0.001574221344565708
0.001577197721092898
0.00157626445450124
0.001576491401460629
0.001576299718504713
0.001576623480025484
0.001576670995565645
0.001576287507994949
0.001576158302411375
0.001575799902739257
0.001575654459406207
0.00157574113050472
0.001567077484686728
0.00156525702857742
0.001574313770359365
0.001576114338101373
0.001576627119637044
0.001576366807921332
0.00157624230193427
0.001576440819674614
0.001575988720107813
0.001575753439158861
0.001575986620049936
0.001576338064087076
0.001576082686028626
0.00156718135197701
0.001565212891999251
0.001565532544554894
0.001564747664993269
0.001564930736467209
0.001564677966491329
0.001565062837337076
0.001574360374579559
0.001576101574207447
0.001567243597872658
0.001565253226416625
0.001574307969473549
0.00157611742661936
0.001575808295099676
0.002049102902542097
0.002050879161158981
0.002051372167707613
0.002049225399526536
0.002048513762967926
0.002050692092542638
0.002051854202679175
0.002051447440691191
0.002051408091399227
0.002051404208598892
0.002051532810946645
0.002051639842421427
0.002051423070900945
0.002051366741485779
0.002051232565686234
0.002051109192502023
0.002051114317188479
0.002049095983508113
0.002048499357269096
0.00205074967039971
0.002051357548143222
0.002051550066399978
0.002051506542966086
0.002051439159309179
0.002051559766022954
0.002051294057602845
0.002051171033457419
0.00205121268470897
0.002051456033763454
0.002051466493679461
0.002049229344429171
0.002048522113716901
0.00204859724194813
0.002048366492663147
0.002048463883414167
0.002048295540151051
0.002048305234025777
0.002050737500387075
0.002051355742426355
0.002049208933362809
0.002048505561952009
0.002050746219672657
0.002051366204508355
0.002051263354223328
0.002649295575995113
0.00264963915425
0.002649778035743236
0.002649386893764876
0.002649164016248264
0.002649565247927356
0.00264992971893146
0.002649828624510333
0.00264977968918745
0.002649780265447632
0.002649784431197139
0.002649844394165279
0.00264977710357268
0.002649740052199263
0.002649689417765808
0.002649703219293887
0.002649620359164838
0.00264927835868031
0.002649125528502194
0.002649575008923549
0.002649754037998054
0.002649792575002556
0.002649817390997375
0.002649766761742407
0.002649841480910115
0.002649735192414425
0.002649693856694305
0.002649693888106854
0.002649766408966521
0.00264984347602391
0.00264940535395383
0.002649181437937085
0.002649183666371109
0.00264912157837825
0.002649178005230986
0.002649106729886462
0.002648990777844243
0.002649561519467296
0.002649744376060958
0.00264935221072901
0.002649141077480642
0.002649577429292382
0.002649765021760054
0.002649736766761907
0.003415384015179905
0.003415439292748773
0.003415465624183634
0.003415430840871843
0.003415389743378105
0.00341543627117057
0.003415511799694277
0.003415492158479564
0.003415478466303561
0.003415488276779216
0.003415479331684394
0.003415488423514793
0.003415461422675107
0.003415450231746449
0.003415432300915635
0.003415439858134349
0.003415402808389899
0.003415361530898168
0.003415348773089249
0.003415412696245443
0.003415448547131872
0.003415454386389078
0.003415462906383242
0.003415461121875048
0.003415476962823178
0.003415464832528244
0.003415460019562363
0.003415446759388376
0.003415460334813809
0.003415512763074953
0.003415451251063831
0.003415407678511014
0.003415407451179767
0.0034153749751681
0.003415374194727659
0.003415360951910525
0.003415315851218341
0.003415407711103517
0.003415431084104222
0.003415388950615309
0.003415355187774513
0.003415413256366637
0.003415450848469284
0.003415451628162673
0.004240847870149187
0.004240863793332521
0.004240865623562861
0.004240872480384862
0.004240869811991279
0.004240881566633648
0.004240890207790876
0.004240889626547581
0.004240886504479967
0.004240897936581381
0.004240899613902173
0.004240902916106311
0.004240889570911769
0.004240885495949285
0.004240874818220336
0.004240874084345552
0.004240861272731948
0.004240852802215224
0.004240857984661869
0.004240864293171823
0.004240871005204881
0.004240873546691773
0.004240876897171019
0.004240878534624408
0.004240886696050622
0.00424088901787834
0.004240890278046387
0.004240887418917138
0.004240888761447311
0.004240908913387501
0.00424090688960568
0.004240903197725176
0.004240896969806716
0.004240887837972211
0.004240870892712179
0.004240862572243936
0.004240848821934377
0.00424085645230855
0.004240849956437541
0.004240845612204478
0.004240842903780323
0.004240850324770458
0.004240852037956241
0.004240859836189114
0.004958751211207268
0.004958755587401839
0.004958755518082501
0.004958762874600714
0.004958764195064834
0.004958768409701033
0.004958771612908165
0.004958775037361481
0.004958774181914693
0.004958780948248726
0.00495878508005087
0.004958792498810411
0.00495878957751318
0.004958789053455786
0.004958784181805956
0.004958780348029399
0.004958777659894406
0.004958773247893497
0.004958777788777766
0.004958777809565075
0.004958780440815492
0.004958782154560555
0.004958783038242723
0.004958783479105631
0.004958787095346301
0.004958789188501809
0.004958789130981211
0.004958789796599647
0.004958789302478622
0.004958797802282694
0.004958803281419177
0.004958804670407231
0.004958801569592742
0.004958797653894272
0.004958786622814274
0.004958774701068541
0.004958769457262585
0.004958766099791322
0.004958757449514188
0.004958752929879031
0.0049587501528627
0.004958750892415295
0.004958749094168858
0.004958753437436776
0.005483546793316985
0.005483548680293653
0.0054835480690177
0.005483552987678668
0.005483552878754132
0.005483555032346813
0.005483556326814732
0.005483559418271352
0.005483559340881259
0.005483563262398751
0.005483566037091787
0.005483573201587082
0.005483574061754324
0.005483576160082013
0.00548357492552298
0.005483573406254991
0.005483573409899942
0.00548357180891251
0.005483575716742529
0.005483574630649003
0.005483578078868396
0.00548357941592769
0.005483579662742735
0.005483579850770881
0.005483581029424265
0.005483581694914025
0.005483581024907963
0.005483582061261949
0.005483581370167938
0.005483584970046694
0.005483588928148962
0.005483590631472067
0.005483590326610481
0.005483587560694992
0.005483582850187949
0.005483571863494566
0.005483568955757161
0.005483564320415935
0.005483557251605329
0.005483553135250735
0.005483549428039967
0.00548354845691243
0.005483545811181916
0.005483548508413765
0.005817412421920768
0.00581741327587143
0.005817412746270102
0.005817415923917698
0.005817414413119716
0.005817415348205787
0.005817415848521344
0.005817417294810155
0.005817417369204368
0.005817419706734908
0.005817421322899596
0.005817425715257504
0.005817427055439448
0.005817430082170648
0.005817430349053253
0.005817430994352607
0.005817431578104818
0.005817431690735108
0.005817435478200274
0.005817433667148825
0.005817437567955041
0.005817439098184655
0.005817439556061786
0.005817440003608403
0.005817440440269179
0.005817440698844408
0.005817439950368308
0.005817440951437095
0.005817440348764823
0.005817441973749911
0.005817443948923022
0.005817444651300092
0.005817444901525621
0.005817442889646082
0.005817441068698638
0.005817433369489709
0.005817431788503874
0.005817427572649227
0.005817422487842182
0.005817419098446749
0.005817415936988862
0.005817414792077439
0.005817412511625589
0.005817414328716459
0.005991510905577401
0.005991511197936152
0.005991510891714452
0.005991513201099917
0.005991510892022239
0.0059915109502291
0.005991510976482315
0.00599151143035165
0.005991511425292167
0.005991512735172395
0.005991513561893412
0.005991515573578673
0.005991516321536907
0.005991518568117773
0.005991519353987802
0.005991521174913866
0.005991522070003681
0.005991522614003626
0.005991525665910291
0.005991523442617656
0.005991527452482635
0.005991528878750972
0.005991529693826203
0.005991530364976004
0.005991530854830527
0.005991531011702023
0.005991530785042907
0.005991531838869081
0.005991531486395793
0.005991532259228281
0.00599153278401194
0.00599153257687361
0.00599153250461057
0.005991530854107199
0.005991530075891449
0.005991524999422872
0.005991524300405445
0.005991521326654882
0.005991518099769715
0.005991515754290561
0.00599151354967771
0.005991512469333988
0.005991511302819791
0.00599151281075947
0.006037779135358245
0.006037779326975378
0.006037779047734507
0.006037781030040867
0.00603777841452429
0.006037778132413156
0.006037777751190893
0.006037777748853113
0.006037777734595087
0.006037778321225261
0.006037778637331524
0.006037779319209926
0.006037779456640789
0.006037780694942923
0.006037781384313542
0.006037783259636908
0.006037784299389645
0.006037784896364104
0.0060377871678338
0.006037784655969197
0.006037788505072024
0.006037789484822402
0.006037790407339102
0.006037791067599114
0.006037791611266996
0.006037792018255377
0.006037792037053289
0.006037793333763784
0.006037793215272607
0.006037793653269739
0.006037793492770528
0.006037792687975419
0.006037792256948724
0.006037790657072037
0.006037790136288803
0.006037786517912573
0.006037786273486992
0.006037784797136462
0.006037783040699398
0.006037781640290805
0.006037780402264371
0.006037779919312816
0.006037779449286892
0.006037780902968307
0.005986227121811201
0.005986227372956941
0.005986227146725431
0.005986229016309682
0.005986226279988811
0.005986225788462356
0.005986225426128072
0.005986225133252461
0.005986225177003386
0.005986225278168134
0.00598622524791363
0.005986225271071178
0.005986225033749129
0.005986225670735048
0.005986226138943895
0.005986227592809232
0.005986228622728403
0.005986229178973824
0.005986230704401568
0.005986227992565064
0.005986231598670276
0.005986232146110099
0.005986232923483244
0.005986233408220263
0.005986233862522318
0.005986234358103637
0.00598623461893005
0.005986236043021622
0.005986236167825803
0.005986236422952036
0.005986235993776051
0.005986234817234538
0.005986234026535396
0.00598623234410234
0.005986231791444565
0.005986229021663718
0.005986229117434079
0.005986228514414757
0.005986227847191386
0.005986227160355401
0.005986226970422629
0.005986226984556108
0.00598622706117208
0.005986228636199682
0.00586880144590148
0.005868801835289191
0.005868801667730931
0.005868803529142483
0.005868800894658897
0.005868800116992016
0.005868800111113938
0.005868799613547209
0.005868799672788476
0.005868799686807962
0.005868799222186204
0.005868799097803379
0.005868798497696795
0.005868798826337945
0.005868799331606121
0.005868800255874554
0.005868801151571782
0.005868801667051515
0.005868802636802768
0.005868799819334369
0.005868803170074818
0.00586880350839293
0.005868803937342955
0.005868804225562185
0.005868804554593419
0.005868805007239092
0.005868805418502628
0.005868806769232897
0.005868807038234494
0.005868807202915853
0.005868806513679214
0.005868805409554397
0.005868803982107135
0.005868802264922531
0.0058688015294162
0.005868799110224252
0.005868799445727063
0.005868799209047443
0.005868799332472128
0.005868799371392216
0.005868799915369577
0.005868800506925649
0.005868800828722357
0.005868802749364191
0.00572688234079335
0.005726883066002252
0.005726882783510455
0.005726884606053407
0.005726882602925721
0.005726881114794437
0.005726881735233812
0.005726880970890667
0.005726880975611939
0.005726881268297599
0.005726879886763794
0.005726880543250526
0.005726879014040964
0.005726879064724783
0.005726880351357883
0.005726880122288047
0.005726881576160301
0.005726881914620919
0.005726882591117766
0.005726879696854593
0.005726882577094566
0.005726883049194251
0.005726882939636193
0.005726883356549453
0.005726883322376143
0.005726883664412271
0.005726884553748895
0.005726885567023655
0.005726885906266442
0.005726886221238448
0.005726884865591737
0.005726884209908206
0.005726881784230671
0.005726880111875159
0.005726879008631477
0.005726876642931587
0.005726877561406845
0.005726877471344029
0.005726878018694266
0.005726878554546242
0.005726879795523763
0.005726880594532663
0.005726881108057589
0.005726883665218931
0.005727010268013292
0.005727009706813914
0.005727008864547412
0.005727010767683109
0.005727007469934059
0.00572700775628661
0.00572700587654844
0.005727005420135416
0.005727004983336672
0.005727003353448716
0.005727004567738054
0.005727002979330591
0.005727004015515787
0.005727004293019191
0.005727003307722335
0.005727004510883445
0.005727003824371041
0.005727003963093973
0.005727004275393021
0.005727001712790803
0.005727004810040059
0.005727005006895646
0.005727006122366459
0.005727005695508817
0.005727006177596079
0.005727006004400393
0.005727005476815714
0.005727006412133593
0.005727006050214888
0.00572700628375026
0.005727007724727941
0.005727007918814754
0.005727009549145528
0.00572700995831459
0.005727010812770795
0.005727010657894708
0.005727011107591041
0.005727011802436977
0.005727011557033271
0.005727011505002749
0.005727010987182205
0.005727011026720341
0.00572701056578257
0.005727011662506067
0.005868955562538986
0.005868955665234067
0.005868955104168749
0.005868956883070276
0.005868953957425795
0.005868953926287601
0.005868952731246842
0.005868951790424038
0.005868950894427722
0.005868949938823992
0.005868950029506824
0.005868949411267485
0.005868949146418529
0.005868949261126764
0.005868949194291056
0.005868949519805585
0.005868949416384937
0.005868949527313961
0.005868949613733504
0.005868946943562557
0.005868950088861178
0.005868950122848966
0.005868950841183647
0.005868950521858914
0.005868950863573875
0.005868950554997799
0.005868950265079488
0.005868950572310249
0.005868950342070102
0.0058689505589772
0.005868951328149452
0.005868951823811871
0.005868952870201366
0.005868953395504637
0.005868954259021517
0.00586895417960643
0.005868955193197803
0.005868955846089317
0.005868956069653024
0.00586895623218366
0.005868956188693579
0.005868956164241755
0.005868956111728651
0.005868957297654039
0.005986392403287561
0.005986392753164727
0.005986392240203813
0.005986394151119797
0.00598639116904568
0.005986391050741157
0.005986390180936658
0.005986389108937503
0.005986388200795461
0.005986387283898538
0.005986387249184276
0.005986386517715544
0.005986385967649201
0.005986386173153967
0.005986386051221138
0.005986386443239343
0.005986386421444828
0.005986386552536855
0.005986386632487612
0.005986383801270321
0.005986387037298274
0.005986386915988711
0.005986387504443251
0.005986387108529076
0.005986387377147388
0.005986386898515374
0.005986386707008673
0.005986386854252319
0.005986386638520233
0.005986386784361356
0.005986387050424698
0.005986387478895448
0.005986388132948861
0.00598638861941437
0.005986389373962745
0.005986389204200769
0.005986390350237651
0.00598639125899977
0.005986391666461257
0.005986392203504167
0.005986392496071481
0.00598639257055379
0.005986392769972862
0.005986394075227592
0.006037947127348712
0.0060379476531537
0.006037946943063601
0.006037949020410648
0.006037945916944521
0.00603794569257926
0.006037944983408116
0.006037943875269353
0.006037943107101417
0.006037942162963555
0.006037942114548624
0.006037941178285388
0.006037940764819898
0.006037941052917982
0.006037940903247379
0.006037941407858694
0.006037941287230062
0.006037941388372457
0.006037941389280532
0.006037938404907318
0.006037941725372046
0.006037941584816408
0.006037942156479723
0.006037941603155264
0.006037941900448836
0.006037941204021685
0.006037940947779739
0.006037941024214813
0.006037940898731209
0.006037941004362442
0.006037940850066656
0.006037941290123306
0.006037941710257014
0.006037942076716594
0.006037942656927913
0.006037942640502452
0.006037943609649642
0.006037944835585458
0.006037945330791709
0.00603794611848166
0.006037946683254029
0.006037947011647614
0.006037947249410454
0.006037948689731358
0.005991676366467405
0.005991676896312737
0.005991675769235565
0.005991678030638954
0.005991674794083543
0.005991674307064923
0.005991673720056928
0.005991672805547976
0.005991672232535813
0.005991671304474109
0.005991671221733754
0.005991670152812412
0.005991670243694911
0.005991670620414787
0.005991670361236822
0.005991670974690024
0.005991670464645237
0.005991670589146616
0.005991670475076006
0.005991667007097087
0.005991670346111427
0.005991670320764308
0.00599167095820059
0.005991670222456553
0.005991670505894443
0.005991669682152222
0.005991669309492455
0.00599166954948404
0.005991669766134201
0.00599166986172079
0.005991669464659192
0.005991669950612054
0.005991670312335752
0.005991670623160858
0.005991671101425552
0.005991670869417534
0.005991671602793144
0.005991673257759293
0.005991673808593064
0.005991674762500949
0.0059916754242581
0.005991675945661691
0.005991676158243377
0.005991677650216656
0.005817571896009411
0.005817571961514436
0.005817570293305849
0.005817572900697895
0.005817569464577265
0.005817568408993025
0.005817568243428479
0.005817568027088557
0.005817567565986638
0.005817566656022931
0.00581756649352569
0.005817565067859889
0.005817566375932526
0.005817566641383051
0.005817566195935593
0.005817566897477795
0.005817565779030621
0.005817565622918588
0.005817565102222691
0.005817560683230725
0.005817563940566423
0.005817564554239566
0.005817565408855503
0.005817564414015162
0.005817564786489956
0.005817563976636905
0.005817563581360224
0.005817564454377272
0.00581756534975787
0.00581756548769076
0.005817564714499152
0.005817565607526724
0.005817565984319101
0.005817566082730772
0.005817566162934336
0.005817565774989714
0.005817565945295462
0.005817568126202505
0.005817568970221822
0.005817569704483009
0.005817570338096486
0.005817570945685845
0.005817570915729205
0.005817572568404024
0.005483695679930195
0.005483695257013554
0.005483693515432531
0.005483696796499155
0.005483692762660647
0.005483691118319412
0.005483691708336315
0.005483692709880967
0.005483692144979206
0.005483691606308336
0.00548369121990078
0.00548368960117857
0.005483691632046834
0.005483691690820006
0.005483691183664265
0.005483691680211043
0.005483689719911653
0.005483688925341168
0.00548368756311516
0.005483681777343655
0.005483684946572071
0.005483686968105419
0.005483688438825456
0.005483687224540139
0.00548368787422412
0.00548368736961339
0.005483687117767804
0.005483689084448256
0.005483691176389899
0.005483691215353094
0.005483689753261813
0.005483690673748543
0.005483691278376094
0.005483691141040804
0.005483690769591516
0.005483689705840487
0.005483689189649953
0.005483692359689433
0.005483693580190152
0.00548369344673451
0.00548369410749658
0.005483694577746121
0.005483693665811537
0.005483695723245215
0.004958883651334707
0.004958882056589511
0.004958880074268842
0.004958885261501769
0.004958879695113016
0.004958877943628706
0.004958879800535327
0.004958883929492252
0.004958881908108473
0.004958881915328998
0.004958880975377628
0.004958879478684418
0.004958882347801342
0.004958881242315924
0.004958880471235271
0.0049588801715634
0.004958876478507325
0.004958874562535065
0.004958872014324074
0.004958866568940904
0.004958870066809617
0.004958874418159181
0.004958876462943165
0.004958875102514726
0.004958875969829065
0.00495887650926064
0.004958876759559249
0.004958880028299857
0.004958884796463094
0.004958883259034167
0.004958879324499045
0.004958880649637391
0.004958881016943481
0.004958880233544105
0.004958878935319664
0.004958876394055962
0.004958875378748532
0.004958881348037305
0.004958881588752856
0.00495888093071624
0.004958881807390308
0.004958881548521058
0.004958879427249252
0.004958882108947893
0.004240959683954896
0.004240955883705658
0.004240954194246587
0.004240961777690791
0.004240954281169319
0.004240953321745971
0.004240960782584824
0.004240965899669951
0.004240958311707806
0.004240960168881486
0.004240958613006401
0.004240959152010762
0.004240960249790907
0.004240956349537453
0.004240953800305683
0.004240951138005086
0.004240948787978632
0.004240944543135668
0.004240943796042661
0.004240943432131262
0.004240948400015809
0.004240954132746494
0.004240955374692752
0.004240953937203904
0.004240955318234747
0.00424095773689189
0.004240958681495911
0.004240961762285659
0.0042409673718904
0.004240961100982477
0.004240953049442347
0.004240956558307132
0.004240955376716265
0.004240954841593592
0.004240951189675326
0.004240946851131802
0.004240946258681297
0.004240955088730273
0.004240955174612225
0.004240954246188538
0.004240956373572987
0.004240955154977021
0.004240953267694642
0.004240955162397355
0.003415500043368892
0.003415488836613031
0.003415482680515571
0.0034154794226327
0.00341546203366808
0.003415460266149019
0.003415479470964797
0.003415480379513767
0.003415459667557852
0.003415463625506119
0.003415470309472912
0.003415471116718148
0.003415459050295739
0.003415482207685954
0.003415467714509971
0.003415468664161763
0.003415474494915387
0.003415448477707552
0.003415460021794405
0.003415465313197791
0.003415472963113888
0.003415473553261196
0.003415473879818672
0.0034154739027268
0.003415474542097068
0.003415479944719545
0.003415475281468364
0.003415469517682268
0.003415499142770384
0.003415487960862591
0.003415475954609094
0.003415487933052401
0.003415481027697456
0.003415484437588102
0.003415476819405829
0.003415473314273492
0.003415471997880897
0.003415478535052003
0.003415461448320439
0.003415460462088596
0.003415464073731089
0.00341546696128728
0.003415462268404804
0.003415458224285005
0.002649534119181873
0.002649539267553942
0.002649547953843662
0.002649526953517742
0.002649459734992152
0.002649455572359791
0.002649465210610832
0.002649464648679204
0.002649435258404169
0.002649437850926139
0.002649448044231927
0.002649454511153792
0.002649416359749661
0.002649523928918796
0.002649505796649138
0.002649517635189768
0.002649555047603466
0.002649486394389575
0.002649477346634085
0.002649462159591851
0.002649470373702745
0.002649459251135953
0.002649472434197953
0.002649467696533753
0.002649486295567123
0.002649475969234082
0.002649461932861591
0.002649428491834848
0.002649532325414625
0.002649535841345496
0.002649535960374436
0.002649568332202923
0.002649546524502919
0.002649552904890627
0.002649542481296016
0.00264954948745838
0.002649537154968777
0.002649539581249982
0.002649503878248263
0.002649463856294399
0.002649448250585276
0.002649467359997546
0.00264945184096068
0.002649426813731634
0.002049530537628403
0.002049337492526948
0.002049408272721973
0.002050346239576663
0.002050487708181502
0.002050443934672976
0.002050403157500213
0.002050616924409222
0.002050522535193804
0.002050408709297628
0.002050447373548935
0.002050408680308047
0.002050416358844264
0.00204961026605798
0.002049156776821454
0.002049250982832633
0.002049433787551569
0.002050308761963501
0.002050628430168987
0.002050576275152041
0.002050462539846087
0.002050477033413165
0.00205054301446618
0.002050550378288042
0.002050598676864487
0.002050589179143336
0.002050498017420266
0.002050442716302457
0.002049613130600618
0.002049358806062735
0.002049426755482571
0.002049514875760178
0.002049473374119501
0.002049502401035102
0.002049481335852268
0.00204945503096719
0.002049331306508675
0.002049400143691225
0.002050318967107046
0.002050520478869773
0.002050472083710254
0.002050557347071947
0.002050495858086914
0.002050421450584939
0.001571387174083054
0.001570616208501262
0.001570515001088109
0.001570790870136082
0.001570915318810795
0.001571070922108318
0.001571056590170044
0.001570923418205114
0.00157107571557183
0.001571053677991865
0.001571078259356565
0.001571084192234911
0.001571085392602907
0.001571057760099152
0.001570647562734795
0.001570690082717511
0.001570569668122414
0.001570766752756804
0.001570970469756591
0.001570928467131688
0.001571040164709505
0.001571052847736381
0.00157099065448152
0.001571094389230928
0.001571069013883423
0.001570828808159746
0.001570854264434693
0.001571045111468987
0.00157102432569367
0.001570633892565388
0.00157050958495508
0.001570541058292733
0.001570543314155879
0.001570532552129764
0.001570545838820145
0.001570721796469025
0.001570566713433226
0.001570542496553307
0.001570790419364999
0.001570934244380802
0.001571102209919667
0.001570990529302067
0.001570840613344063
0.00157101372772253
0.001137685141437085
0.001137552740995022
0.001136668630318945
0.001106370087292486
0.00110274663537978
0.001103643404584701
0.001103325947454204
0.001102830134587909
0.001103352239021102
0.001103280786590091
0.001102840286958434
0.001102773136889314
0.001103425694793799
0.001134369066749496
0.001137837364652264
0.001139032422314396
0.001137521264371573
0.001106438948183881
0.001102763342265606
0.001101792555598078
0.001103019979042619
0.00110365768210975
0.001102901650627815
0.00110274579095754
0.001103128420178144
0.001101974318697205
0.001101404523309887
0.001103105908281942
0.001134340401144518
0.001137420292634819
0.001136614891346285
0.001136558535260324
0.001136602192053863
0.00113657136928464
0.001136598687915092
0.001137989902878168
0.001137429248255813
0.00113682613689187
0.001106366252524814
0.001102749236375176
0.001103678736778065
0.001102897403339658
0.001101601525003643
0.001103052130440967
0.0007289288572060393
0.0007349249639693624
0.0007334894586299175
0.0006395039347862794
0.000630443850389205
0.000631761054766362
0.0006315751713959911
0.0006310101752157717
0.0006313608970397714
0.0006311201368844855
0.00063009515070096
0.0006293391401551933
0.0006307073259949757
0.0007268994255907208
0.0007351045303098755
0.000735874733752386
0.0007349711081669727
0.0006397240889446345
0.0006304586509224962
0.0006303084505785737
0.000630814870160137
0.0006317881687455335
0.0006310637450634508
0.0006300586711217412
0.0006307329871774811
0.0006310778811559085
0.0006305528850703411
0.0006312903364405205
0.0007269629054441915
0.0007348166903689324
0.0007334637876776218
0.0007333987981478239
0.0007334288720064941
0.0007334069692043615
0.0007334288726308754
0.0007346588818699409
0.0007344609371300637
0.0007335701594490357
0.0006396109808241845
0.0006304462267905683
0.0006317710483671358
0.0006310720743957376
0.0006302300314554837
0.0006311138278377786
0.0005085044316437644
0.0005090671357660956
0.0005089431558863327
0.0005010951233417402
0.0005003428083922883
0.000500460429303899
0.0005004339131153288
0.0005003589989715764
0.0005004084297719382
0.0005003587500609133
0.0005003172929233422
0.0005002939360674275
0.0005003790397635259
0.0005083196886087168
0.0005091250097284732
0.0005091322874494242
0.0005090420188156773
0.0005011125463585099
0.000500339797848017
0.0005003836437340469
0.0005004119076551539
0.0005004602530992368