/*--------------------------------*- C++ -*----------------------------------*\
| =========                 |                                                 |
| \\      /  F ield         | OpenFOAM: The Open Source CFD Toolbox           |
|  \\    /   O peration     | Version:  v1812                                 |
|   \\  /    A nd           | Web:      www.OpenFOAM.com                      |
|    \\/     M anipulation  |                                                 |
\*---------------------------------------------------------------------------*/
FoamFile
{
    version     2.0;
    format      ascii;
    class       volScalarField;
    location    "3000";
    object      p;
}
// * * * * * * * * * * * * * * * * * * * * * * * * * * * * * * * * * * * * * //

dimensions      [0 2 -2 0 0 0 0];


internalField   nonuniform List<scalar> 
1408
(
-1.400838073021082e-07
-8.879974210065294e-08
-3.371635259365814e-06
-3.742871499902425e-06
5.717053806010393e-07
1.326787458509831e-06
8.994363068198326e-07
-7.681357007694896e-07
-2.681043850188809e-06
-2.866905130526997e-06
-2.360995673611709e-06
-1.801774085049848e-06
-1.344352671261197e-06
-1.093459845012183e-06
-3.79460357610089e-07
-3.851075408351619e-06
-7.043563433035481e-06
-4.343439186439662e-06
4.660718274565756e-07
2.554108987449499e-06
-5.868043852134372e-07
-6.081179820952126e-07
-2.373458995832795e-07
-6.026198727066748e-07
-7.562757198859479e-07
-5.93383882563118e-07
-3.349217737634553e-06
-3.484236597331536e-06
-2.516200551454126e-06
-4.68180297367436e-06
-3.821127222150085e-06
-3.097178224166146e-06
-3.075517153369158e-06
-2.252425518377662e-06
-4.502627053189967e-07
-3.382419014539461e-06
-3.189383076019433e-06
1.639782020608411e-06
-1.481904725905412e-06
-2.479236575606096e-06
4.5780673421325e-07
2.340843095966547e-06
-7.000657586219187e-08
-3.134099186166356e-06
-1.601000636088578e-07
-3.18331711108396e-07
-3.206039955826741e-06
-3.485307069205974e-06
4.198720480836503e-07
1.09108359063652e-06
8.338807900146962e-07
-7.894601432443023e-07
-2.656341564253179e-06
-2.862323399245201e-06
-2.408424510496175e-06
-1.822734163354838e-06
-1.321707229461881e-06
-1.090372111727965e-06
-3.638620977389226e-07
-3.817576333262346e-06
-6.824578430832517e-06
-4.10408758466762e-06
2.951467498292182e-07
2.296620790526566e-06
-6.441967409659616e-07
-6.183591857782837e-07
-2.512699403841369e-07
-6.020734194244442e-07
-7.766565585456914e-07
-5.965045053649929e-07
-3.277846142481944e-06
-3.464125128233678e-06
-2.565446914369657e-06
-4.48499831786709e-06
-3.572345122220732e-06
-3.067362454848146e-06
-3.057687931829964e-06
-2.237231918240387e-06
-4.573778644870932e-07
-3.370064839499703e-06
-3.370155485394136e-06
1.3722473393316e-06
-1.335459953333734e-06
-2.229112470180262e-06
3.053523343577191e-07
2.092659213107172e-06
-1.331870382122474e-07
-2.912654558975303e-06
-4.1918303330316e-08
-7.799906800111315e-07
-2.925690363237741e-06
-2.969812145121903e-06
1.617772046306476e-07
6.516148610190483e-07
6.368259240394781e-07
-8.89790572693421e-07
-2.610025330778855e-06
-2.840413039718109e-06
-2.479972330176119e-06
-1.834651615381499e-06
-1.268007752678763e-06
-1.112350135473768e-06
-3.972119426566507e-07
-3.764581459474467e-06
-6.334521996082001e-06
-3.589665709204207e-06
1.063806837246747e-08
1.791001114330073e-06
-7.95805876858239e-07
-6.22597788775872e-07
-2.968450050681623e-07
-5.991953242333026e-07
-8.328066404392184e-07
-6.623702736270711e-07
-3.140914082852326e-06
-3.374224712869023e-06
-2.631061910543476e-06
-4.101077721119171e-06
-3.092453952811686e-06
-3.021798584181812e-06
-3.011484001161438e-06
-2.191297846037558e-06
-5.385167357084036e-07
-3.374907317969653e-06
-3.628451929447697e-06
8.651524347187827e-07
-1.088451090353925e-06
-1.729007400462379e-06
4.62920088875026e-08
1.606644458235496e-06
-3.078452068761782e-07
-2.478148434031575e-06
8.382778978935175e-08
-1.186657976581647e-06
-2.69927788492458e-06
-2.477348924833857e-06
-3.777315614128966e-08
2.527751443408905e-07
3.840516249849516e-07
-1.039890167223418e-06
-2.517329757527918e-06
-2.807186876949023e-06
-2.586346634779688e-06
-1.881865316497378e-06
-1.202891999938564e-06
-1.117728682913436e-06
-4.90720942383006e-07
-3.687972941732731e-06
-5.805420391380828e-06
-3.069069002681002e-06
-2.150776091426036e-07
1.278539174074532e-06
-9.549882446153282e-07
-6.185011927772948e-07
-3.762311155114103e-07
-5.830495306914202e-07
-9.185059950347864e-07
-7.921818286821157e-07
-2.986475966932325e-06
-3.225746998079734e-06
-2.622202083071613e-06
-3.758698440272659e-06
-2.66992652596039e-06
-2.961528595852695e-06
-2.962672592001977e-06
-2.142747344480907e-06
-6.952131526070084e-07
-3.389773644232654e-06
-3.778067630519101e-06
3.996433050470639e-07
-9.038684619150918e-07
-1.263976933501509e-06
-1.525674134971629e-07
1.135913298803321e-06
-4.898782290366025e-07
-2.087326219902584e-06
1.397106381329929e-07
-1.387599726385148e-06
-2.571173640091505e-06
-2.174718800673852e-06
-1.378434783571634e-07
2.102994016769142e-08
1.840814285905408e-07
-1.177439296969283e-06
-2.402381909957151e-06
-2.752456932174099e-06
-2.689901609089804e-06
-1.996787084709917e-06
-1.184868106976157e-06
-1.092908012252693e-06
-5.838142978881254e-07
-3.598157728766368e-06
-5.413828942429852e-06
-2.715860842281119e-06
-3.364668449910383e-07
9.249829907020143e-07
-1.069566284045383e-06
-6.138873677969407e-07
-4.629297861568608e-07
-5.556039537375221e-07
-9.817413896810494e-07
-9.357066964048162e-07
-2.886202810985255e-06
-3.073662324366803e-06
-2.509804547787906e-06
-3.561703602878632e-06
-2.454248024145575e-06
-2.916910824793247e-06
-2.939880175777245e-06
-2.129217930089067e-06
-8.524987008322913e-07
-3.376963255179176e-06
-3.804464391939294e-06
1.287269686762556e-07
-8.221887396633584e-07
-9.960282297959366e-07
-2.560609645130625e-07
8.334630456652099e-07
-5.928768871600352e-07
-1.875678434977519e-06
1.266514780899136e-07
-1.45734095609594e-06
-2.466792851674263e-06
-1.980350050235981e-06
-1.919179376677885e-07
-1.473471302193527e-07
1.703215804175362e-08
-1.274150750585979e-06
-2.301972746509751e-06
-2.670158318779707e-06
-2.738285351450511e-06
-2.128569782330882e-06
-1.225930975701045e-06
-1.113438603737583e-06
-6.736792480321516e-07
-3.459503349995345e-06
-5.091476477647159e-06
-2.46922980594736e-06
-4.219128451632508e-07
6.494757174161911e-07
-1.163957368189731e-06
-6.003662439156674e-07
-5.386918017878139e-07
-5.391667709318524e-07
-1.019546955812237e-06
-1.067675608126197e-06
-2.801035203204909e-06
-2.929806004066478e-06
-2.37428399863829e-06
-3.436933302232058e-06
-2.349329472452296e-06
-2.874253322069608e-06
-2.921597227254084e-06
-2.15754030483672e-06
-9.908661548347967e-07
-3.304539786624758e-06
-3.77936629275474e-06
-5.741704481968359e-08
-8.008134222374654e-07
-8.52548773939368e-07
-3.231207008719411e-07
6.134895914840799e-07
-6.317068202629662e-07
-1.757674351228828e-06
3.911902188150924e-08
-1.465947512120997e-06
-2.327936024708407e-06
-1.816992982371225e-06
-2.280050486942939e-07
-3.379022175582973e-07
-1.686031130850744e-07
-1.303682379532663e-06
-2.204734660308734e-06
-2.574113860950695e-06
-2.69131646542635e-06
-2.238688783360257e-06
-1.312447561171828e-06
-1.196787191543536e-06
-8.309052812858105e-07
-3.254292537887311e-06
-4.722028279920202e-06
-2.27213559423672e-06
-5.237927362558249e-07
3.624655981490537e-07
-1.261705495454016e-06
-5.728059732039107e-07
-5.9814078725139e-07
-5.545985907355699e-07
-1.055149473952963e-06
-1.172579577972338e-06
-2.68030923949652e-06
-2.812026827287539e-06
-2.278128094934244e-06
-3.326419199028675e-06
-2.276689484702758e-06
-2.790619547276925e-06
-2.870462128274158e-06
-2.220105479506365e-06
-1.160215958628338e-06
-3.126366081523282e-06
-3.694504139536505e-06
-2.737736288762406e-07
-8.283665739010197e-07
-7.813803960240031e-07
-3.964987126381922e-07
3.790154755827155e-07
-6.286345109184449e-07
-1.652232607391222e-06
-9.063969485988791e-08
-1.454743398316349e-06
-2.153971829133058e-06
-1.65732029039436e-06
-2.586447781615908e-07
-5.57973845865305e-07
-4.067919538015888e-07
-1.30571817742366e-06
-2.092297594213592e-06
-2.475772848065267e-06
-2.55257190726248e-06
-2.282845251568953e-06
-1.427758167057812e-06
-1.315082350351552e-06
-1.059171798704014e-06
-3.01905723087849e-06
-4.267920225920488e-06
-2.096159884773248e-06
-6.313063604205788e-07
4.402567866426939e-08
-1.395676681850081e-06
-5.445926375261332e-07
-6.58485355754186e-07
-6.159706967659134e-07
-1.09474011985056e-06
-1.243619247301519e-06
-2.532257442648503e-06
-2.718742421126549e-06
-2.210119321004803e-06
-3.214033781977732e-06
-2.208948296996391e-06
-2.641443275022505e-06
-2.753536107412651e-06
-2.278520173165973e-06
-1.378336976194232e-06
-2.870371259160004e-06
-3.548592583558492e-06
-5.404807614692846e-07
-8.914858466081258e-07
-7.629614826880078e-07
-4.92407817348635e-07
9.898743645176966e-08
-6.301602814327109e-07
-1.535319909398736e-06
-2.163744976380858e-07
-1.435461141286016e-06
-1.977614392270418e-06
-1.512685268851286e-06
-2.914067572537345e-07
-7.75796715631997e-07
-6.573459174391244e-07
-1.326707665686e-06
-1.985470626736821e-06
-2.380725826659418e-06
-2.385721035711e-06
-2.27036437889119e-06
-1.556478347450494e-06
-1.435402506605804e-06
-1.277973022605698e-06
-2.788783552497314e-06
-3.795256928388002e-06
-1.942241557854786e-06
-7.219962164754189e-07
-2.623399295062129e-07
-1.565090402632627e-06
-5.31881719938648e-07
-7.239408243200722e-07
-7.137451347520048e-07
-1.14133977925368e-06
-1.282136143120689e-06
-2.371687808943539e-06
-2.62809147180315e-06
-2.150985698394938e-06
-3.104626610594602e-06
-2.141217304446494e-06
-2.45422526410141e-06
-2.5961371593109e-06
-2.293474618919604e-06
-1.579870371485862e-06
-2.626969485526372e-06
-3.384909262979202e-06
-8.052352290770691e-07
-9.779917091462562e-07
-7.916755177482831e-07
-6.013916217254588e-07
-1.863637374429007e-07
-6.657316792088056e-07
-1.424187540474124e-06
-3.194746861605363e-07
-1.410965415635591e-06
-1.819290896252789e-06
-1.393611234714913e-06
-3.277637028547259e-07
-9.725419526238626e-07
-8.822398439954571e-07
-1.373707603982776e-06
-1.900404301030722e-06
-2.295736646068588e-06
-2.247194327966298e-06
-2.226246076169709e-06
-1.673778526568946e-06
-1.542089877947252e-06
-1.444871576796675e-06
-2.579249047866035e-06
-3.359690126606623e-06
-1.817014594006488e-06
-7.989889496668219e-07
-5.280633748939242e-07
-1.740960608448644e-06
-5.45426029920664e-07
-7.866260532285918e-07
-8.097744963280693e-07
-1.188304327291705e-06
-1.303966577388087e-06
-2.221153424872881e-06
-2.539900987573367e-06
-2.088374715077416e-06
-2.982580787487342e-06
-2.069413361048912e-06
-2.265130846058873e-06
-2.431896544844047e-06
-2.263860899383508e-06
-1.73672603757978e-06
-2.4439303153666e-06
-3.234806586717414e-06
-1.038487511053099e-06
-1.075824660560076e-06
-8.510959175741996e-07
-7.114539000859216e-07
-4.404222691238047e-07
-7.276922417743255e-07
-1.334626930401579e-06
-3.985534311700234e-07
-1.381840824226883e-06
-1.686085540620367e-06
-1.303822311476757e-06
-3.651907649201362e-07
-1.139455848920588e-06
-1.070291160556266e-06
-1.438133072620577e-06
-1.838838656336369e-06
-2.220645811472325e-06
-2.15046862492673e-06
-2.171247854686636e-06
-1.769803709866452e-06
-1.633224839354721e-06
-1.556968019582297e-06
-2.389967534938766e-06
-2.979587526795701e-06
-1.723717139867226e-06
-8.714682429590404e-07
-7.495389927546286e-07
-1.906507886058703e-06
-5.763241642255146e-07
-8.390184432513328e-07
-8.864937609796274e-07
-1.231413135652173e-06
-1.325532756321217e-06
-2.091771155023744e-06
-2.450443940484559e-06
-2.012461737611425e-06
-2.847762910285937e-06
-2.000788540101728e-06
-2.098303352147683e-06
-2.281548896577947e-06
-2.20734074032097e-06
-1.848696890922064e-06
-2.316043757035446e-06
-3.108477035155169e-06
-1.234742127379621e-06
-1.17511568044337e-06
-9.281728071207877e-07
-8.178050461987567e-07
-6.514784337481715e-07
-8.000305534082394e-07
-1.270493114474087e-06
-4.579928019168656e-07
-1.350173871572445e-06
-1.577674571492421e-06
-1.240369121592612e-06
-4.016617873179901e-07
-1.277577796491652e-06
-1.224447237794929e-06
-1.51004565494755e-06
-1.799399554950215e-06
-2.153953090015441e-06
-2.087415578971426e-06
-2.117271435374543e-06
-1.846677203896365e-06
-1.708459264291043e-06
-1.621717681838792e-06
-2.219260600917503e-06
-2.654258556319711e-06
-1.657734444168902e-06
-9.461712171715888e-07
-9.357050734461213e-07
-2.054945341512438e-06
-6.132651762080546e-07
-8.793562805578972e-07
-9.44226332302906e-07
-1.27065667228355e-06
-1.351504271399385e-06
-1.980809555383457e-06
-2.356240796448143e-06
-1.925674251896284e-06
-2.708593174793386e-06
-1.940002579619688e-06
-1.960820864377667e-06
-2.152085021665681e-06
-2.137082639015199e-06
-1.923154402245274e-06
-2.228380127762625e-06
-3.004361650895504e-06
-1.398130811657539e-06
-1.271973381694878e-06
-1.013844630671484e-06
-9.190740599730608e-07
-8.225703617147165e-07
-8.714029897743015e-07
-1.227923600824297e-06
-5.023279425891685e-07
-1.316656333626567e-06
-1.492281774469858e-06
-1.199197092579304e-06
-4.350282629371523e-07
-1.390589438417115e-06
-1.350621953281207e-06
-1.58302226190578e-06
-1.779290366141851e-06
-2.094549478448589e-06
-2.047137682477214e-06
-2.070071856114584e-06
-1.908933990084623e-06
-1.766046662836008e-06
-1.648009111889266e-06
-2.067466878525159e-06
-2.379613195349779e-06
-1.614390765213482e-06
-1.024212578339451e-06
-1.093910351935917e-06
-2.18493379097597e-06
-6.491072884684562e-07
-9.084361620833727e-07
-9.872465727472453e-07
-1.305401140207497e-06
-1.379602066660402e-06
-1.885772915890315e-06
-2.259925613534518e-06
-1.832402201843049e-06
-2.571780996863936e-06
-1.88935834661815e-06
-1.852492034067924e-06
-2.043808608439861e-06
-2.061666698364417e-06
-1.967940907940144e-06
-2.167597323897499e-06
-2.919279269975406e-06
-1.53497336994279e-06
-1.365100573477339e-06
-1.102310561603548e-06
-1.014678462764057e-06
-9.589180589863486e-07
-9.349833658589928e-07
-1.203082719387844e-06
-5.350872590185585e-07
-1.280954602552923e-06
-1.427122883966603e-06
-1.175052163796378e-06
-4.640818939285187e-07
-1.484521840563982e-06
-1.456145558865516e-06
-1.654325488287682e-06
-1.774649880965534e-06
-2.041686523660699e-06
-2.020732866531599e-06
-2.032601638610179e-06
-1.961765947575401e-06
-1.803356173144928e-06
-1.643558860393705e-06
-1.935030246527596e-06
-2.150069474415196e-06
-1.587908229723211e-06
-1.103687034571873e-06
-1.231376710948771e-06
-2.298077336362978e-06
-6.814159621828451e-07
-9.278862010744583e-07
-1.01842045032102e-06
-1.334831811505814e-06
-1.405761410482267e-06
-1.805577143016663e-06
-2.166967143398829e-06
-1.736387907577522e-06
-2.439462004211557e-06
-1.846414225236174e-06
-1.768589013982216e-06
-1.954482698263967e-06
-1.986954443586635e-06
-1.990852907091582e-06
-2.124511298280967e-06
-2.851190799835239e-06
-1.653257435486411e-06
-1.454798758328112e-06
-1.18853366679235e-06
-1.103908103059292e-06
-1.066002757534142e-06
-9.870296595243542e-07
-1.192786378888423e-06
-5.587079046432077e-07
-1.241408700353651e-06
-1.379568484145084e-06
-1.163579721445241e-06
-4.886409517662352e-07
-1.56464423547552e-06
-1.547421462055969e-06
-1.723501832495136e-06
-1.780508945208756e-06
-1.994889298635586e-06
-2.001927699863118e-06
-2.005793343959351e-06
-2.010480949470727e-06
-1.818547366653999e-06
-1.614736011655342e-06
-1.821616023016072e-06
-1.959727072589765e-06
-1.573071087597376e-06
-1.18123085059831e-06
-1.353447997414733e-06
-2.39730022847023e-06
-7.107543476431543e-07
-9.384833561029216e-07
-1.039030277912887e-06
-1.359409346476967e-06
-1.427240363470525e-06
-1.740245615693378e-06
-2.082600257100694e-06
-1.638284508332119e-06
-2.310366548174717e-06
-1.808092916037171e-06
-1.704948589667819e-06
-1.882299325972648e-06
-1.916838385661256e-06
-1.998638358458874e-06
-2.092253580322169e-06
-2.799140629432886e-06
-1.761045395002351e-06
-1.541352712993494e-06
-1.269024269417013e-06
-1.186863572956112e-06
-1.147791049370153e-06
-1.025117797474265e-06
-1.195436319864042e-06
-5.743795160028685e-07
-1.195328603918845e-06
-1.347373429357149e-06
-1.161310949387556e-06
-5.093633228931134e-07
-1.636487792305999e-06
-1.6308856062808e-06
-1.792078632605414e-06
-1.791799362484955e-06
-1.953776858446868e-06
-1.985927102417482e-06
-1.989933739303379e-06
-2.060174938075547e-06
-1.808876876813192e-06
-1.565912759708548e-06
-1.726363081536977e-06
-1.803171957933583e-06
-1.565663187706049e-06
-1.253602618701295e-06
-1.464536364407354e-06
-2.485862771273109e-06
-7.389149749593006e-07
-9.407998079450107e-07
-1.050154601170319e-06
-1.380733183439317e-06
-1.441533655757999e-06
-1.689071564034332e-06
-2.011181119529792e-06
-1.537589158233402e-06
-2.181192305982789e-06
-1.769860527649365e-06
-1.656778567460551e-06
-1.824704979961819e-06
-1.853249096912657e-06
-1.997455724233101e-06
-2.065792847040709e-06
-2.762730030341284e-06
-1.866652860259955e-06
-1.625823917626571e-06
-1.341537054794624e-06
-1.264073040501662e-06
-1.206810794497162e-06
-1.047896434320033e-06
-1.211047338581122e-06
-5.816178832152189e-07
-1.139252033630696e-06
-1.32932955378351e-06
-1.166246118725138e-06
-5.277191749369052e-07
-1.705472511974375e-06
-1.712443701639986e-06
-1.862612010204275e-06
-1.804072915501042e-06
-1.91783781856044e-06
-1.968960568120298e-06
-1.985403675572763e-06
-2.113885980500477e-06
-1.769815180362469e-06
-1.500734697620034e-06
-1.649089997197443e-06
-1.675933007870734e-06
-1.562839765910356e-06
-1.318135959869589e-06
-1.567964626052781e-06
-2.567034361905532e-06
-7.674350417941529e-07
-9.348051794485638e-07
-1.052939062919617e-06
-1.401180966548071e-06
-1.446567524394393e-06
-1.651273333905389e-06
-1.955878169493566e-06
-1.432547729256461e-06
-2.048032535626639e-06
-1.727158760774201e-06
-1.619949478350974e-06
-1.778914964723068e-06
-1.796468387254805e-06
-1.991626051424962e-06
-2.040580221745397e-06
-2.742883369844173e-06
-1.978621183222199e-06
-1.708992211856288e-06
-1.404852267685238e-06
-1.337174476954996e-06
-1.243988325277352e-06
-1.054969680875133e-06
-1.241251369977084e-06
-5.775247314419002e-07
-1.068460404527442e-06
-1.325549798390615e-06
-1.178092558734467e-06
-5.455437219833686e-07
-1.776658817754832e-06
-1.798112684475291e-06
-1.938274652884215e-06
-1.813988248236702e-06
-1.886020857747559e-06
-1.947299282673433e-06
-1.99307723000207e-06
-2.172452783628328e-06
-1.694838765777438e-06
-1.42299870624883e-06
-1.590379329227791e-06
-1.574101296104875e-06
-1.562977706759725e-06
-1.373239546108141e-06
-1.667104397211785e-06
-2.64491042638276e-06
-7.976888639608399e-07
-9.193459927172262e-07
-1.048616413246597e-06
-1.423032714184364e-06
-1.440195643700475e-06
-1.625993063944262e-06
-1.918175917861993e-06
-1.319739527581646e-06
-1.906786139975104e-06
-1.676173381144856e-06
-1.590837595894445e-06
-1.741304168625299e-06
-1.745312201225296e-06
-1.984069113525078e-06
-2.012649236274763e-06
-2.74185925497302e-06
-2.106463136517651e-06
-1.791911890286047e-06
-1.458845620512485e-06
-1.408236681937365e-06
-1.258668569331646e-06
-1.046957197962157e-06
-1.288529350600176e-06
-5.5663351654686e-07
-9.772454078223295e-07
-1.337661320990896e-06
-1.198038468482201e-06
-5.644681980203658e-07
-1.853654293076059e-06
-1.892634408494791e-06
-2.021362884395836e-06
-1.819047756060072e-06
-1.856048265967718e-06
-1.916823578764781e-06
-2.015184240932943e-06
-2.235122176350962e-06
-1.576987723672262e-06
-1.338922793295816e-06
-1.551534636806003e-06
-1.492574561853287e-06
-1.564190914768473e-06
-1.418285636249333e-06
-1.765993878307143e-06
-2.724252301963623e-06
-8.303976855358674e-07
-8.9153665242697e-07
-1.03839183000563e-06
-1.448367591365358e-06
-1.4206956592014e-06
-1.613960821203367e-06
-1.89882756933066e-06
-1.193839896269958e-06
-1.753254638452658e-06
-1.615277439765535e-06
-1.567989696768862e-06
-1.708661091949973e-06
-1.698129403544234e-06
-1.976067357998025e-06
-1.978034988290555e-06
-2.763789390816999e-06
-2.260459413817536e-06
-1.874089308853855e-06
-1.503699595692377e-06
-1.480052918781381e-06
-1.248954689293363e-06
-1.025608649747886e-06
-1.356331266327189e-06
-5.105892510747238e-07
-8.593723889901479e-07
-1.368622365240466e-06
-1.228231181136511e-06
-5.854965527654216e-07
-1.939079748353955e-06
-1.999829325682401e-06
-2.113620067799471e-06
-1.817992972985558e-06
-1.824653923424444e-06
-1.87256313243645e-06
-2.055794203721712e-06
-2.300245808643361e-06
-1.409013952828727e-06
-1.256637412052893e-06
-1.533639811276277e-06
-1.424380820916912e-06
-1.564127156825628e-06
-1.454274220000766e-06
-1.869553049417957e-06
-2.810361479174535e-06
-8.652576243285967e-07
-8.473062446774738e-07
-1.024112093897707e-06
-1.479211605063063e-06
-1.386074383645387e-06
-1.618280843175216e-06
-1.898342122807052e-06
-1.047632414766709e-06
-1.583610863523233e-06
-1.544808853065824e-06
-1.55168617580101e-06
-1.677482605634493e-06
-1.652820447529555e-06
-1.967208852932216e-06
-1.932801368931241e-06
-2.814918632399471e-06
-2.450887448636698e-06
-1.952898267080988e-06
-1.539342609379509e-06
-1.555802718035957e-06
-1.211316678070469e-06
-9.941835710136336e-07
-1.449442365667864e-06
-4.287894383260171e-07
-7.091390583814128e-07
-1.422872905951698e-06
-1.270300969737392e-06
-6.080524299669502e-07
-2.034123791927538e-06
-2.122658476990791e-06
-2.215847897302161e-06
-1.810961586602059e-06
-1.787779212989562e-06
-1.8098027367129e-06
-2.122157759857752e-06
-2.364669533159735e-06
-1.183962905097251e-06
-1.186684339536242e-06
-1.537423677772454e-06
-1.361260407302391e-06
-1.559749986437864e-06
-1.482967261529207e-06
-1.982929918490418e-06
-2.907993238520725e-06
-9.007804108741574e-07
-7.812122023542366e-07
-1.008435371058564e-06
-1.517172034324071e-06
-1.333659091935864e-06
-1.645239118137051e-06
-1.917581474084472e-06
-8.729585184048913e-07
-1.395235868471586e-06
-1.468023677541835e-06
-1.544764252089831e-06
-1.64504631214087e-06
-1.607595350194204e-06
-1.953776448662507e-06
-1.872325820342251e-06
-2.904593149755092e-06
-2.687572444482946e-06
-2.021837602336634e-06
-1.564799498833937e-06
-1.638639157092466e-06
-1.139948117023269e-06
-9.579898269581096e-07
-1.574420878886771e-06
-2.994443426439025e-07
-5.226419412213312e-07
-1.50604551170777e-06
-1.323349916196502e-06
-6.28536659620011e-07
-2.138815592657259e-06
-2.263310285012356e-06
-2.327999913372916e-06
-1.799282095747087e-06
-1.740654410441658e-06
-1.724625207616592e-06
-2.225727585553327e-06
-2.424333934575751e-06
-8.956913419588606e-07
-1.142342944485233e-06
-1.562993618410231e-06
-1.294373039759721e-06
-1.547027176130648e-06
-1.505233625196651e-06
-2.110473859130443e-06
-3.021294367954412e-06
-9.344259391624082e-07
-6.869842572490264e-07
-9.955929505855345e-07
-1.562930405953428e-06
-1.259827470242124e-06
-1.704481770767867e-06
-1.958100000359237e-06
-6.612201065856778e-07
-1.187399515403932e-06
-1.391414333307553e-06
-1.551810553159712e-06
-1.609802236255723e-06
-1.561340663725187e-06
-1.927776686964348e-06
-1.790288935084004e-06
-3.045559466373615e-06
-2.978946261342999e-06
-2.070147666799749e-06
-1.578863158421418e-06
-1.73053273491724e-06
-1.025906883576963e-06
-9.248633690111439e-07
-1.740370797417752e-06
-1.102185216911338e-07
-2.996224688095142e-07
-1.625845201566564e-06
-1.382603757948595e-06
-6.400064726453931e-07
-2.252088558926128e-06
-2.420825458661697e-06
-2.447964039672226e-06
-1.785047437749353e-06
-1.677270136386944e-06
-1.615805005040368e-06
-2.384619309736339e-06
-2.473460689937264e-06
-5.395236011397973e-07
-1.139792436599416e-06
-1.60830909768858e-06
-1.216440762051266e-06
-1.522514828205236e-06
-1.519620834986081e-06
-2.255203279643048e-06
-3.152143799368749e-06
-9.60895139188737e-07
-5.577197884334292e-07
-9.919124248244396e-07
-1.615544832634174e-06
-1.160355180530189e-06
-1.80960749874395e-06
-2.02244791365547e-06
-4.04472814934754e-07
-9.627575380466741e-07
-1.325230513662868e-06
-1.578226696397636e-06
-1.573549584358034e-06
-1.515660778166431e-06
-1.876966526714814e-06
-1.678927493258142e-06
-3.252246558239654e-06
-3.328002743063225e-06
-2.083089991960464e-06
-1.582089738775835e-06
-1.831065675280744e-06
-8.565098492316368e-07
-9.059844448305473e-07
-1.958385018270936e-06
1.547325739478653e-07
-4.396414701651088e-08
-1.791799911906109e-06
-1.443384621860894e-06
-6.371821031591536e-07
-2.373317376912041e-06
-2.589324345948545e-06
-2.572147978978942e-06
-1.771942471204229e-06
-1.588848292824265e-06
-1.483934779948858e-06
-2.621118302695739e-06
-2.501756154434889e-06
-1.122140122735391e-07
-1.192820359233364e-06
-1.664524776809632e-06
-1.125319271894657e-06
-1.489099905725296e-06
-1.52461925488174e-06
-2.418185357816456e-06
-3.301975295248501e-06
-9.743731496925081e-07
-3.894987790966679e-07
-1.006182465565777e-06
-1.67021941125101e-06
-1.032405290824433e-06
-1.975596886079531e-06
-2.109821765646642e-06
-9.353748432531916e-08
-7.267763076336453e-07
-1.280556436329155e-06
-1.623896255161213e-06
-1.539863755652249e-06
-1.474660011910184e-06
-1.78867053355258e-06
-1.535068551117013e-06
-3.536499616031722e-06
-3.725936874772463e-06
-2.048519930581349e-06
-1.583687677475493e-06
-1.937293429230209e-06
-6.19449725787173e-07
-9.171715293362934e-07
-2.2340750173212e-06
4.941674590250172e-07
2.252504760736613e-07
-2.00323026057848e-06
-1.495667334840122e-06
-6.222209197969573e-07
-2.501138956259991e-06
-2.751721762882477e-06
-2.69137094796529e-06
-1.766401068849808e-06
-1.469006054289635e-06
-1.330509552512978e-06
-2.941140888888453e-06
-2.500735672783813e-06
3.64882061906488e-07
-1.304668889406514e-06
-1.715237989879173e-06
-1.028413274596192e-06
-1.456268101262404e-06
-1.520669924277336e-06
-2.595184447562289e-06
-3.461572228791224e-06
-9.684030035400268e-07
-1.906124262062501e-07
-1.047044782160985e-06
-1.716416015683254e-06
-8.810534510920652e-07
-2.205942662642e-06
-2.211780232385543e-06
2.636782996272968e-07
-4.967050197387888e-07
-1.267097473131297e-06
-1.677011835813596e-06
-1.511455661375952e-06
-1.444132944141167e-06
-1.662118712462341e-06
-1.372226460524464e-06
-3.886671201859383e-06
-4.132525759491329e-06
-1.964021747924247e-06
-1.603513545009643e-06
-2.041212805809339e-06
-3.166696348497475e-07
-9.724020349342631e-07
-2.553724148072646e-06
8.69084082496642e-07
4.697783042084226e-07
-2.234648694461737e-06
-1.540270583439746e-06
-6.117876939167492e-07
-2.626482361319374e-06
-2.880819992713403e-06
-2.799496836634361e-06
-1.777476998487034e-06
-1.332199539179928e-06
-1.170406663624558e-06
-3.283502854715393e-06
-2.464301275929799e-06
8.279289229691021e-07
-1.430148661907886e-06
-1.736396756436635e-06
-9.528462713960709e-07
-1.45086763614683e-06
-1.524172778305086e-06
-2.772020242841336e-06
-3.614564512199966e-06
-9.42005738061789e-07
4.255059685663731e-09
-1.109003643206659e-06
-1.744318882589635e-06
-7.315850122696407e-07
-2.462415333938015e-06
-2.300493452015631e-06
6.415768071389026e-07
-2.974645811650366e-07
-1.288718845255916e-06
-1.712384955667137e-06
-1.484083239341937e-06
-1.421948096179581e-06
-1.530115425742634e-06
-1.237714105028013e-06
-4.236738157666126e-06
-4.472177338848839e-06
-1.864234579297884e-06
-1.661198032161799e-06
-2.133131026986609e-06
-3.498541247487357e-10
-1.064917182908104e-06
-2.854743819831495e-06
1.183058858271628e-06
6.453490556677461e-07
-2.431471857089668e-06
-1.57259447743641e-06
-6.168836139155799e-07
-2.71867579768063e-06
-2.949064450393795e-06
-2.881230683391524e-06
-1.803471424732788e-06
-1.224349063848035e-06
-1.046761517673474e-06
-3.543895955222683e-06
-2.404824478332571e-06
1.170970250946901e-06
-1.536521520788499e-06
-1.730966361902028e-06
-9.087120191423784e-07
-1.469839200642974e-06
-1.526408872909612e-06
-2.90578070575544e-06
-3.735356772017701e-06
-9.17858111873308e-07
1.462822800129571e-07
-1.168534717947272e-06
-1.743292093561046e-06
-6.126471173249553e-07
-2.671036342039554e-06
-2.367818304343667e-06
9.452274831528709e-07
-1.525740592622453e-07
-1.332188274296264e-06
-1.71661563026764e-06
-1.451069330073177e-06
-1.4008282740711e-06
-1.439947545297522e-06
-1.171878210296429e-06
-4.493249572909033e-06
-4.684305237234225e-06
-1.79419449146845e-06
-1.736800764422967e-06
-2.194301811442397e-06
2.503680096045575e-07
-1.153280909138932e-06
-3.077724123028183e-06
1.389832984737645e-06
7.73765483163364e-07
-2.574779338508977e-06
-1.607867363262339e-06
-6.561324032597834e-07
-2.765439707307394e-06
-2.964611001888213e-06
-2.96918588532252e-06
-1.822836351911735e-06
-1.143424689837045e-06
-9.666031193768223e-07
-3.676742090106382e-06
-2.348315582398325e-06
1.42635817140591e-06
-1.575800948244169e-06
-1.771125891443507e-06
-9.170977265064265e-07
-1.532152030733179e-06
-1.571481354016673e-06
-2.953162839682456e-06
-3.780107729322974e-06
-9.135265188301738e-07
2.136361160248733e-07
-1.220790551994185e-06
-1.736804492991938e-06
-5.156099061904426e-07
-2.77128377926408e-06
-2.389925235823392e-06
1.161777781905023e-06
-6.983021187915345e-08
-1.391285762146003e-06
-1.697409562023531e-06
-1.414704072854575e-06
-1.382677454833121e-06
-1.407360553279326e-06
-1.166191028913979e-06
-4.621854581777715e-06
-4.793613157914669e-06
-1.777961269318325e-06
-1.813991387836266e-06
-2.239908669538195e-06
4.109775782603399e-07
-1.187376758032893e-06
-3.218886299042524e-06
1.592393873090181e-06
8.885233489458495e-07
-2.734562237767764e-06
-1.694994684386306e-06
-7.054563312008145e-07
-2.778450358562869e-06
-2.962665739980768e-06
-3.073520491194013e-06
-1.832209419610191e-06
-1.047832369984701e-06
-9.1768871113826e-07
-3.781138979036789e-06
-2.276148701892659e-06
1.657798614720288e-06
-1.567412713112137e-06
-1.790373176370331e-06
-9.851131955990988e-07
-1.628279465501991e-06
-1.610787001648544e-06
-2.988270675045876e-06
-3.800862741874636e-06
-9.188930130088519e-07
2.558105935331013e-07
-1.263189483979065e-06
-1.734524630254809e-06
-4.371232653251049e-07
-2.84156772039979e-06
-2.379406630350529e-06
1.37323850060827e-06
1.434846639878593e-08
-1.463587669724702e-06
-1.675393978607986e-06
-1.359350699328697e-06
-1.376121308296344e-06
-1.409316104916214e-06
-1.18164967437356e-06
-4.676796241382437e-06
-4.907630091035903e-06
-1.832875858863127e-06
-1.872215642616464e-06
-2.278522118964965e-06
5.281527355283347e-07
-1.196849497863634e-06
-3.285369877179462e-06