/*--------------------------------*- C++ -*----------------------------------*\
| =========                 |                                                 |
| \\      /  F ield         | OpenFOAM: The Open Source CFD Toolbox           |
|  \\    /   O peration     | Version:  v1812                                 |
|   \\  /    A nd           | Web:      www.OpenFOAM.com                      |
|    \\/     M anipulation  |                                                 |
\*---------------------------------------------------------------------------*/
FoamFile
{
    version     2.0;
    format      ascii;
    class       surfaceScalarField;
    location    "3000";
    object      phi;
}
// * * * * * * * * * * * * * * * * * * * * * * * * * * * * * * * * * * * * * //

dimensions      [0 3 -1 0 0 0 0];
oriented        oriented;


internalField   nonuniform List<scalar> 
2740
(
0.000188386621748821
5.156336555515659e-08
0.0001881946475837305
1.733507242982428e-07
0.0001883347931835866
-1.393152119814082e-07
0.0001885467922003835
-1.952308342182467e-07
0.0001884141480462466
1.382423791804498e-07
0.000188209687750194
1.819008645465521e-07
0.0001881521707732568
4.400726575799657e-08
0.000188138021206747
1.60514928110178e-08
0.0001881404560760614
-2.767743707661203e-09
0.0001881316714025576
7.926208423937558e-09
0.0001881211617844419
8.154416636564227e-09
0.0001881299124085878
-8.911680458508981e-09
0.0001881374853630344
-8.346538252854634e-09
0.0001881454154962615
-5.702029295887989e-09
0.0001881415424040408
5.244091241811004e-09
0.0001881258778494875
2.14038696368117e-08
0.0001883154087249532
-1.789075823105409e-07
0.0001885381693774997
-2.062917181706329e-07
0.0001884127077395419
1.292941403619334e-07
0.0001882079044132641
1.833292123075752e-07
0.0001881527821961596
3.952582458699572e-08
0.0001881504424179164
1.63972772668394e-09
0.0001881422252489523
6.430501909153512e-09
0.0001881400889135756
1.878445551265849e-09
0.0001881457457558948
-8.526668901889379e-09
0.0001881475043614976
1.862255956151314e-09
0.0001881484617675093
1.861920755093207e-09
0.0001881459877264894
5.855502249378924e-10
0.0001881356455268791
7.223020176020095e-09
0.0001883270032473199
-1.687973606911595e-07
0.0001885475972055827
-1.974716367684576e-07
0.0001885730974385676
-2.022082044039584e-08
0.0001885825778129491
-1.318678117005419e-09
0.000188598852548495
-1.641572184860322e-08
0.0001885960457586238
4.441936373644632e-09
0.0001885654594024045
2.402803940916142e-08
0.0001883963611995905
1.562144360567759e-07
0.000188196337070474
1.813936124849725e-07
0.0001883369103427224
-1.45465217407486e-07
0.0001885499731326082
-1.951455403295431e-07
0.0001884163459368898
1.377362458430452e-07
0.0001882078598880184
1.873999068024224e-07
0.0001881514043177485
4.070632283050076e-08
-1.665104799217858e-07
0.0005494116943272378
-2.37915220472864e-08
0.0005492529640895043
2.972197755469379e-07
0.0005493288422837192
-2.040508768135416e-07
0.0005495206012305235
-3.464187481879363e-07
0.0005494512672151364
2.052647099975811e-07
0.0005492827171519005
3.052767099898838e-07
0.0005491972502940002
1.078596001144059e-07
0.0005491659229785829
4.703943610221705e-08
0.0005491742428010665
-1.031125793738052e-08
0.0005491641075499232
1.718891344303597e-08
0.0005491384246987854
2.809661482280744e-08
0.000549148623098541
-2.080802172386959e-08
0.0005491669755078198
-2.628488368696852e-08
0.000549178144717629
-1.411191949531359e-08
0.00054916564639622
2.019796120959893e-08
0.0005491363331612294
5.64629404493372e-08
0.0005492920309781069
-3.077851466954956e-07
0.0005495048752957875
-3.766924471630605e-07
0.0005494503992851433
1.779699914704043e-07
0.000549276368498289
3.124412079677788e-07
0.0005492061605976935
8.809238254122825e-08
0.0005492084172378609
-2.291747941633389e-09
0.0005491912579039148
2.246478926362677e-08
0.0005491805203809451
1.037081826366864e-08
0.0005491810923912272
-1.477615317487855e-08
0.0005491751035576679
1.242091452106152e-08
0.0005491871793584912
-3.570280050635585e-09
0.0005491965638265686
-8.619828545053284e-09
0.0005491735387478831
2.421654543050245e-08
0.0005493195583499048
-2.776821687290127e-07
0.0005495142368306537
-3.451667435618629e-07
0.0005495521390697983
-4.328777654179088e-08
0.0005495638786144805
-3.64311303666461e-09
0.0005495928344388958
-4.257111335858581e-08
0.0005495763253596961
2.312461649618034e-08
0.0005495281826460818
6.459619069266583e-08
0.000549420834415209
2.343523128217919e-07
0.0005492472977064077
3.095977022887618e-07
0.000549329775679778
-2.244200945567242e-07
0.0005495251843179518
-3.486825333452198e-07
0.0005494584458605002
1.9995741383457e-07
0.0005492793122167222
3.228790886922244e-07
0.0005491920004667406
1.042354436221337e-07
-2.75639320870579e-07
0.0008720604724959446
-2.766725517036566e-08
0.0008721462372927709
2.093185114613334e-07
0.0008720642283794427
-1.275684021340304e-07
0.0008719759385473982
-2.605416002011093e-07
0.0008720611655351461
1.277867285693795e-07
0.0008721517905922345
2.137071855932504e-07
0.0008721404079219882
1.158967645528256e-07
0.0008721220139349471
6.735200779409993e-08
0.0008721266185990907
-1.572868195082506e-08
0.0008721301740737389
1.34906283155353e-08
0.0008721223339398316
3.600392625604351e-08
0.0008721146962076653
-1.306549411484432e-08
0.0008721145049933944
-2.695452344743546e-08
0.0008721387555173717
-3.707663102510569e-08
0.0008721333131196006
2.58836651748e-08
0.0008721120380025557
8.063283107840747e-08
0.0008720380402010075
-2.368097757383266e-07
0.0008719644709533694
-3.071635888378651e-07
0.000872061670976663
8.873881237111223e-08
0.0008721503880386364
2.243514547731686e-07
0.0008721464118321979
8.59450299032637e-08
0.0008721492768799301
-4.944245864489838e-09
0.0008721485165131253
2.198190101392002e-08
0.000872144727358727
1.503155303222044e-08
0.0008721386796496564
-9.578875400924436e-09
0.0008721339799795347
1.861942205712353e-08
0.0008721345640923198
-4.323219467587537e-09
0.0008721396864476312
-1.619011561700052e-08
0.0008721444379582913
1.95933537407358e-08
0.0008720659089225933
-1.946742859914349e-07
0.0008719786055762076
-2.577259507750639e-07
0.0008719843688783363
-5.091086066444707e-08
0.0008719905929228267
-5.787758452041682e-09
0.0008719949433377272
-4.868398519332696e-08
0.0008719812885924147
3.778135903211917e-08
0.0008719560815693217
8.758567968196178e-08
0.0008720459563839445
1.457976458118258e-07
0.0008721421705802291
2.162409426706921e-07
0.0008720672048841556
-1.573543011291917e-07
0.0008719821968635947
-2.656401528659948e-07
0.0008720697691659613
1.198718186103103e-07
0.0008721525807823906
2.399787186007659e-07
0.0008721458649978152
1.058215335355876e-07
-1.897964022088822e-07
0.001175988873822539
1.431376201251662e-09
0.001176090495693747
1.025094234015807e-07
0.00117602192848369
-6.141056441958771e-08
0.001175902715091749
-1.37556172663961e-07
0.001175974830787881
6.165489734046998e-08
0.001176077477395892
1.038611227490753e-07
0.001176101148627806
8.575191540904915e-08
0.001176108246543438
6.090687189848889e-08
0.001176102833613751
-1.092437921505318e-08
0.00117610739711232
8.780744306914784e-09
0.001176118723139278
2.394294967011582e-08
0.001176117305727157
-1.193806069965878e-08
0.001176107075211969
-1.767161199479172e-08
0.001176118934281743
-4.737429717636275e-08
0.001176124308600066
2.144514982319895e-08
0.001176120724794412
8.721113159949567e-08
0.001176024141035865
-1.384135642632407e-07
0.001175905212112448
-1.843752326185804e-07
0.001175977862895263
2.131739195223426e-08
0.00117608896631806
1.070380837660206e-07
0.001176108031394708
5.898389364587362e-08
0.001176106089082484
-3.879792164158677e-09
0.00117611522367289
1.152538715776406e-08
0.001176119277105768
1.160969194018197e-08
0.00117611983651846
-1.139265701675196e-08
0.001176120954232795
1.916103379886371e-08
0.001176115313215767
2.546964463858858e-09
0.001176112031430815
-1.368494857978972e-08
0.001176115903009301
1.50455318867883e-08
0.001176025279022968
-9.607177741803307e-08
0.001175908258257957
-1.333344196925668e-07
0.001175900408795309
-4.033710458908239e-08
0.001175904548148046
-4.880420875339361e-09
0.001175892876234133
-3.778819948788541e-08
0.00117589220469189
3.91448461143135e-08
0.001175896323234181
8.046536665604829e-08
0.001175981922113603
5.727964662940184e-08
0.001176097356003796
9.579360471738702e-08
0.001176030094758091
-9.605076799070362e-08
0.001175911943116966
-1.432867748085586e-07
0.001175982309922715
5.451959478644013e-08
0.001176088570976084
1.27549193453282e-07
0.001176114023748286
7.314026605302358e-08
-9.152910543961773e-08
0.001730200627778919
2.186606848632185e-08
0.001730246062689361
5.667311175955253e-08
0.001730218992382276
-3.797212992616342e-08
0.001730158389442501
-7.901535271987681e-08
0.001730190648728149
3.447825896308449e-08
0.001730229000694515
6.533466087236808e-08
0.001730245841715669
6.674361811987718e-08
0.001730265187876611
4.256104976301435e-08
0.001730255226948229
-1.624225977142359e-09
0.001730255398951643
8.618053729620387e-09
0.001730269776635676
9.624111653653601e-09
0.001730277924695553
-2.020415298212385e-08
0.001730274489967193
-1.483377661830305e-08
0.001730271214346109
-4.299710137655508e-08
0.00173027677658932
1.608633064066675e-08
0.001730289223395709
7.664193262308729e-08
0.001730243312010228
-9.46038677547891e-08
0.001730175499676889
-1.197098905406539e-07
0.001730199211440012
3.093431486580308e-09
0.001730250646271586
5.693941697072565e-08
0.001730261912633942
4.335447434990401e-08
0.001730257154360946
7.133508727290874e-10
0.001730264878092884
2.698880566749375e-09
0.00173026796337308
9.354775905446781e-09
0.001730268551880987
-1.243156231114077e-08
0.001730271962289573
1.679019723836971e-08
0.001730272733078663
1.634615657580457e-09
0.001730267732572831
-1.052153934754935e-08
0.001730258664152347
2.501089965330462e-08
0.001730217948116702
-5.288575555838689e-08
0.00173016345946307
-7.924659883521289e-08
0.001730161386399946
-3.892640878049527e-08
0.00173016828270546
-8.62840486121629e-09
0.001730158504384491
-2.94629753206291e-08
0.001730164547349095
3.379590314916463e-08
0.00173018071526953
6.322112686565366e-08
0.001730217887817123
2.084234179832719e-08
0.001730267851235252
4.810398861342693e-08
0.001730235144592723
-6.882161589494503e-08
0.001730173208076181
-8.334246940445406e-08
0.001730200731255624
3.192849397191384e-08
0.001730249068834882
7.973642883711883e-08
0.001730264591359502
5.465984486699692e-08
-5.055937398682454e-08
0.003042575708946022
3.024488284657494e-08
0.003042590961729002
4.299198262711951e-08
0.003042578189269953
-2.965241547431264e-08
0.003042547360910977
-5.275236555574478e-08
0.003042562946540063
2.378499678167229e-08
0.003042572670182906
5.875752655787126e-08
0.00304257997569934
5.93760543799305e-08
0.003042597360377894
2.632875187638339e-08
0.003042586305698391
8.724707958748083e-09
0.003042585148532199
9.917918979364696e-09
0.003042598710239239
-3.487401242609406e-09
0.003042608302191086
-2.980742402631455e-08
0.003042612060992505
-1.902255487891912e-08
0.003042607300436267
-3.732020325515004e-08
0.003042609265892094
1.394631384817831e-08
0.003042626916781132
6.002177094293229e-08
0.003042612763310824
-8.475766400213972e-08
0.003042576522308856
-8.965147491123853e-08
0.003042580866143108
4.728525763905514e-09
0.003042601255051053
4.157249808758337e-08
0.003042604150501079
3.768598621283658e-08
0.003042597617769611
7.361808440583332e-09
0.003042601911842681
-2.674935630463991e-09
0.0030426026353434
9.574830442095402e-09
0.003042597235000548
-7.116481062105121e-09
0.003042599399357789
1.539685714349413e-08
0.003042602853935506
-2.660871061386878e-09
0.003042599442917097
-9.466840641856418e-09
0.003042588686122751
3.728300343660282e-08
0.003042573728749911
-3.828503230968274e-08
0.0030425539230566
-6.356461959884362e-08
0.003042556041144645
-4.330584354272377e-08
0.003042566657803569
-1.690275624541203e-08
0.003042563416038543
-2.799584501614789e-08
0.003042570120044633
2.790573714321146e-08
0.003042586268910177
4.724773021967823e-08
0.003042606165392761
3.64381105505086e-09
0.003042626090253897
3.359095723231699e-08
0.003042605437280465
-5.376204710172905e-08
0.003042572177201636
-5.477633407608577e-08
0.003042581608200631
2.762685764530856e-08
0.00304260057407152
6.445931989387604e-08
0.003042603782815313
5.022683897501303e-08
-3.549182244516338e-08
0.005204669973332118
2.944598496864557e-08
0.005204677451371793
3.700417466195175e-08
0.005204664421949066
-2.096403970279316e-08
0.005204641330466289
-3.395365047518661e-08
0.005204650089697668
1.966444979235036e-08
0.005204656870188036
5.503222594508976e-08
0.005204660772842085
5.564890790350474e-08
0.005204667345411945
2.089141461507526e-08
0.005204657562370162
1.773737366115638e-08
0.005204656260284339
1.144291468448461e-08
0.005204662742193577
-9.561998243619304e-09
0.005204669828520838
-3.697353423677669e-08
0.005204676106391339
-2.562994525873108e-08
0.005204673730818053
-3.389071212291839e-08
0.005204678921052652
8.47434432455561e-09
0.005204692803948649
4.698035902596883e-08
0.005204683768382052
-8.008592382247343e-08
0.005204660926542161
-7.294191573765176e-08
0.005204666206565896
5.560676551988414e-09
0.005204681311730791
3.183515765978012e-08
0.005204680678983748
3.529780640536718e-08
0.005204674929566099
1.317451222624355e-08
0.005204673286469362
-2.286580358478085e-09
0.005204672711868804
1.111909200097206e-08
0.005204666268076887
-7.934827763576324e-10
0.005204668622470234
1.394459708527863e-08
0.005204666334714865
-1.347816544235777e-09
0.005204662007550953
-7.866084672139117e-09
0.005204660690681514
4.056250944481547e-08
0.005204654745392372
-3.265984322244239e-08
0.005204645444529809
-5.852398966309886e-08
0.005204647338342192
-4.745099656255621e-08
0.005204658638049899
-2.564650938405655e-08
0.005204659374589239
-3.065980105851789e-08
0.005204669979063097
1.835593338609606e-08
0.005204678727731407
3.913067998132255e-08
0.005204691171213077
-6.445805976088678e-09
0.005204708583240432
2.13983804757747e-08
0.005204691661086754
-4.243700215238802e-08
0.005204669681470101
-3.735794185232954e-08
0.005204675532402452
2.679914839939381e-08
0.005204688913264163
5.47139595835558e-08
0.005204686670149091
5.126245308470097e-08
-2.234960841937619e-08
0.007372508245328336
2.618616345501897e-08
0.007372515595579041
3.083049625803221e-08
0.007372503102938532
-1.22814585333511e-08
0.007372483892786624
-1.828423432955202e-08
0.007372489074737224
1.860239585229188e-08
0.007372497293018939
4.911821831377575e-08
0.007372502256589857
5.088667082947227e-08
0.007372502713547934
2.156351930084173e-08
0.007372496693969035
2.293399887758731e-08
0.007372497122903962
1.13151394247087e-08
0.007372495738250661
-7.954639272260554e-09
0.007372494861051976
-3.629900106268608e-08
0.007372497804324412
-2.878425888306762e-08
0.007372494362070894
-2.918982170335215e-08
0.00737250331269771
-8.989660280688258e-10
0.007372515624620489
3.551290852636025e-08
0.007372499795792133
-6.814026867972458e-08
0.00737247956111271
-5.835626222055881e-08
0.007372487323749379
3.777922815759059e-09
0.007372503257635333
2.106629835449826e-08
0.00737250355549823
3.144372251426374e-08
0.007372501701578592
1.507254650645269e-08
0.007372498095539453
-1.175540676793618e-10
0.007372498713598195
1.147259004484355e-08
0.007372494690979356
2.932068331910801e-09
0.007372498957552169
1.078002232099355e-08
0.007372494474410063
2.054826018338109e-09
0.007372489280442676
-5.859219027465813e-09
0.007372496353225187
3.602640578820008e-08
0.007372492193026916
-2.825371626078384e-08
0.00737248300277451
-5.322119347236338e-08
0.007372481424797356
-4.792139221424697e-08
0.007372490134521589
-3.146648604625517e-08
0.007372488852294396
-3.149402041192496e-08
0.007372503217026797
5.406304085847646e-09
0.007372510668877909
3.264136847863899e-08
0.007372515095833808
-9.527465826526454e-09
0.007372531010172376
1.001403788407579e-08
0.007372515786422686
-3.248010884594249e-08
0.007372500393545437
-2.586418639433567e-08
0.007372507264027573
2.462919074008175e-08
0.007372521138335043
4.380629523590664e-08
0.007372521719060024
4.93623963885429e-08
-9.223853181356176e-09
0.008749825272441234
2.305407233532013e-08
0.008749831444772959
2.556762307162995e-08
0.008749822185475228
-6.063140532011725e-09
0.008749808822513935
-7.588912304468439e-09
0.008749812399048323
1.847646727812675e-08
0.008749819979625368
4.309583175002066e-08
0.008749825419898239
4.575156795495166e-08
0.008749825327279546
2.274278141085632e-08
0.008749822721480699
2.475564595892075e-08
0.008749824599280424
9.807379544290124e-09
0.008749821782517497
-5.134673457599356e-09
0.00874981609429634
-3.089589146780574e-08
0.008749815252921889
-2.80758682384823e-08
0.008749810436156042
-2.302875223257874e-08
0.008749816694282131
-7.775890798628852e-09
0.008749827646656235
2.528377532486754e-08
0.008749810701534924
-5.448723722016843e-08
0.008749793313672396
-4.584386726209025e-08
0.008749799889774722
2.680893480833658e-09
0.008749812498009636
1.322343547390124e-08
0.008749813221391111
2.698675006714958e-08
0.008749813904790077
1.449958956646959e-08
0.008749810905878045
1.426124070895973e-09
0.008749813035960301
1.027951346282066e-08
0.008749811465419486
3.976147889284675e-09
0.008749816053013433
7.338862901118283e-09
0.008749812824802472
4.120756271646759e-09
0.008749808626957123
-5.076210439455128e-09
0.008749819403445392
2.807220923648551e-08
0.008749816805877553
-2.521320980191642e-08
0.008749808207081352
-4.817612294848519e-08
0.008749803868213142
-4.538851287522837e-08
0.008749809316047484
-3.398856143071274e-08
0.008749805490294716
-2.984656176729903e-08
0.008749817126277289
-4.479393769413771e-09
0.008749825951535672
2.514235948414394e-08
0.008749826148861297
-9.323752744929228e-09
0.008749836655249752
3.178696624079702e-09
0.008749823427941956
-2.378726019657756e-08
0.008749812671240354
-1.809834526666309e-08
0.008749819184174133
2.233519727792742e-08
0.008749830574850383
3.463162307278228e-08
0.008749833979319997
4.467225120803379e-08
-1.935599584709204e-10
0.009427319340617378
2.06700985969742e-08
0.009427323791034215
2.140589978792513e-08
0.009427317793610777
-1.752337678004918e-09
0.009427309509434271
-3.818031657402568e-10
0.009427311992016258
1.834117059785373e-08
0.009427318090355711
3.699619975173092e-08
0.009427323249784732
4.049607222931666e-08
0.009427324178794921
2.260297657167835e-08
0.009427323659337343
2.459602032314894e-08
0.009427325769570481
8.040236809616263e-09
0.009427323966190426
-3.621331122020562e-09
0.009427317769005308
-2.506371740216695e-08
0.009427315514467474
-2.592445951456239e-08
0.009427311034471695
-1.719557228234323e-08
0.009427313710605739
-1.108398630623826e-08
0.009427322210631119
1.760719398271021e-08
0.009427308101410679
-4.215366090712216e-08
0.009427294797296646
-3.553625416075164e-08
0.009427299428038152
2.229033740506677e-09
0.009427308051947528
7.842397109864219e-09
0.009427308433027286
2.260288096315053e-08
0.009427309971729952
1.29494928938064e-08
0.009427307714097865
2.299180677411716e-09
0.00942731016747358
8.617783069485681e-09
0.009427309905225554
3.501509595662767e-09
0.009427313651845581
4.753180081224955e-09
0.009427311997553794
4.856459252506695e-09
0.009427308941486388
-5.21179642695131e-09
0.009427319909504678
2.008670533974809e-08
0.009427318769168037
-2.283805724600351e-08
0.009427311923866864
-4.332699929825003e-08
0.009427306990721161
-4.127606003097845e-08
0.009427309797973078
-3.385715542043522e-08
0.009427305263504982
-2.720863557603019e-08
0.009427312925235713
-1.03353565856693e-08
0.009427321203603635
1.81639142235652e-08
0.009427319243298239
-8.560192042175885e-09
0.009427324904620818
-6.827791076204851e-10
0.009427314541312451
-1.669954629512183e-08
0.0094273070389434
-1.198305476418873e-08
0.009427312001274753
2.054814676228528e-08
0.009427319740712472
2.749084901526069e-08
0.009427323974279344
3.906209541875618e-08
5.306069069908098e-09
0.009801693799030089
1.889198870558042e-08
0.009801696921436145
1.83873043825651e-08
0.009801693187273445
1.338611839208325e-09
0.009801688305048267
4.406866507908594e-09
0.009801689935954375
1.800096072312015e-08
0.00980169471135681
3.148484933450293e-08
0.009801699290784264
3.565892853616213e-08
0.009801700909424583
2.135652865758284e-08
0.009801701549835515
2.340062655168728e-08
0.009801703431292864
6.433131158177652e-09
0.009801702497340319
-3.158093454598901e-09
0.009801697176166918
-2.019625313784499e-08
0.009801694823884375
-2.363347941560113e-08
0.009801691356877735
-1.250611468895475e-08
0.00980169188987574
-1.22512119636558e-08
0.009801698132235259
1.225057434807582e-08
0.009801687183418346
-3.186482980897775e-08
0.0098016774412492
-2.749944064671031e-08
0.009801680688731041
1.968776252988303e-09
0.009801686693447843
4.295323841966953e-09
0.009801686654000245
1.862049930579872e-08
0.009801688320288115
1.110075593276429e-08
0.009801686668766831
2.702361922813894e-09
0.009801688962944971
6.952574720828619e-09
0.009801689214001609
2.484328759086765e-09
0.009801692085692905
2.927501862362555e-09
0.009801691532676073
4.66468796764499e-09
0.009801689033393655
-5.687083918949094e-09
0.009801698889421612
1.348571267872652e-08
0.00980169846229916
-2.097118464748377e-08
0.009801693158719729
-3.902517829753224e-08
0.009801688743293534
-3.686591926189616e-08
0.009801689924274102
-3.232942904728004e-08
0.009801685615961236
-2.440075169070874e-08
0.009801690411902556
-1.343437836562377e-08
0.009801697514805936
1.248334819835981e-08
0.009801694325531659
-7.699556174388417e-09
0.009801696703642858
-2.416444306503e-09
0.009801688711592904
-1.087487106504654e-08
0.009801683323186205
-7.117291090595283e-09
0.009801687015622996
1.912412550486793e-08
0.009801691898236412
2.231948453195368e-08
0.009801696011922259
3.375232535462078e-08
8.266555909264095e-09
0.01006788451701668
1.760798235373505e-08
0.01006788675497077
1.613615537872707e-08
0.01006788454920665
3.663548238784883e-09
0.01006788183888456
7.77160399251173e-09
0.01006788274571255
1.747828696479801e-08
0.01006788649513725
2.658290001782365e-08
0.01006789051032734
3.129643671101144e-08
0.01006789230433676
1.955494289459413e-08
0.01006789356940949
2.175231369331786e-08
0.0100678951590881
5.019143972255919e-09
0.01006789467713668
-3.2420046349192e-09
0.01006789038779548
-1.646309827867819e-08
0.0100678882530155
-2.153281703310672e-08
0.01006788569649794
-8.912228215196872e-09
0.01006788512743746
-1.23234005750401e-08
0.01006788966570641
8.628424864034072e-09
0.01006788134258273
-2.337525363289327e-08
0.01006787420546002
-2.105139078917221e-08
0.01006787648077709
1.660352597155068e-09
0.01006788099071302
1.771973200281042e-09
0.01006788058089764
1.506056488938617e-08
0.01006788218085629
9.167435348824736e-09
0.01006788106179889
2.74521601849151e-09
0.01006788317577512
5.307976168884623e-09
0.01006788366993403
1.310667549034828e-09
0.01006788589996543
1.579219782372978e-09
0.01006788608770174
3.881970743011741e-09
0.01006788372431457
-6.172285749525601e-09
0.01006789236412739
8.34092777409601e-09
0.01006789220282021
-1.934445109944815e-08
0.01006788796708256
-3.504355864062615e-08
0.01006788427090402
-3.25497128957627e-08
0.01006788440915233
-3.012532070857972e-08
0.01006788062503749
-2.168907754797468e-08
0.0100678835544438
-1.487196664908322e-08
0.01006788962784829
8.05908348328191e-09
0.01006788568927623
-6.915351806718181e-09
0.01006788602826796
-2.916394226151389e-09
0.01006787983970016
-5.934628406406619e-09
0.01006787578364823
-3.011516262770363e-09
0.01006787858247511
1.787458313147035e-08
0.01006788152748699
1.846678452969695e-08
0.01006788536010734
2.894044532402813e-08
9.597321519208072e-09
0.01027336380513184
1.6643998098393e-08
0.01027336553601235
1.444290530688064e-08
0.01027336434545768
5.349660631871333e-09
0.01027336304112186
1.006863081142791e-08
0.01027336340431453
1.681649687674944e-08
0.01027336642784812
2.254089206325731e-08
0.01027336997070345
2.757612719180575e-08
0.01027337156366335
1.764797298067887e-08
0.01027337311366145
2.000195541132411e-08
0.01027337445365373
3.743281478431866e-09
0.01027337417939677
-3.548498108042306e-09
0.01027337082524906
-1.378463309457513e-08
0.01027336890981248
-1.961423289685359e-08
0.01027336703363283
-6.233868346808638e-09
0.01027336588399866
-1.18894716478882e-08
0.01027336909200674
6.296553564711985e-09
0.01027336271874471
-1.652790703733255e-08
0.01027335737282796
-1.592261098719174e-08
0.01027335902090442
1.314145615693647e-09
0.01027336276293542
1.316484889304651e-10
0.01027336199769834
1.207826543770455e-08
0.01027336343441698
7.322811483778631e-09
0.01027336274203061
2.556562929436746e-09
0.0102733647177716
3.645202937092078e-09
0.01027336541655059
8.727123552192653e-11
0.01027336722697094
4.258180309690907e-10
0.01027336796338786
2.590275384678096e-09
0.01027336549185539
-6.582938330560425e-09
0.01027337306349782
4.492379438282822e-09
0.01027337293440284
-1.807327152346223e-08
0.01027336946174374
-3.167302394902469e-08
0.01027336649907214
-2.873760218824624e-08
0.01027336590125949
-2.769810377743015e-08
0.01027336269833395
-1.917010178403959e-08
0.01027336436057314
-1.524226980945681e-08
0.01027336970433246
4.78974946605515e-09
0.01027336540337775
-6.136223654001685e-09
0.0102733645077808
-2.386263518183096e-09
0.01027335955569603
-1.58019794025093e-09
0.01027335633043663
3.696208854742114e-10
0.01027335861998778
1.671431205313825e-08
0.01027336033073221
1.572745129662989e-08
0.01027336390455305
2.469551919471172e-08
9.720620326315129e-09
0.01042738633215956
1.595178684749341e-08
0.01042738782088393
1.304491017087717e-08
0.0104273873365611
6.503570934286412e-09
0.01042738696551923
1.170799215690731e-08
0.01042738689486694
1.611777986548711e-08
0.01042738939542301
1.917681991672415e-08
0.01042739259572202
2.43123145214637e-08
0.01042739380311313
1.587692056389823e-08
0.01042739545879089
1.834618293212469e-08
0.01042739660589236
2.53508165705544e-09
0.01042739642978288
-3.911771267039493e-09
0.01042739391282634
-1.208396245815449e-08
0.01042739213386458
-1.783751276251332e-08
0.01042739075226842
-4.275882965650101e-09
0.01042738929895996
-1.124300234343409e-08
0.01042739146166029
5.035304776877251e-09
0.01042738649049587
-1.093236174738608e-08
0.01042738231615954
-1.160560002008899e-08
0.01042738351710307
9.896443278615582e-10
0.01042738685769378
-9.415215551975016e-10
0.01042738575536402
9.565175622828257e-09
0.01042738699609765
5.614842835640451e-09
0.01042738663022854
2.221404631891731e-09
0.01042738849352076
1.946176410268387e-09
0.01042738941032068
-1.154906378640444e-09
0.01042739092294354
-6.402920549959309e-10
0.01042739209337854
9.067602632284791e-10
0.01042738942456073
-6.919090919829172e-09
0.01042739615232012
1.674651462970595e-09
0.01042739601201991
-1.705208234571306e-08
0.01042739310777375
-2.878058546758415e-08
0.01042739078958092
-2.541539042986646e-08
0.01042738960117982
-2.515009905129955e-08
0.01042738694498016
-1.68460402281882e-08
0.01042738769605345
-1.493528544850863e-08
0.01042739254217744
2.432256300229008e-09
0.01042738808893092
-5.454138810571592e-09
0.01042738644792069
-1.161268316534292e-09
0.01042738236577526
2.335933807741925e-09
0.01042737967764307
3.228849353143157e-09
0.01042738166412825
1.566177548388799e-08
0.01042738255655032
1.371327465066622e-08
0.01042738601634722
2.077805600111772e-08
8.980757668560463e-09
0.01053171922690517
1.545785516435812e-08
0.01053172069425404
1.172377280643911e-08
0.01053172069448247
7.197106914866562e-09
0.01053172093835473
1.294905303823215e-08
0.01053172053824889
1.544541990497272e-08
0.01053172268443128
1.642564613202853e-08
0.01053172566846735
2.147163835060272e-08
0.01053172637553081
1.44418826452953e-08
0.01053172802530019
1.690819740621611e-08
0.01053172902388863
1.340071243280605e-09
0.01053172892619596
-4.302520491476106e-09
0.01053172716947751
-1.132665466794251e-08
0.01053172543871403
-1.613191048404041e-08
0.01053172446900803
-2.960229855318212e-09
0.01053172287678742
-1.062852176380568e-08
0.01053172417971277
4.67330711432763e-09
0.01053172013510143
-6.308864575741942e-09
0.01053171668995458
-7.813370248553269e-09
0.01053171761791613
7.30540194341843e-10
0.01053172078787947
-1.552529239098183e-09
0.0105317193887892
7.537945158084338e-09
0.01053172040028434
4.145127594297697e-09
0.01053172025426977
1.844786338772076e-09
0.01053172201317274
2.147937064611743e-10
0.0105317231533124
-2.424745761081796e-09
0.01053172443780023
-1.712211943626289e-09
0.01053172595278813
-1.138487831220458e-09
0.01053172302498019
-7.241705868261161e-09
0.01053172907564041
-3.723542774633488e-10
0.01053172892116437
-1.635202229247775e-08
0.01053172648066951
-2.649717348867825e-08
0.01053172474174655
-2.270573476006743e-08
0.01053172306495613
-2.261518356096098e-08
0.01053172090586984
-1.473884386007987e-08
0.01053172097254856
-1.412004708418638e-08
0.01053172553085942
8.550423682542754e-10
0.01053172108228655
-4.881159732153952e-09
0.01053171896123511
7.078720927112759e-10
0.01053171540363781
6.063223149490925e-09
0.01053171305382004
5.695747184463964e-09
0.01053171489171922
1.474679973042951e-08
0.01053171523345208
1.224514928503542e-08
0.01053171873709345
1.701736569146923e-08
7.588030118520789e-09
0.01058521373351548
1.510645631421942e-08
0.01058521537730516
1.028488729745729e-08
0.01058521569367488
7.513083173254659e-09
0.01058521630970424
1.407327040835583e-08
0.01058521565704556
1.487206713230188e-08
0.01058521757040642
1.409631865445032e-08
0.01058522045641952
1.886696251314069e-08
0.01058522059569175
1.341872307301891e-08
0.01058522219243286
1.573415811072151e-08
0.01058522306845854
1.138207702142657e-10
0.01058522308704359
-4.721532283684921e-09
0.0105852220329371
-1.147405388467628e-08
0.01058522024372328
-1.443930716002858e-08
0.01058521968424553
-2.281646586895858e-09
0.01058521807867203
-1.019470728416099e-08
0.01058521867380847
5.158839328548458e-09
0.01058521518544572
-2.308947826019851e-09
0.01058521215517379
-4.205228223875645e-09
0.01058521293248975
5.560262156333316e-10
0.01058521605116697
-1.888011224430619e-09
0.01058521438957797
5.882150614854194e-09
0.01058521514081682