/*--------------------------------*- C++ -*----------------------------------*\
| =========                 |                                                 |
| \\      /  F ield         | OpenFOAM: The Open Source CFD Toolbox           |
|  \\    /   O peration     | Version:  v1812                                 |
|   \\  /    A nd           | Web:      www.OpenFOAM.com                      |
|    \\/     M anipulation  |                                                 |
\*---------------------------------------------------------------------------*/
FoamFile
{
    version     2.0;
    format      ascii;
    class       volVectorField;
    location    "3000";
    object      U;
}
// * * * * * * * * * * * * * * * * * * * * * * * * * * * * * * * * * * * * * //

dimensions      [0 1 -1 0 0 0 0];


internalField   nonuniform List<vector> 
1408
(
(0.1045526163020402 2.443496025569998e-07 1.505399892431912e-05)
(0.1043691061565648 -7.70316574395013e-07 1.502429961657478e-05)
(0.104306302222537 8.84024582302908e-07 1.501700658506974e-05)
(0.1045378551746182 1.128679860238874e-06 1.505124032590501e-05)
(0.1045772483158585 -8.237787704265508e-07 1.505459375192228e-05)
(0.104373548573025 -1.357576541932264e-06 1.502293848503621e-05)
(0.1043312220111343 1.109515681712458e-07 1.501729431820756e-05)
(0.1043129012788083 4.189952907511791e-07 1.501419884761703e-05)
(0.1043168769927381 3.187677552840029e-08 1.501511612765205e-05)
(0.1043208887078013 -3.553217949542066e-07 1.501504741518989e-05)
(0.1043075996256196 -2.215041373674258e-07 1.501349002337101e-05)
(0.1043065618711612 2.70554245676863e-07 1.501358717897465e-05)
(0.1043156293730728 2.701633065962258e-07 1.501591515984505e-05)
(0.1043169429718796 -5.22369261483985e-08 1.501590178852638e-05)
(0.1043257690929653 -7.742553516605786e-08 1.50180499076754e-05)
(0.1043104410905153 8.50074544890855e-08 1.501475077036811e-05)
(0.1042951657948331 6.909159478938103e-07 1.501583837126736e-05)
(0.104531690351923 9.576822869055842e-07 1.50515991865908e-05)
(0.1045751379557979 -8.690921958590191e-07 1.505688820606283e-05)
(0.1043747114368199 -1.08660434965883e-06 1.502641882605395e-05)
(0.1043251804521881 -2.902317367895064e-08 1.502101170380544e-05)
(0.1043222091522056 -1.818115055565415e-08 1.502076268817177e-05)
(0.1043241169264088 2.654162072970652e-07 1.502244107684442e-05)
(0.1043146644953402 -2.697372997375394e-07 1.502051766813664e-05)
(0.104320541855423 -1.197334787103567e-07 1.502332266538267e-05)
(0.1043207607056123 5.345199704965339e-07 1.502271456988027e-05)
(0.1043196919549629 1.516268356733121e-07 1.502385312492971e-05)
(0.1043274685345472 -5.936721408908869e-07 1.502421298203098e-05)
(0.1043173559524489 -3.275311720810418e-07 1.502396023541425e-05)
(0.1042990678261129 1.008047281187201e-06 1.502182128289909e-05)
(0.1045371509149946 1.277190170353526e-06 1.505939415865411e-05)
(0.1045608075909936 4.975346622871137e-07 1.506038646171386e-05)
(0.1045629562387188 -3.17106388380491e-11 1.506198256648943e-05)
(0.1045654153863943 1.376763139428661e-07 1.506087287805147e-05)
(0.1045853052519699 3.039256651832011e-07 1.506481314502894e-05)
(0.1045562828784535 1.022159128511037e-08 1.505746463839003e-05)
(0.1045660959742256 -1.516771567903404e-06 1.505922080112372e-05)
(0.1043648816364875 -1.343547732073339e-06 1.502742508663894e-05)
(0.1043043580465823 8.651194563244375e-07 1.502198725887914e-05)
(0.1045394730481556 1.142415982036146e-06 1.505455741143285e-05)
(0.1045776393716077 -7.789868499609244e-07 1.505920344186594e-05)
(0.1043761570543662 -1.260332268203336e-06 1.502587116122271e-05)
(0.1043231791011296 8.474833791842657e-08 1.502005793552123e-05)
(0.1043075551590534 8.815366248262694e-07 1.501697756736274e-05)
(0.3045389226830545 3.19107697243475e-06 4.435695945049051e-05)
(0.3044249383662964 -1.023682251979063e-05 4.433782352031962e-05)
(0.3043353582004801 6.577639781312473e-06 4.432351230175629e-05)
(0.304519791183641 1.25288200209537e-05 4.434952530027681e-05)
(0.3045785371038345 -5.982329108079101e-06 4.435780465783968e-05)
(0.3044288737601638 -1.234658495587426e-05 4.433267321248549e-05)
(0.3043752598522875 -1.363213667772492e-06 4.432461913914312e-05)
(0.3043359626344213 1.48222201816988e-06 4.431694834892694e-05)
(0.3043416082811542 6.835909483870156e-07 4.4318563699086e-05)
(0.3043500621114912 -5.617601184755643e-07 4.43181863036406e-05)
(0.3043309115320656 -1.14403376505122e-06 4.431645801066109e-05)
(0.3043192807299314 -1.404734500260307e-07 4.431440191235389e-05)
(0.3043404867553093 7.21617923351606e-07 4.432015920189233e-05)
(0.3043413216475342 -2.202174290279319e-07 4.431978340917485e-05)
(0.3043542779064638 3.383528582858701e-07 4.432479325989866e-05)
(0.3043252514975995 1.190829261071401e-07 4.431770678016866e-05)
(0.3043106626558313 7.180215173060593e-06 4.43194417227231e-05)
(0.3045075010932167 1.168356985269049e-05 4.434990455540929e-05)
(0.3045746525068123 -6.70218679706435e-06 4.436351265238281e-05)
(0.3044324590579637 -1.166019525983776e-05 4.434193107868248e-05)
(0.3043618369699442 -1.512403180227895e-06 4.433531661982633e-05)
(0.3043617071838539 -1.463560614416283e-07 4.433501310968822e-05)
(0.3043655868061591 6.16645437714768e-07 4.434021564054997e-05)
(0.3043441089224558 -8.400224033281956e-07 4.433535230102107e-05)
(0.3043526434409751 -5.811184205684652e-07 4.434167987270344e-05)
(0.3043446478180701 1.689616670088042e-06 4.433894342107935e-05)
(0.3043432079148742 8.684795640589277e-07 4.434317141999297e-05)
(0.3043632510592721 -1.425070925414288e-06 4.434360858860242e-05)
(0.304354031079852 -2.006229783005439e-06 4.434561039518281e-05)
(0.3043232667980894 8.224033090284268e-06 4.433761262734755e-05)
(0.3045219285443113 1.168436405984304e-05 4.437311812618929e-05)
(0.3045535376212599 2.960515599836582e-06 4.437309946367606e-05)
(0.3045628805441136 1.801918963206503e-07 4.437856677944173e-05)
(0.3045612006379197 3.638322004757807e-07 4.437340542809958e-05)
(0.3045989273977814 1.39601296592479e-06 4.438310708009926e-05)
(0.3045372444043331 2.013648151845483e-06 4.436653813082842e-05)
(0.304558136109195 -1.001881814738189e-05 4.43737699151688e-05)
(0.3044155471048313 -1.387567997317892e-05 4.434630547351067e-05)
(0.3043309626399388 5.66284948879075e-06 4.433811042958282e-05)
(0.3045226734996902 1.236710601417922e-05 4.435944643510895e-05)
(0.3045792999564951 -5.99138328337389e-06 4.437159059249428e-05)
(0.3044366019411303 -1.169234012023815e-05 4.434152537409178e-05)
(0.3043603454643395 -2.513849781002718e-06 4.433398243178048e-05)
(0.3043346458857203 9.35989399903269e-06 4.432204864191557e-05)
(0.4796972082680808 3.238188482705222e-06 7.043485300800169e-05)
(0.4797773952768721 -8.594560832032967e-06 7.04447289785403e-05)
(0.4797775389752719 4.496372046522687e-06 7.04422437398363e-05)
(0.4796927197098672 1.140414281320713e-05 7.042658674471059e-05)
(0.4796979006710733 -3.789951772102404e-06 7.042765749558976e-05)
(0.4797790592936152 -1.140388968731794e-05 7.043460917074579e-05)
(0.4797882764640825 -1.384263021922035e-06 7.043506622603006e-05)
(0.4797663906674374 1.764222526751594e-06 7.042858038447957e-05)
(0.479768526521322 8.173007480574977e-07 7.042967278089355e-05)
(0.4797747087916579 -4.149737720468033e-09 7.042797174306492e-05)
(0.4797728731855417 -1.683519257594121e-06 7.042939787157682e-05)
(0.4797648620478297 -1.079794253141906e-06 7.042692733157803e-05)
(0.4797630872327242 9.827555499173258e-07 7.043032401815989e-05)
(0.4797654619899139 -1.118976638916749e-06 7.042965850501091e-05)
(0.4797910621049217 7.416114157396908e-07 7.043844283941463e-05)
(0.4797576794892252 2.1979586745388e-06 7.043084677362137e-05)
(0.4797614861157075 5.310674323526435e-06 7.043655392682641e-05)
(0.4796823552704689 9.89975789382889e-06 7.042594916345176e-05)
(0.4796966479775635 -5.2109270306313e-06 7.043480310648519e-05)
(0.4797813771022547 -1.084173783934213e-05 7.044645696961853e-05)
(0.4797823718053495 -1.608817377999823e-06 7.045227842927918e-05)
(0.4797807258322397 -1.224063380368514e-08 7.045100931602725e-05)
(0.4797859009307002 6.109520518819639e-07 7.04593445334199e-05)
(0.4797809581179453 -1.42861058767841e-06 7.045625009829374e-05)
(0.4797810996866189 -1.613266213249718e-06 7.046390777976864e-05)
(0.4797743407765314 1.913139900219082e-06 7.046057007681064e-05)
(0.479773772288393 1.978959852588336e-06 7.046797171151015e-05)
(0.4797785009854429 -9.397892566495354e-07 7.046487921623318e-05)
(0.4797796536790044 -1.859843695291344e-06 7.047155377115183e-05)
(0.4797755171118899 6.302764701532355e-06 7.046517440046499e-05)
(0.479696207218764 1.042996669373782e-05 7.046309902863334e-05)
(0.4796874934431182 3.478201452840169e-06 7.045590892385201e-05)
(0.4797035631571854 3.536474089376654e-07 7.046525094445369e-05)
(0.4796908695540466 3.865430206318155e-07 7.045545839765428e-05)
(0.4797109597981825 2.085224000890238e-06 7.046537527954686e-05)
(0.4796718283220863 3.121481265048556e-06 7.044851344337809e-05)
(0.4796906141503292 -9.077123436989952e-06 7.045752871261922e-05)
(0.4797697142370207 -1.36291453410131e-05 7.045858201979226e-05)
(0.4797754632787345 2.797714074161474e-06 7.046542863105701e-05)
(0.4796961930813901 1.100540591710268e-05 7.044241768247559e-05)
(0.4797002851131717 -3.868828344184953e-06 7.045016802733189e-05)
(0.479786504456907 -1.048634163987058e-05 7.044866731446108e-05)
(0.4797789018684998 -2.722333227241254e-06 7.045379099583212e-05)
(0.479776311963385 7.68197088476567e-06 7.043886655856914e-05)
(0.6097865187906194 1.677088645945933e-06 9.006440205841534e-05)
(0.6098534644391489 -2.455970642425345e-06 9.0072590274463e-05)
(0.6098855617920326 8.31579571900156e-07 9.007422899421761e-05)
(0.6097853609731869 3.987907872244316e-06 9.005410823953072e-05)
(0.6097716027605982 -5.161441362474985e-07 9.005204654184258e-05)
(0.6098562914893009 -4.09979990012235e-06 9.005874834040898e-05)
(0.6098729404898416 5.493934433088318e-07 9.00601762335638e-05)
(0.6098797599082408 1.210560547775367e-06 9.005710215251919e-05)
(0.6098806048348013 1.916224012179753e-07 9.005767912984835e-05)
(0.6098762611725161 7.487002695623845e-07 9.005343540302508e-05)
(0.6098855343561603 -7.16954740385663e-07 9.005675304099217e-05)
(0.6098875547791202 -1.780459522679044e-06 9.005492932794599e-05)
(0.6098831020289511 1.628940899282279e-07 9.005836265524425e-05)
(0.6098770791216275 -1.143492186359464e-06 9.00557924104113e-05)
(0.6098965428515395 1.034250037872993e-06 9.006454441698804e-05)
(0.6098812422574627 2.988673421191818e-06 9.005987128192883e-05)
(0.6098894328952223 3.449736191379294e-07 9.00669546853803e-05)
(0.6097852000122749 2.443293953200009e-06 9.005149591133814e-05)
(0.6097751821922853 -2.050693049327621e-06 9.005811519092387e-05)
(0.6098562119770184 -3.978996026285101e-06 9.006964058699223e-05)
(0.6098834448269708 -2.841441496743817e-07 9.008146925868297e-05)
(0.6098779409841848 -5.88940116456497e-08 9.007935256529838e-05)
(0.6098811625462811 9.767778389043817e-07 9.008938934651795e-05)
(0.6098882188448178 -1.009995200979676e-06 9.008796627651596e-05)
(0.6098849848473169 -2.172946273906495e-06 9.009695280506027e-05)
(0.609889083432566 1.335893525486678e-06 9.009482648041905e-05)
(0.609884413294054 1.730342305600663e-06 9.010386371924085e-05)
(0.6098855280953331 -3.244336833941345e-07 9.009969920558474e-05)
(0.6098811743908484 -1.704459533088139e-07 9.010781759393773e-05)
(0.6098849142073028 1.308821506336617e-06 9.010128387470185e-05)
(0.6097886014134742 3.293786428312326e-06 9.009795610422533e-05)
(0.609767785506095 1.659206712891023e-06 9.008773789582756e-05)
(0.6097823820498997 1.836667197235951e-07 9.009891491189411e-05)
(0.6097699010217777 -1.030057377028413e-07 9.008745000363928e-05)
(0.6097719278448983 1.962809217300009e-06 9.00964929902063e-05)
(0.6097662749223673 3.171278013864239e-06 9.008289248735188e-05)
(0.6097806298571512 -4.015619376959256e-06 9.009315270966218e-05)
(0.6098547705000495 -6.15028734772363e-06 9.009127036889581e-05)
(0.6098875991256224 -8.817559184578436e-07 9.010369454285384e-05)
(0.6097903491368005 3.552043393362588e-06 9.007453810164642e-05)
(0.6097754392744106 -5.934348158276653e-07 9.008135681262878e-05)
(0.6098604042991298 -3.446705620470772e-06 9.007685392376438e-05)
(0.6098779865188906 -5.784558121990502e-07 9.008797115135689e-05)
(0.6098855284782544 2.068932429053771e-06 9.007023492385341e-05)
(0.7063281587752943 1.096736125061459e-06 0.0001047950959019045)
(0.7063430831458711 2.097382229620308e-08 0.000104796315587499)
(0.706361613919015 -2.630751166279361e-07 0.0001047956817240513)
(0.7063233710704893 7.185145948672711e-07 0.0001047833416748676)
(0.7063189429072508 3.244327758917803e-07 0.0001047816460329537)
(0.7063470714830644 -8.887999969813576e-07 0.0001047794273642951)
(0.706346612698848 1.304257714347581e-06 0.0001047779470928874)
(0.7063592368719711 8.804454132718027e-07 0.0001047749618810583)
(0.7063628733468958 -1.779266585155093e-07 0.0001047754920407923)
(0.7063527818015312 6.021057290379512e-07 0.0001047695335190655)
(0.7063629550597401 -1.352973131433992e-07 0.0001047728198031422)
(0.7063644084634234 -1.312036877766837e-06 0.0001047701149895712)
(0.7063689585606068 -2.228215469069675e-07 0.0001047748918867023)
(0.7063613729262069 -1.435286340595058e-06 0.0001047714536122075)
(0.7063673432152101 9.732771197821451e-07 0.0001047782810054683)
(0.7063646351282971 2.939254131970282e-06 0.0001047754131607674)
(0.706375057707134 -1.338196640566435e-06 0.0001047834597228812)
(0.7063308075447556 -5.924849438931771e-07 0.0001047763043176049)
(0.7063262789984321 -9.969829464333517e-07 0.0001047840144323921)
(0.7063469991002751 -9.814488603131432e-07 0.0001047867571896682)
(0.7063630334533574 3.461746392924769e-07 0.0001047983628915614)
(0.7063576274294598 -1.852547054581752e-07 0.0001047963250031464)
(0.7063585348062422 7.083319749301095e-07 0.0001048072574454984)
(0.7063645650257734 -2.523318519327478e-07 0.0001048059729877881)
(0.7063607337092894 -1.654889669581092e-06 0.0001048161048594)
(0.7063656638628494 7.017570869106413e-07 0.0001048140619766237)
(0.7063618722703284 1.030491458608599e-06 0.0001048247604473691)
(0.7063680500656999 -7.57006551106672e-08 0.000104821465089977)
(0.7063579999925592 8.424521352813572e-07 0.0001048302444732263)
(0.7063570745225072 -2.187389756455027e-07 0.0001048228789642864)
(0.7063258221200024 3.767368600167153e-07 0.0001048299055213755)
(0.7063154920494997 4.064961516927814e-07 0.0001048206519587678)
(0.7063263982529474 -3.17879268063761e-08 0.0001048326646354737)
(0.7063194894629068 -4.612954229804447e-07 0.0001048214494830082)
(0.7063196517342843 1.55897397148365e-06 0.0001048314005689203)
(0.7063218655637249 2.663395918943358e-06 0.0001048184808796965)
(0.7063362494748869 -1.798660915894845e-06 0.0001048299286819927)
(0.7063521473856519 -2.452723630946427e-06 0.0001048182732486861)
(0.7063670972923131 -1.773893194464945e-06 0.0001048293572303256)
(0.7063297175630701 3.802222111407125e-07 0.0001048071868313109)
(0.7063240570524841 2.642803129080173e-07 0.0001048161232001319)
(0.7063502497636543 -3.391009577522976e-07 0.000104801335026704)
(0.7063575457391807 5.745252127645171e-07 0.0001048121354044536)
(0.7063622422499913 -1.342070468130192e-07 0.0001047916843593317)
(0.790685466700128 1.0214619772465e-06 0.0001178198401455488)
(0.790684015384739 6.768924584218355e-07 0.0001178214045406735)
(0.7906906865900163 -2.919016093657707e-07 0.0001178187227612609)
(0.7906798472988553 -4.693341540589968e-08 0.0001178095789402856)
(0.7906805503691582 3.120174564017191e-07 0.0001178072958044754)
(0.7906856652357359 4.903729301383072e-08 0.0001178009865186407)
(0.7906824350755696 1.223826565918687e-06 0.0001177983225492105)
(0.7906873485537133 7.183886789451642e-07 0.0001177932812114779)
(0.7906921609472899 1.661285527166369e-07 0.0001177933388368097)
(0.7906832148419893 2.789699463933862e-07 0.0001177866970452284)
(0.7906912794907699 -3.421145635487894e-07 0.0001177890570253126)
(0.7906903325279373 -1.241312027408568e-06 0.0001177851273569461)
(0.7906958161689384 -4.12043211387396e-07 0.0001177896028712438)
(0.7906917529987738 -1.230522336115715e-06 0.0001177860688795206)
(0.7906944769640931 7.836800388966097e-07 0.0001177920369713655)
(0.7906914273886364 2.351717152459369e-06 0.0001177889101645435)
(0.7907014352343957 -1.635248215925444e-06 0.0001177972492277377)
(0.7906879847611896 -1.101033424244642e-06 0.000117794541928261)
(0.7906884146164581 -6.130127491817846e-07 0.0001178028687495589)
(0.7906874034070618 -2.094221810474728e-07 0.0001178021968808)
(0.7906941453764015 5.471685515800898e-07 0.0001178131822785912)
(0.7906902506456446 -1.47579215480239e-07 0.0001178116437404504)
(0.790689861108876 1.307280151554764e-07 0.0001178230807368822)
(0.7906930426789861 2.897613819801444e-07 0.0001178219893320849)
(0.7906898235265044 -7.46359633520235e-07 0.0001178331343866512)
(0.79069121366307 4.724251643013998e-07 0.0001178309026093154)
(0.790689269415357 3.854050872715082e-07 0.0001178429100912418)
(0.7906945334238074 -2.448333535882489e-07 0.0001178401182320272)
(0.7906878300249547 1.319881570004193e-06 0.0001178506980584116)
(0.7906853841945298 -2.92993521701335e-07 0.0001178438431957246)
(0.7906811938977025 -2.010585519700291e-07 0.000117855573223544)
(0.7906776353802051 -6.991761020839651e-08 0.0001178474929977564)
(0.7906848778517195 -2.957706761964665e-07 0.000117860000376296)
(0.7906817386122886 -6.756128267402203e-07 0.0001178496049291961)
(0.790684311577316 1.186012057512106e-06 0.0001178608315378904)
(0.7906826740046761 2.002864592545385e-06 0.0001178475006378612)
(0.7906957431107747 -1.318092582983641e-06 0.0001178594638445886)
(0.7906930859137485 -1.207933909686901e-06 0.0001178446038119272)
(0.7906966732172018 -1.578375321130129e-06 0.0001178550063668141)
(0.790686554034391 -2.379797925491937e-07 0.0001178361265251146)
(0.7906860915009579 3.119742641291135e-07 0.0001178460447818997)
(0.7906898025574067 4.800606321847737e-07 0.0001178269522654063)
(0.7906903233111454 1.063149178655479e-06 0.0001178371615205444)
(0.7906909468493214 -6.192774062386201e-07 0.0001178146261430395)
(0.8690057145477326 1.017284327796421e-06 0.0001301285821328333)
(0.8690044968304143 8.075152666330451e-07 0.0001301334676324412)
(0.8690062633097488 -7.568646226237003e-08 0.0001301294271978337)
(0.8690025120791605 6.470586930927603e-08 0.0001301208050201279)
(0.8690033886280045 2.460636357479035e-07 0.0001301172649649257)
(0.8690034752092587 3.214622451907519e-07 0.0001301095177473033)
(0.8690031579664572 9.511574880446077e-07 0.0001301062906570771)
(0.869002488987239 4.831495598979877e-07 0.000130099453729971)
(0.8690059968875765 6.278458008418155e-07 0.000130098355089871)
(0.8690006678865141 2.873006426845785e-07 0.000130091481797804)
(0.8690052257661627 -6.136274358215824e-07 0.0001300923780582377)
(0.8690029640313653 -1.517832369604871e-06 0.000130087406848988)
(0.8690073894078817 -7.353602096732445e-07 0.000130090826934889)
(0.8690043080994211 -1.028365904821587e-06 0.0001300868878455192)
(0.8690076539948286 6.105071809747066e-07 0.0001300921880658793)
(0.8690048147209699 1.876800691846257e-06 0.0001300889086629112)
(0.869010385450673 -1.650928592245054e-06 0.0001300962530495657)
(0.8690056361431769 -9.754418003689184e-07 0.0001300948708872361)
(0.8690075701388439 -3.53615366321742e-07 0.0001301032717510694)
(0.8690050582678966 -1.755803706920071e-07 0.0001301023058282534)
(0.8690083511995785 5.287457748247034e-07 0.0001301128851402811)
(0.8690060356871986 3.851979333690064e-08 0.0001301121195721763)
(0.8690053470410427 -2.226189306909214e-07 0.0001301237228004666)
(0.8690060597828895 4.323690296678055e-07 0.0001301231128323424)
(0.8690045819342087 -4.648308705662929e-08 0.0001301350823690046)
(0.8690050066457363 5.436036270256322e-07 0.0001301335583799464)
(0.8690039212240988 1.321025832437127e-07 0.0001301462287254839)
(0.8690054145682121 -2.977415828046017e-07 0.0001301439244057172)
(0.8690029704294174 1.532721422265473e-06 0.0001301560988630343)
(0.8690015887452511 -2.15720192363436e-07 0.0001301506951947217)
(0.869002129772254 -2.425539973427424e-07 0.000130163660771093)
(0.8690006284257231 -2.597941876108289e-07 0.0001301567858506168)
(0.8690053161081777 -4.398751348472436e-07 0.0001301695586493089)
(0.8690032907117993 -8.588968208759503e-07 0.000130160252006539)
(0.8690065708444042 8.357955370868663e-07 0.0001301721935469397)
(0.8690045736367761 1.56535950136376e-06 0.0001301596241162305)
(0.8690118048407183 -1.466576377122868e-06 0.0001301711619884489)
(0.8690089881769116 -1.020353294729728e-06 0.0001301565705228005)
(0.8690092878707 -1.286112713460695e-06 0.0001301668943759183)
(0.869007146254244 -1.152029948776366e-07 0.0001301493042720661)
(0.8690075570389764 3.606421347230876e-07 0.000130159340832616)
(0.8690077820362309 5.503243418272954e-07 0.0001301394205603021)
(0.8690071450329688 1.265261238965038e-06 0.0001301492745151748)
(0.8690064812954148 -4.827307309063663e-07 0.0001301255029000562)
(0.9378628125448861 9.584839683266969e-07 0.0001412311883289418)
(0.9378631678445029 8.331979821459724e-07 0.0001412380630926586)
(0.9378635654288169 1.158842438931754e-07 0.0001412329912353591)
(0.9378619421963144 2.666908077177906e-07 0.0001412242831810143)
(0.9378621610255369 2.793564318542347e-07 0.000141219534342101)
(0.937861689548467 4.575004343852151e-07 0.0001412111232573403)
(0.9378626371057507 8.478917903877791e-07 0.0001412070556501651)
(0.9378609457136793 3.956821487004973e-07 0.0001411992975808423)
(0.9378631293577634 7.72711689295694e-07 0.0001411968924963291)
(0.9378605108495042 3.347253224639356e-07 0.000141189812865506)
(0.9378629979257932 -5.206802250345868e-07 0.0001411893442685957)
(0.937860232671239 -1.587805814672881e-06 0.0001411836807831975)
(0.9378628334368743 -1.004939045021421e-06 0.0001411857169076887)
(0.9378602038359034 -9.175962039120098e-07 0.0001411814512724799)
(0.937862696028003 2.932780404155484e-07 0.0001411856714267116)
(0.9378616042950301 1.565026350466202e-06 0.000141182654920784)
(0.9378644364447832 -1.482920516289854e-06 0.0001411888742579397)
(0.9378607909972934 -8.267958134449334e-07 0.000141187655492798)
(0.9378627933512139 -2.089187559354257e-07 0.0001411957580082553)
(0.937861068732284 -2.763486801073417e-07 0.0001411952013195794)
(0.9378635935814966 4.383852619048294e-07 0.00014120538073247)
(0.937862141442256 1.502584833758324e-07 0.0001412054544155195)
(0.9378618666117053 -2.4010061010096e-07 0.0001412169812196464)
(0.9378618654250482 4.005435982316406e-07 0.0001412172044012178)
(0.9378613980788071 2.209340061423773e-07 0.0001412295256099104)
(0.9378617623420871 5.353627058653614e-07 0.0001412291750649445)
(0.9378613993335442 2.104378612343391e-07 0.0001412421284402437)
(0.9378614040867973 -1.438824227393915e-07 0.0001412408131299889)
(0.9378607127114813 1.521974197715117e-06 0.000141253742722368)
(0.9378603405175853 -1.624837880537776e-07 0.0001412500290612534)
(0.9378606819140713 -2.703157236616442e-07 0.0001412632398677087)
(0.9378595496902893 -4.06598379278891e-07 0.0001412577070723943)
(0.9378624838665857 -5.763411540666996e-07 0.0001412705172946201)
(0.9378610089690442 -9.091626788739714e-07 0.0001412624856063484)
(0.9378630309189818 4.100498338119656e-07 0.00014127449860005)
(0.937862985672115 1.20642930605704e-06 0.0001412633800256785)
(0.9378662148231032 -1.455330220623408e-06 0.0001412745059290185)
(0.9378645740038869 -1.020883617484e-06 0.0001412607946939762)
(0.9378638133124566 -1.114187771327807e-06 0.0001412710156708599)
(0.9378636990000068 -1.129232505720279e-07 0.0001412541579008078)
(0.9378639821576765 4.13249549654839e-07 0.0001412641025132671)
(0.9378645227105139 4.87850586703542e-07 0.0001412442175077964)
(0.9378638791283282 1.295261984999045e-06 0.0001412539652077752)
(0.9378640776490849 -1.978065302562321e-07 0.0001412295036869557)
(0.9948731551260047 8.62710848367107e-07 0.0001506977225516772)
(0.9948742134679929 8.050143368939696e-07 0.0001507053204107476)
(0.9948741069496366 2.398422273413019e-07 0.0001506993789175347)
(0.9948736049240289 3.926837060583201e-07 0.0001506904680861237)
(0.9948733631121693 3.261314984684078e-07 0.0001506847331126718)
(0.9948731837114647 5.128724673266231e-07 0.0001506758778223371)
(0.9948742414318276 7.823534616128728e-07 0.0001506708951267364)
(0.9948728266683133 4.04488088295659e-07 0.0001506626172270594)
(0.9948743451047837 7.790802884784039e-07 0.0001506591171748595)
(0.9948729857163088 2.709387143133642e-07 0.0001506517524301267)
(0.9948746470383546 -3.516398840503216e-07 0.0001506501979583051)
(0.9948723153159115 -1.365719983878631e-06 0.000150644174397509)
(0.9948735855991367 -1.035035786400482e-06 0.0001506450041963782)
(0.9948714647854897 -7.390346966927022e-07 0.0001506405622791693)
(0.9948728747617193 -1.43701869996095e-09 0.0001506437376293191)
(0.9948723688683897 1.246224161284293e-06 0.0001506408886880364)
(0.9948744593956186 -1.204954231458677e-06 0.0001506463219586354)
(0.9948709753779151 -6.866800108286241e-07 0.000150645136494971)
(0.9948728966642953 -1.226468821217166e-07 0.0001506528512077435)
(0.994871281016104 -3.41884313983272e-07 0.0001506527167279752)
(0.9948734708414707 3.598337620301023e-07 0.0001506625145874231)
(0.994872354797826 1.477922158492428e-07 0.0001506633215992776)
(0.9948722351520253 -1.745439715304969e-07 0.000150674680957182)
(0.9948723425347135 3.424881315294693e-07 0.0001506757690846171)
(0.9948721507222054 2.747740655443356e-07 0.000150688183258616)
(0.994872656503942 4.416150178938843e-07 0.0001506889448875839)
(0.9948723951604034 2.954324723597457e-07 0.0001507020101988429)
(0.994872412864638 -3.442074513047693e-08 0.0001507017822465487)
(0.9948721687731567 1.358121569608405e-06 0.0001507150507078183)
(0.9948725646785667 -9.203154060090819e-08 0.0001507127877097044)
(0.9948724712237763 -2.904554526839144e-07 0.0001507261300400405)
(0.9948715861636807 -4.456805835192619e-07 0.000150721806404631)
(0.9948732483069418 -6.467527432562619e-07 0.0001507346444503724)
(0.9948723665516137 -8.464583552579942e-07 0.0001507277271795533)
(0.9948731303164965 7.173469141846905e-09 0.0001507397217010303)
(0.9948738609734475 8.442238275048552e-07 0.0001507296910864102)
(0.9948755980554959 -1.301721701767789e-06 0.0001507407768313563)
(0.9948745278294412 -9.950720806444228e-07 0.0001507276864554966)
(0.9948733026371795 -9.441103907367462e-07 0.0001507379482676089)
(0.9948737300789097 -1.680871389381413e-07 0.0001507213836798907)
(0.9948736059952644 4.089296623315456e-07 0.0001507314280576517)
(0.9948745705159281 3.942846896103611e-07 0.0001507113456778703)
(0.994873729026761 1.207647845187841e-06 0.000150721376108684)
(0.9948747769247636 2.674919165743826e-08 0.0001506960890339073)
(1.040471011230854 7.706741750987505e-07 0.000158480024952066)
(1.040472331788423 7.502908554862837e-07 0.000158487885219686)
(1.040471981003549 3.019928941647815e-07 0.0001584812791509647)
(1.040472127920922 4.482767138308878e-07 0.0001584721274214472)
(1.04047157422134 3.508035180766115e-07 0.000158465626780709)
(1.040471693626929 5.106886743852589e-07 0.000158456394428684)
(1.040472642683663 7.118329657119392e-07 0.0001584506424808626)
(1.040471593527024 3.984575611675959e-07 0.0001584419661083972)
(1.040472823024886 7.390661130335709e-07 0.0001584376283082874)
(1.040471952661993 1.842080737641334e-07 0.0001584299346684391)
(1.040473251360251 -2.435312960885794e-07 0.0001584275521806236)
(1.040471450480778 -1.087303706177098e-06 0.000158421253328749)
(1.040472177302171 -9.558502095058787e-07 0.0001584212109211186)
(1.04047045235047 -5.362069715948984e-07 0.00015841660982892)
(1.040471305894263 -1.515437619491745e-07 0.000158419014863609)
(1.040470786373274 9.745314814748622e-07 0.0001584161867748973)
(1.040472631917254 -9.347484750294246e-07 0.0001584210848886174)
(1.040469491690244 -5.74168280239784e-07 0.0001584199334481212)
(1.040471302114537 -7.539780266136992e-08 0.0001584273285553298)
(1.040469658602002 -3.514445456559031e-07 0.0001584274859846303)
(1.040471640150551 2.97511879817594e-07 0.0001584370342816674)
(1.040470640446959 1.222814345052313e-07 0.0001584383643572649)
(1.040470524963295 -1.081664003461315e-07 0.0001584496342795335)
(1.040470784547795 2.741016434394034e-07 0.0001584513712987983)
(1.040470580542425 2.408369569124488e-07 0.0001584638732548745)
(1.040471207157407 3.434982992952229e-07 0.000158465442436338)
(1.040470790001305 3.459501569338783e-07 0.0001584786579497275)
(1.040471141969523 2.40961295882056e-08 0.0001584792840855781)
(1.040470907139626 1.145137973041083e-06 0.0001584928415999913)
(1.04047171043233 -6.4231549313891e-08 0.0001584915926045733)
(1.04047142552761 -3.21924428158218e-07 0.0001585051744900712)
(1.040470751016641 -4.269950566830116e-07 0.0001585017160002269)
(1.040471696075572 -6.53983700509098e-07 0.0001585147581062885)
(1.040471128235623 -7.384438572451571e-07 0.0001585085784751459)
(1.040471343708336 -2.553604463195248e-07 0.000158520773895746)
(1.040472044796757 5.502139069454146e-07 0.0001585113399406461)
(1.04047310438905 -1.127733713050678e-06 0.0001585226549598489)
(1.040472343937225 -9.317876683663308e-07 0.000158509828503283)
(1.040471000813106 -7.747846146206217e-07 0.000158520379157398)
(1.040471662790921 -1.99367984146775e-07 0.0001585037678402035)
(1.040471134575732 3.841088212079453e-07 0.0001585141465001001)
(1.040472288289583 3.136744252551654e-07 0.0001584935972392609)
(1.040471241885372 1.074494942342902e-06 0.0001585041520277329)
(1.040472718528049 1.628768295060081e-07 0.0001584779201822685)
(1.076677273599413 6.960434181447932e-07 0.0001648014562629633)
(1.076678680986682 6.86892582788361e-07 0.0001648095636931356)
(1.076678203709623 3.266833547849575e-07 0.0001648024894781458)
(1.076678695265874 4.633587275745241e-07 0.0001647930944895085)
(1.076677955723668 3.558941558172835e-07 0.0001647860296502242)
(1.076678259797727 4.721605505019109e-07 0.0001647764490024539)
(1.07667911421175 6.423658591636335e-07 0.0001647701064397487)
(1.076678287851293 3.667268809341352e-07 0.0001647610525713864)