/*--------------------------------*- C++ -*----------------------------------*\
| =========                 |                                                 |
| \\      /  F ield         | OpenFOAM: The Open Source CFD Toolbox           |
|  \\    /   O peration     | Version:  v1812                                 |
|   \\  /    A nd           | Web:      www.OpenFOAM.com                      |
|    \\/     M anipulation  |                                                 |
\*---------------------------------------------------------------------------*/
FoamFile
{
    version     2.0;
    format      ascii;
    class       volScalarField;
    location    "20000";
    object      nut;
}
// * * * * * * * * * * * * * * * * * * * * * * * * * * * * * * * * * * * * * //

dimensions      [0 2 -1 0 0 0 0];


internalField   nonuniform List<scalar> 
3770
(
0.0001427878867137276
0.0001427878867137276
0.0001427878867137277
0.0001427878867137277
0.0001427878867137276
0.0001427878867137276
0.0001427878867137278
0.0001427878867137275
0.0001427878867137276
0.0001427878867137279
0.0001427878867137275
0.0001427878867137279
0.0001427878867137277
0.0001427878867137278
0.0001427878867137276
0.0001427878867137274
0.000142787886713728
0.0001427878867137273
0.0001427878867137282
0.0001427878867137277
0.0001427878867137274
0.000142787886713728
0.0001427878867137274
0.0001427878867137278
0.0001427878867137277
0.0001427878867137276
0.0001427878867137277
0.0001427878867137277
0.0001427878867137277
0.0001427878867137281
0.0001427878867137271
0.0001427878867137279
0.0001427878867137277
0.0001427878867137279
0.0001427878867137276
0.0001427878867137274
0.0001427878867137277
0.0001427878867137282
0.0001427878867137278
0.0001427878867137279
0.0001427878867137271
0.0001427878867137275
0.0001427878867137277
0.0001427878867137278
0.0001427878867137277
0.0001427878867137277
0.0001427878867137279
0.0001427878867137283
0.0001427878867137271
0.0001427878867137278
0.0001427878867137278
0.0001427878867137271
0.0001427878867137279
0.0001427878867137289
0.0001427878867137277
0.0001427878867137271
0.0001427878867137271
0.0001427878867137289
5.055442877736616e-05
5.055442877736523e-05
5.055442877736468e-05
5.055442877736361e-05
5.055442877736523e-05
5.055442877736422e-05
5.055442877736241e-05
5.055442877736283e-05
5.055442877736279e-05
5.05544287773649e-05
5.05544287773634e-05
5.055442877736223e-05
5.055442877736473e-05
5.05544287773637e-05
5.055442877736219e-05
5.055442877736458e-05
5.055442877736389e-05
5.055442877736206e-05
5.055442877736501e-05
5.055442877736332e-05
5.055442877736194e-05
5.055442877736475e-05
5.055442877736356e-05
5.055442877736201e-05
5.05544287773646e-05
5.055442877736347e-05
5.055442877736202e-05
5.055442877736438e-05
5.055442877736386e-05
5.055442877736215e-05
5.055442877736415e-05
5.055442877736348e-05
5.055442877736229e-05
5.05544287773646e-05
5.055442877736345e-05
5.055442877736204e-05
5.055442877736513e-05
5.055442877736396e-05
5.055442877736172e-05
5.055442877736263e-05
5.055442877736266e-05
5.055442877736498e-05
5.055442877736376e-05
5.055442877736255e-05
5.055442877736456e-05
5.055442877736401e-05
5.055442877736254e-05
5.055442877736546e-05
5.055442877736357e-05
5.055442877736269e-05
5.055442877736427e-05
5.055442877736388e-05
5.055442877736423e-05
5.05544287773645e-05
5.055442877736433e-05
5.055442877736297e-05
5.055442877736562e-05
5.05544287773659e-05
0.000298159468946335
0.0002981594689463255
0.0002981594689463271
0.0002981594689463225
0.0002981594689463297
0.0002981594689463257
0.0002981594689463131
0.000298159468946315
0.0002981594689463154
0.0002981594689463276
0.0002981594689463198
0.0002981594689463117
0.0002981594689463262
0.0002981594689463211
0.0002981594689463119
0.0002981594689463264
0.0002981594689463219
0.0002981594689463115
0.0002981594689463271
0.0002981594689463195
0.0002981594689463105
0.0002981594689463251
0.0002981594689463212
0.0002981594689463114
0.0002981594689463251
0.0002981594689463201
0.0002981594689463121
0.0002981594689463241
0.0002981594689463213
0.000298159468946312
0.0002981594689463223
0.00029815946894632
0.000298159468946312
0.0002981594689463262
0.000298159468946319
0.0002981594689463109
0.0002981594689463278
0.0002981594689463232
0.0002981594689463086
0.0002981594689463141
0.0002981594689463136
0.0002981594689463285
0.0002981594689463224
0.0002981594689463142
0.000298159468946325
0.000298159468946322
0.000298159468946313
0.000298159468946331
0.0002981594689463213
0.0002981594689463157
0.0002981594689463284
0.0002981594689463224
0.0002981594689463186
0.0002981594689463254
0.0002981594689463266
0.0002981594689463172
0.000298159468946332
0.0002981594689463339
0.0006052700563825511
0.0006052700563825545
0.0006052700563825523
0.0006052700563825482
0.0006052700563825563
0.0006052700563825489
0.0006052700563825269
0.0006052700563825338
0.0006052700563825345
0.0006052700563825523
0.0006052700563825381
0.0006052700563825286
0.0006052700563825503
0.0006052700563825418
0.0006052700563825276
0.0006052700563825523
0.0006052700563825421
0.0006052700563825279
0.0006052700563825531
0.0006052700563825397
0.0006052700563825265
0.0006052700563825494
0.0006052700563825417
0.0006052700563825268
0.0006052700563825503
0.0006052700563825403
0.0006052700563825279
0.0006052700563825487
0.0006052700563825412
0.000605270056382528
0.0006052700563825452
0.0006052700563825403
0.0006052700563825285
0.0006052700563825499
0.0006052700563825385
0.0006052700563825256
0.0006052700563825521
0.0006052700563825429
0.0006052700563825221
0.0006052700563825323
0.0006052700563825321
0.0006052700563825508
0.0006052700563825385
0.0006052700563825297
0.0006052700563825481
0.000605270056382542
0.0006052700563825263
0.0006052700563825545
0.0006052700563825399
0.0006052700563825289
0.0006052700563825511
0.000605270056382539
0.0006052700563825335
0.0006052700563825443
0.0006052700563825464
0.0006052700563825292
0.0006052700563825549
0.0006052700563825539
0.0009036913294071652
0.0009036913294071808
0.0009036913294071791
0.0009036913294071802
0.0009036913294071848
0.0009036913294071772
0.0009036913294071489
0.0009036913294071585
0.0009036913294071585
0.0009036913294071802
0.0009036913294071628
0.000903691329407153
0.0009036913294071792
0.0009036913294071687
0.000903691329407152
0.0009036913294071813
0.0009036913294071681
0.000903691329407152
0.0009036913294071835
0.0009036913294071655
0.0009036913294071506
0.0009036913294071794
0.0009036913294071663
0.0009036913294071504
0.0009036913294071797
0.0009036913294071658
0.0009036913294071506
0.0009036913294071766
0.0009036913294071671
0.000903691329407152
0.000903691329407174
0.0009036913294071657
0.0009036913294071514
0.0009036913294071783
0.0009036913294071629
0.0009036913294071496
0.0009036913294071798
0.0009036913294071668
0.0009036913294071438
0.000903691329407157
0.000903691329407157
0.0009036913294071773
0.0009036913294071625
0.0009036913294071519
0.0009036913294071764
0.0009036913294071653
0.0009036913294071483
0.0009036913294071816
0.0009036913294071635
0.0009036913294071488
0.0009036913294071765
0.0009036913294071641
0.0009036913294071522
0.0009036913294071726
0.0009036913294071701
0.0009036913294071499
0.0009036913294071827
0.0009036913294071717
0.001182641106280731
0.001182641106280761
0.001182641106280759
0.001182641106280764
0.001182641106280767
0.001182641106280757
0.001182641106280726
0.001182641106280735
0.001182641106280735
0.001182641106280761
0.001182641106280741
0.001182641106280731
0.001182641106280761
0.001182641106280748
0.001182641106280732
0.001182641106280765
0.001182641106280748
0.001182641106280731
0.001182641106280767
0.001182641106280744
0.001182641106280729
0.001182641106280763
0.001182641106280746
0.00118264110628073
0.001182641106280762
0.001182641106280746
0.00118264110628073
0.00118264110628076
0.001182641106280746
0.001182641106280731
0.001182641106280756
0.001182641106280745
0.001182641106280729
0.00118264110628076
0.001182641106280741
0.001182641106280728
0.001182641106280762
0.001182641106280744
0.00118264110628072
0.001182641106280734
0.001182641106280733
0.001182641106280758
0.001182641106280742
0.001182641106280729
0.001182641106280757
0.001182641106280744
0.001182641106280723
0.001182641106280762
0.001182641106280741
0.001182641106280725
0.001182641106280757
0.001182641106280741
0.001182641106280727
0.001182641106280752
0.001182641106280747
0.001182641106280725
0.001182641106280762
0.001182641106280743
0.001447577969089787
0.001447577969089834
0.001447577969089829
0.001447577969089837
0.001447577969089841
0.001447577969089829
0.001447577969089794
0.001447577969089805
0.001447577969089804
0.001447577969089835
0.001447577969089812
0.001447577969089803
0.001447577969089837
0.001447577969089822
0.001447577969089803
0.001447577969089841
0.00144757796908982
0.001447577969089803
0.001447577969089842
0.001447577969089817
0.001447577969089801
0.001447577969089839
0.001447577969089818
0.001447577969089802
0.001447577969089837
0.001447577969089818
0.0014475779690898
0.001447577969089837
0.001447577969089818
0.001447577969089802
0.001447577969089832
0.001447577969089817
0.001447577969089801
0.001447577969089834
0.001447577969089812
0.0014475779690898
0.001447577969089837
0.001447577969089815
0.001447577969089789
0.001447577969089805
0.001447577969089804
0.001447577969089832
0.001447577969089812
0.001447577969089799
0.00144757796908983
0.001447577969089814
0.001447577969089793
0.001447577969089836
0.00144757796908981
0.001447577969089794
0.001447577969089829
0.001447577969089809
0.001447577969089795
0.001447577969089821
0.001447577969089816
0.001447577969089792
0.001447577969089831
0.001447577969089804
0.001706677586095828
0.001706677586095895
0.001706677586095887
0.001706677586095899
0.001706677586095901
0.001706677586095889
0.00170667758609585
0.001706677586095862
0.001706677586095861
0.001706677586095894
0.00170667758609587
0.001706677586095862
0.001706677586095899
0.001706677586095882
0.001706677586095863
0.001706677586095906
0.001706677586095881
0.001706677586095862
0.001706677586095906
0.001706677586095878
0.00170667758609586
0.001706677586095902
0.001706677586095878
0.001706677586095861
0.001706677586095898
0.001706677586095877
0.00170667758609586
0.001706677586095899
0.001706677586095877
0.00170667758609586
0.001706677586095895
0.001706677586095876
0.001706677586095859
0.001706677586095895
0.001706677586095871
0.001706677586095857
0.001706677586095898
0.001706677586095872
0.001706677586095847
0.001706677586095864
0.001706677586095863
0.001706677586095893
0.00170667758609587
0.001706677586095857
0.00170667758609589
0.001706677586095872
0.001706677586095849
0.001706677586095894
0.001706677586095866
0.00170667758609585
0.001706677586095889
0.001706677586095866
0.001706677586095849
0.001706677586095878
0.00170667758609587
0.001706677586095847
0.001706677586095887
0.001706677586095849
0.001969253447713766
0.001969253447713856
0.001969253447713848
0.001969253447713861
0.001969253447713864
0.00196925344771385
0.001969253447713808
0.001969253447713822
0.00196925344771382
0.001969253447713857
0.001969253447713831
0.001969253447713822
0.001969253447713861
0.001969253447713844
0.001969253447713824
0.001969253447713871
0.001969253447713842
0.001969253447713825
0.001969253447713869
0.00196925344771384
0.001969253447713822
0.001969253447713867
0.001969253447713839
0.001969253447713822
0.001969253447713861
0.001969253447713839
0.00196925344771382
0.001969253447713864
0.001969253447713838
0.00196925344771382
0.001969253447713859
0.001969253447713837
0.001969253447713819
0.001969253447713858
0.001969253447713832
0.001969253447713817
0.001969253447713861
0.001969253447713833
0.001969253447713806
0.001969253447713825
0.001969253447713825
0.001969253447713855
0.001969253447713831
0.001969253447713816
0.001969253447713852
0.001969253447713832
0.001969253447713808
0.001969253447713854
0.001969253447713826
0.001969253447713808
0.001969253447713848
0.001969253447713824
0.001969253447713806
0.001969253447713835
0.001969253447713827
0.001969253447713802
0.001969253447713841
0.001969253447713794
0.002246615190385448
0.002246615190385565
0.002246615190385556
0.002246615190385569
0.002246615190385572
0.002246615190385557
0.002246615190385512
0.002246615190385528
0.002246615190385525
0.002246615190385566
0.002246615190385538
0.002246615190385529
0.002246615190385571
0.002246615190385552
0.002246615190385531
0.002246615190385584
0.002246615190385552
0.002246615190385533
0.00224661519038558
0.002246615190385549
0.002246615190385531
0.002246615190385578
0.002246615190385547
0.00224661519038553
0.002246615190385571
0.002246615190385547
0.002246615190385528
0.002246615190385575
0.002246615190385546
0.002246615190385528
0.002246615190385571
0.002246615190385545
0.002246615190385525
0.00224661519038557
0.002246615190385541
0.002246615190385522
0.00224661519038557
0.00224661519038554
0.002246615190385511
0.002246615190385533
0.002246615190385533
0.002246615190385564
0.002246615190385538
0.002246615190385522
0.002246615190385562
0.002246615190385538
0.002246615190385515
0.002246615190385561
0.002246615190385533
0.002246615190385513
0.002246615190385555
0.002246615190385529
0.002246615190385509
0.00224661519038554
0.002246615190385532
0.002246615190385505
0.002246615190385542
0.002246615190385483
0.002552401545252497
0.002552401545252643
0.002552401545252638
0.00255240154525265
0.002552401545252652
0.002552401545252635
0.002552401545252589
0.002552401545252605
0.002552401545252604
0.002552401545252648
0.002552401545252618
0.002552401545252606
0.002552401545252654
0.002552401545252634
0.002552401545252613
0.002552401545252668
0.002552401545252635
0.002552401545252615
0.002552401545252665
0.002552401545252632
0.002552401545252612
0.002552401545252661
0.002552401545252629
0.00255240154525261
0.002552401545252654
0.002552401545252629
0.002552401545252608
0.00255240154525266
0.002552401545252628
0.002552401545252607
0.002552401545252654
0.002552401545252626
0.002552401545252604
0.002552401545252653
0.00255240154525262
0.002552401545252601
0.002552401545252654
0.00255240154525262
0.00255240154525259
0.002552401545252615
0.002552401545252615
0.002552401545252644
0.002552401545252618
0.0025524015452526
0.002552401545252641
0.002552401545252615
0.002552401545252592
0.002552401545252641
0.002552401545252612
0.002552401545252591
0.002552401545252634
0.002552401545252608
0.002552401545252585
0.002552401545252618
0.002552401545252607
0.002552401545252582
0.002552401545252615
0.002552401545252541
0.002901406260384972
0.002901406260385152
0.002901406260385157
0.002901406260385164
0.002901406260385164
0.002901406260385147
0.002901406260385098
0.002901406260385117
0.002901406260385115
0.002901406260385164
0.002901406260385133
0.002901406260385119
0.002901406260385169
0.002901406260385149
0.002901406260385127
0.002901406260385186
0.002901406260385152
0.002901406260385131
0.002901406260385183
0.002901406260385148
0.002901406260385127
0.002901406260385179
0.002901406260385144
0.002901406260385124
0.00290140626038517
0.002901406260385146
0.002901406260385124
0.002901406260385175
0.002901406260385144
0.002901406260385121
0.00290140626038517
0.002901406260385142
0.002901406260385118
0.00290140626038517
0.002901406260385134
0.002901406260385114
0.002901406260385169
0.002901406260385134
0.0029014062603851
0.00290140626038513
0.00290140626038513
0.002901406260385159
0.002901406260385131
0.002901406260385113
0.002901406260385155
0.002901406260385127
0.002901406260385104
0.002901406260385157
0.002901406260385125
0.002901406260385099
0.002901406260385145
0.002901406260385121
0.002901406260385096
0.002901406260385126
0.002901406260385117
0.002901406260385092
0.00290140626038512
0.002901406260385029
0.003306669781324977
0.003306669781325187
0.003306669781325201
0.003306669781325207
0.003306669781325209
0.003306669781325194
0.003306669781325144
0.003306669781325164
0.003306669781325162
0.003306669781325215
0.003306669781325183
0.003306669781325168
0.00330666978132522
0.003306669781325202
0.003306669781325179
0.003306669781325239
0.003306669781325205
0.003306669781325183
0.003306669781325236
0.003306669781325203
0.003306669781325178
0.003306669781325232
0.003306669781325195
0.003306669781325176
0.003306669781325221
0.003306669781325197
0.003306669781325176
0.003306669781325228
0.003306669781325197
0.003306669781325174
0.003306669781325225
0.003306669781325195
0.00330666978132517
0.003306669781325223
0.003306669781325186
0.003306669781325162
0.003306669781325221
0.003306669781325186
0.003306669781325149
0.00330666978132518
0.003306669781325181
0.003306669781325208
0.003306669781325182
0.003306669781325162
0.003306669781325205
0.003306669781325177
0.003306669781325152
0.003306669781325208
0.003306669781325173
0.003306669781325146
0.003306669781325192
0.003306669781325172
0.003306669781325143
0.003306669781325168
0.003306669781325162
0.003306669781325139
0.003306669781325162
0.003306669781325049
0.003775500710215327
0.003775500710215561
0.003775500710215593
0.003775500710215602
0.003775500710215606
0.00377550071021559
0.003775500710215543
0.003775500710215562
0.00377550071021556
0.00377550071021562
0.003775500710215589
0.00377550071021557
0.003775500710215621
0.003775500710215607
0.003775500710215584
0.003775500710215646
0.003775500710215614
0.003775500710215591
0.003775500710215644
0.003775500710215612
0.003775500710215586
0.003775500710215641
0.003775500710215604
0.003775500710215581
0.003775500710215627
0.003775500710215604
0.003775500710215584
0.003775500710215638
0.003775500710215606
0.00377550071021558
0.003775500710215633
0.003775500710215605
0.00377550071021558
0.003775500710215628
0.003775500710215594
0.003775500710215566
0.003775500710215627
0.003775500710215592
0.003775500710215553
0.003775500710215581
0.003775500710215582
0.00377550071021561
0.003775500710215587
0.003775500710215567
0.003775500710215609
0.003775500710215583
0.003775500710215558
0.003775500710215614
0.003775500710215576
0.003775500710215548
0.003775500710215592
0.003775500710215579
0.00377550071021555
0.003775500710215564
0.003775500710215561
0.003775500710215548
0.003775500710215558
0.003775500710215423
0.004306038743762958
0.004306038743763207
0.004306038743763259
0.004306038743763276
0.004306038743763283
0.004306038743763272
0.004306038743763229
0.004306038743763245
0.004306038743763244
0.004306038743763308
0.004306038743763283
0.00430603874376326
0.004306038743763311
0.004306038743763301
0.004306038743763281
0.004306038743763339
0.004306038743763312
0.00430603874376329
0.004306038743763338
0.004306038743763309
0.004306038743763283
0.004306038743763336
0.004306038743763301
0.004306038743763276
0.00430603874376332
0.004306038743763299
0.004306038743763282
0.004306038743763332
0.004306038743763303
0.004306038743763279
0.004306038743763329
0.004306038743763303
0.004306038743763278
0.004306038743763323
0.004306038743763289
0.00430603874376326
0.004306038743763317
0.004306038743763286
0.004306038743763249
0.004306038743763274
0.004306038743763275
0.004306038743763301
0.004306038743763282
0.004306038743763262
0.004306038743763299
0.004306038743763276
0.00430603874376325
0.004306038743763308
0.00430603874376327
0.004306038743763243
0.004306038743763279
0.004306038743763277
0.004306038743763251
0.004306038743763249
0.004306038743763251
0.004306038743763252
0.004306038743763247
0.004306038743763086
0.00488623536135543
0.004886235361355683
0.00488623536135576
0.004886235361355787
0.0048862353613558
0.004886235361355793
0.004886235361355758
0.004886235361355773
0.004886235361355771
0.004886235361355835
0.004886235361355812
0.004886235361355795
0.00488623536135584
0.004886235361355836
0.004886235361355819
0.004886235361355871
0.004886235361355852
0.004886235361355832
0.004886235361355878
0.004886235361355851
0.004886235361355827
0.004886235361355875
0.004886235361355841
0.004886235361355819
0.004886235361355854
0.004886235361355839
0.004886235361355826
0.004886235361355871
0.004886235361355841
0.004886235361355822
0.004886235361355867
0.004886235361355845
0.00488623536135582
0.004886235361355863
0.004886235361355829
0.0048862353613558
0.004886235361355852
0.004886235361355826
0.004886235361355793
0.004886235361355815
0.004886235361355815
0.004886235361355835
0.004886235361355821
0.004886235361355801
0.004886235361355836
0.004886235361355813
0.004886235361355792
0.004886235361355845
0.004886235361355812
0.004886235361355787
0.004886235361355813
0.004886235361355819
0.004886235361355798
0.004886235361355781
0.004886235361355788
0.004886235361355793
0.004886235361355779
0.004886235361355603
0.005496122010536766
0.005496122010536998
0.005496122010537107
0.005496122010537149
0.005496122010537167
0.005496122010537165
0.005496122010537148
0.005496122010537158
0.005496122010537156
0.005496122010537213
0.0054961220105372
0.005496122010537185
0.00549612201053722
0.005496122010537225
0.005496122010537218
0.005496122010537257
0.005496122010537249
0.005496122010537234
0.005496122010537272
0.00549612201053725
0.005496122010537227
0.005496122010537268
0.005496122010537239
0.005496122010537217
0.005496122010537243
0.005496122010537233
0.005496122010537226
0.005496122010537265
0.005496122010537236
0.005496122010537221
0.005496122010537261
0.005496122010537242
0.005496122010537223
0.005496122010537256
0.005496122010537228
0.0054961220105372
0.005496122010537246
0.005496122010537224
0.005496122010537189
0.005496122010537211
0.005496122010537211
0.005496122010537219
0.005496122010537216
0.005496122010537201
0.005496122010537227
0.005496122010537208
0.005496122010537192
0.005496122010537241
0.005496122010537211
0.005496122010537191
0.00549612201053721
0.005496122010537216
0.005496122010537197
0.005496122010537171
0.005496122010537182
0.005496122010537186
0.005496122010537164
0.005496122010536991
0.006112438668793738
0.006112438668793931
0.006112438668794068
0.006112438668794129
0.006112438668794152
0.006112438668794155
0.006112438668794157
0.006112438668794161
0.006112438668794153
0.006112438668794211
0.006112438668794207
0.006112438668794195
0.006112438668794226
0.006112438668794236
0.006112438668794237
0.006112438668794259
0.006112438668794263
0.006112438668794257
0.00611243866879428
0.006112438668794269
0.006112438668794252
0.006112438668794278
0.006112438668794258
0.006112438668794242
0.006112438668794251
0.006112438668794247
0.00611243866879425
0.006112438668794276
0.00611243866879425
0.00611243866879425
0.006112438668794275
0.006112438668794257
0.006112438668794248
0.006112438668794273
0.006112438668794248
0.00611243866879422
0.006112438668794257
0.00611243866879424
0.00611243866879421
0.006112438668794225
0.006112438668794226
0.006112438668794225
0.006112438668794229
0.006112438668794223
0.006112438668794241
0.006112438668794224
0.006112438668794218
0.006112438668794257
0.006112438668794233
0.006112438668794217
0.00611243866879423
0.006112438668794237
0.006112438668794221
0.006112438668794196
0.006112438668794209
0.006112438668794209
0.006112438668794174
0.00611243866879401
0.006713504723411455
0.006713504723411597
0.006713504723411747
0.006713504723411833
0.006713504723411859
0.006713504723411859
0.00671350472341188
0.006713504723411885
0.006713504723411875
0.006713504723411933
0.006713504723411935
0.006713504723411919
0.006713504723411958
0.006713504723411976
0.006713504723411979
0.006713504723411993
0.006713504723412009
0.006713504723412004
0.006713504723412013
0.006713504723412014
0.006713504723412003
0.006713504723412018
0.006713504723412003
0.00671350472341199
0.006713504723411994
0.006713504723411982
0.006713504723411994
0.006713504723412014
0.00671350472341199
0.006713504723412003
0.006713504723412015
0.006713504723411995
0.006713504723411999
0.006713504723412014
0.006713504723411996
0.006713504723411969
0.006713504723411992
0.006713504723411983
0.006713504723411954
0.006713504723411962
0.006713504723411959
0.006713504723411955
0.006713504723411971
0.006713504723411973
0.006713504723411979
0.006713504723411966
0.006713504723411974
0.006713504723412001
0.006713504723411983
0.006713504723411964
0.006713504723411977
0.006713504723411983
0.006713504723411971
0.006713504723411946
0.006713504723411952
0.00671350472341195
0.006713504723411914
0.006713504723411768
0.00728249005465746
0.007282490054657548
0.007282490054657698
0.007282490054657806
0.007282490054657829
0.007282490054657823
0.007282490054657868
0.007282490054657873
0.007282490054657855
0.007282490054657919
0.007282490054657924
0.0072824900546579
0.007282490054657947
0.007282490054657978
0.007282490054657977
0.007282490054657986
0.007282490054658014
0.007282490054658014
0.007282490054658011
0.00728249005465802
0.007282490054658016
0.007282490054658023
0.007282490054658014
0.007282490054658004
0.007282490054658002
0.007282490054657979
0.007282490054658004
0.00728249005465802
0.007282490054657987
0.007282490054658014
0.007282490054658021
0.007282490054657993
0.007282490054658012
0.007282490054658021
0.007282490054658006
0.007282490054657985
0.007282490054657991
0.007282490054657987
0.007282490054657965
0.007282490054657966
0.007282490054657962
0.007282490054657951
0.007282490054657976
0.007282490054657985
0.007282490054657984
0.007282490054657969
0.007282490054657986
0.007282490054658009
0.007282490054657995
0.007282490054657977
0.007282490054657994
0.007282490054657995
0.007282490054657986
0.007282490054657958
0.007282490054657965
0.007282490054657958
0.007282490054657927
0.007282490054657799
0.007808469744256105
0.00780846974425614
0.007808469744256275
0.007808469744256401
0.00780846974425642
0.007808469744256406
0.007808469744256468
0.007808469744256475
0.007808469744256449
0.007808469744256522
0.007808469744256527
0.007808469744256496
0.007808469744256553
0.007808469744256593
0.007808469744256586
0.007808469744256591
0.007808469744256631
0.007808469744256633
0.007808469744256617
0.007808469744256643
0.007808469744256647
0.007808469744256643
0.007808469744256642
0.007808469744256633
0.007808469744256628
0.007808469744256591
0.007808469744256626
0.007808469744256638
0.007808469744256598
0.007808469744256638
0.007808469744256642
0.007808469744256605
0.007808469744256635
0.007808469744256647
0.007808469744256631
0.007808469744256614
0.007808469744256611
0.007808469744256605
0.007808469744256591
0.00780846974425659
0.007808469744256581
0.00780846974425656
0.007808469744256597
0.007808469744256609
0.007808469744256607
0.007808469744256597
0.007808469744256616
0.007808469744256633
0.007808469744256626
0.007808469744256604
0.007808469744256626
0.007808469744256626
0.007808469744256612
0.007808469744256588
0.007808469744256593
0.007808469744256588
0.007808469744256562
0.007808469744256453
0.008285749559767257
0.008285749559767245
0.008285749559767354
0.008285749559767483
0.008285749559767498
0.008285749559767477
0.008285749559767552
0.008285749559767562
0.008285749559767528
0.008285749559767608
0.008285749559767614
0.008285749559767573
0.008285749559767639
0.008285749559767689
0.00828574955976768
0.00828574955976768
0.008285749559767734
0.008285749559767738
0.008285749559767706
0.008285749559767748
0.00828574955976775
0.008285749559767739
0.008285749559767745
0.008285749559767739
0.008285749559767729
0.008285749559767686
0.008285749559767727
0.008285749559767738
0.008285749559767691
0.008285749559767741
0.008285749559767746
0.008285749559767696
0.008285749559767743
0.00828574955976775
0.008285749559767739
0.008285749559767729
0.008285749559767722
0.008285749559767713
0.008285749559767703
0.008285749559767693
0.008285749559767682
0.008285749559767651
0.008285749559767699
0.008285749559767713
0.00828574955976771
0.008285749559767698
0.008285749559767727
0.008285749559767739
0.008285749559767736
0.00828574955976771
0.008285749559767736
0.008285749559767738
0.008285749559767729
0.008285749559767698
0.008285749559767705
0.008285749559767706
0.00828574955976768
0.008285749559767588
0.008712377723370647
0.008712377723370607
0.008712377723370676
0.008712377723370805
0.008712377723370815
0.008712377723370787
0.008712377723370874
0.008712377723370884
0.008712377723370843
0.008712377723370924
0.008712377723370938
0.008712377723370884
0.008712377723370959
0.008712377723371014
0.008712377723371016
0.008712377723371004
0.008712377723371066
0.008712377723371068
0.008712377723371028
0.008712377723371082
0.008712377723371089
0.00871237772337107
0.008712377723371077
0.008712377723371077
0.008712377723371065
0.008712377723371018
0.008712377723371063
0.00871237772337107
0.008712377723371016
0.008712377723371079
0.008712377723371084
0.008712377723371027
0.008712377723371082
0.008712377723371087
0.008712377723371079
0.008712377723371075
0.008712377723371072
0.008712377723371058
0.008712377723371042
0.008712377723371032
0.008712377723371018
0.008712377723370976
0.00871237772337103
0.008712377723371051
0.008712377723371046
0.00871237772337103
0.00871237772337107
0.008712377723371077
0.008712377723371073
0.008712377723371051
0.00871237772337108
0.00871237772337108
0.008712377723371072
0.00871237772337104
0.008712377723371058
0.00871237772337106
0.008712377723371032
0.008712377723370959
0.009088613535032706
0.009088613535032654
0.009088613535032684
0.0090886135350328
0.00908861353503281
0.009088613535032774
0.009088613535032861
0.00908861353503288
0.009088613535032826
0.009088613535032913
0.00908861353503293
0.009088613535032869
0.009088613535032947
0.009088613535033017
0.009088613535033013
0.009088613535032998
0.009088613535033065
0.009088613535033069
0.009088613535033017
0.009088613535033081
0.009088613535033095
0.009088613535033069
0.009088613535033086
0.009088613535033083
0.009088613535033067
0.009088613535033017
0.009088613535033064
0.009088613535033071
0.009088613535033012
0.009088613535033077
0.009088613535033088
0.009088613535033022
0.009088613535033084
0.009088613535033093
0.009088613535033081
0.009088613535033086
0.009088613535033084
0.009088613535033069
0.009088613535033046
0.009088613535033034
0.009088613535033017
0.009088613535032968
0.009088613535033029
0.009088613535033053
0.009088613535033048
0.009088613535033029
0.009088613535033081