/*--------------------------------*- C++ -*----------------------------------*\
| =========                 |                                                 |
| \\      /  F ield         | OpenFOAM: The Open Source CFD Toolbox           |
|  \\    /   O peration     | Version:  v1812                                 |
|   \\  /    A nd           | Web:      www.OpenFOAM.com                      |
|    \\/     M anipulation  |                                                 |
\*---------------------------------------------------------------------------*/
FoamFile
{
    version     2.0;
    format      ascii;
    class       volScalarField;
    location    "20000";
    object      nuTilda;
}
// * * * * * * * * * * * * * * * * * * * * * * * * * * * * * * * * * * * * * //

dimensions      [0 2 -1 0 0 0 0];


internalField   nonuniform List<scalar> 
3770
(
0.0004779015485858932
0.0004779015485858933
0.0004779015485858934
0.0004779015485858933
0.0004779015485858933
0.0004779015485858932
0.0004779015485858934
0.0004779015485858933
0.0004779015485858933
0.0004779015485858935
0.0004779015485858932
0.0004779015485858935
0.0004779015485858933
0.0004779015485858935
0.0004779015485858933
0.0004779015485858929
0.0004779015485858936
0.0004779015485858929
0.0004779015485858938
0.0004779015485858933
0.0004779015485858931
0.0004779015485858937
0.0004779015485858929
0.0004779015485858933
0.0004779015485858934
0.0004779015485858932
0.0004779015485858933
0.0004779015485858933
0.0004779015485858933
0.0004779015485858937
0.0004779015485858927
0.0004779015485858936
0.0004779015485858933
0.0004779015485858935
0.0004779015485858934
0.0004779015485858931
0.0004779015485858933
0.0004779015485858939
0.0004779015485858933
0.0004779015485858935
0.0004779015485858928
0.0004779015485858933
0.0004779015485858934
0.0004779015485858934
0.0004779015485858933
0.0004779015485858933
0.0004779015485858935
0.000477901548585894
0.0004779015485858927
0.0004779015485858933
0.0004779015485858934
0.0004779015485858928
0.0004779015485858935
0.0004779015485858946
0.0004779015485858934
0.0004779015485858927
0.0004779015485858927
0.0004779015485858946
0.0003507263571430335
0.0003507263571430317
0.0003507263571430307
0.0003507263571430287
0.0003507263571430318
0.0003507263571430299
0.0003507263571430259
0.0003507263571430266
0.0003507263571430268
0.0003507263571430313
0.0003507263571430283
0.0003507263571430261
0.0003507263571430309
0.0003507263571430289
0.000350726357143026
0.0003507263571430307
0.0003507263571430292
0.0003507263571430257
0.0003507263571430314
0.0003507263571430281
0.0003507263571430255
0.000350726357143031
0.0003507263571430287
0.0003507263571430256
0.0003507263571430307
0.0003507263571430284
0.0003507263571430256
0.0003507263571430301
0.0003507263571430292
0.0003507263571430259
0.0003507263571430299
0.0003507263571430285
0.0003507263571430262
0.0003507263571430307
0.0003507263571430284
0.0003507263571430256
0.0003507263571430317
0.0003507263571430295
0.0003507263571430252
0.0003507263571430274
0.0003507263571430272
0.0003507263571430313
0.0003507263571430292
0.0003507263571430267
0.0003507263571430306
0.0003507263571430296
0.0003507263571430267
0.0003507263571430323
0.0003507263571430288
0.0003507263571430269
0.00035072635714303
0.0003507263571430287
0.0003507263571430289
0.0003507263571430307
0.0003507263571430307
0.0003507263571430275
0.0003507263571430329
0.0003507263571430333
0.0006194638898579701
0.0006194638898579635
0.0006194638898579648
0.0006194638898579613
0.0006194638898579667
0.0006194638898579639
0.0006194638898579526
0.0006194638898579543
0.0006194638898579553
0.0006194638898579654
0.000619463889857959
0.0006194638898579525
0.000619463889857964
0.0006194638898579601
0.0006194638898579527
0.0006194638898579644
0.0006194638898579605
0.0006194638898579523
0.0006194638898579652
0.0006194638898579589
0.0006194638898579518
0.0006194638898579634
0.0006194638898579605
0.0006194638898579524
0.0006194638898579637
0.0006194638898579593
0.0006194638898579526
0.0006194638898579625
0.0006194638898579602
0.0006194638898579527
0.0006194638898579614
0.0006194638898579593
0.0006194638898579527
0.0006194638898579642
0.0006194638898579586
0.0006194638898579519
0.0006194638898579655
0.0006194638898579621
0.0006194638898579502
0.0006194638898579544
0.000619463889857954
0.0006194638898579664
0.0006194638898579613
0.0006194638898579545
0.0006194638898579631
0.0006194638898579611
0.0006194638898579536
0.0006194638898579681
0.0006194638898579606
0.0006194638898579557
0.0006194638898579665
0.0006194638898579609
0.0006194638898579578
0.0006194638898579638
0.000619463889857965
0.000619463889857957
0.0006194638898579696
0.0006194638898579707
0.0008541111483397115
0.0008541111483397139
0.0008541111483397129
0.00085411114833971
0.0008541111483397156
0.0008541111483397104
0.0008541111483396933
0.0008541111483396994
0.0008541111483397002
0.0008541111483397129
0.0008541111483397022
0.0008541111483396951
0.0008541111483397111
0.0008541111483397048
0.0008541111483396944
0.0008541111483397129
0.0008541111483397048
0.0008541111483396944
0.0008541111483397136
0.0008541111483397036
0.0008541111483396936
0.0008541111483397108
0.0008541111483397048
0.0008541111483396937
0.0008541111483397113
0.0008541111483397039
0.0008541111483396944
0.0008541111483397099
0.0008541111483397045
0.0008541111483396945
0.0008541111483397074
0.0008541111483397039
0.000854111148339695
0.000854111148339711
0.0008541111483397025
0.0008541111483396927
0.0008541111483397129
0.000854111148339706
0.0008541111483396903
0.0008541111483396989
0.0008541111483396984
0.0008541111483397117
0.0008541111483397029
0.0008541111483396959
0.0008541111483397095
0.0008541111483397051
0.0008541111483396933
0.0008541111483397146
0.0008541111483397038
0.0008541111483396951
0.0008541111483397122
0.0008541111483397028
0.0008541111483396988
0.000854111148339707
0.0008541111483397085
0.0008541111483396955
0.0008541111483397146
0.0008541111483397128
0.001084952289058877
0.001084952289058889
0.001084952289058888
0.001084952289058889
0.001084952289058892
0.001084952289058886
0.001084952289058864
0.001084952289058872
0.001084952289058872
0.001084952289058889
0.001084952289058875
0.001084952289058867
0.001084952289058888
0.001084952289058879
0.001084952289058866
0.00108495228905889
0.001084952289058879
0.001084952289058866
0.001084952289058892
0.001084952289058877
0.001084952289058865
0.001084952289058888
0.001084952289058878
0.001084952289058865
0.001084952289058888
0.001084952289058877
0.001084952289058865
0.001084952289058886
0.001084952289058878
0.001084952289058866
0.001084952289058884
0.001084952289058877
0.001084952289058866
0.001084952289058887
0.001084952289058875
0.001084952289058864
0.001084952289058889
0.001084952289058878
0.00108495228905886
0.001084952289058871
0.001084952289058871
0.001084952289058887
0.001084952289058875
0.001084952289058866
0.001084952289058885
0.001084952289058877
0.001084952289058863
0.00108495228905889
0.001084952289058875
0.001084952289058864
0.001084952289058886
0.001084952289058876
0.001084952289058867
0.001084952289058883
0.001084952289058881
0.001084952289058864
0.001084952289058891
0.001084952289058882
0.001315665806244719
0.001315665806244744
0.001315665806244742
0.001315665806244747
0.001315665806244749
0.001315665806244741
0.001315665806244714
0.001315665806244722
0.001315665806244722
0.001315665806244744
0.001315665806244727
0.001315665806244718
0.001315665806244745
0.001315665806244733
0.001315665806244719
0.001315665806244748
0.001315665806244733
0.001315665806244719
0.001315665806244749
0.00131566580624473
0.001315665806244717
0.001315665806244746
0.001315665806244732
0.001315665806244718
0.001315665806244745
0.001315665806244731
0.001315665806244717
0.001315665806244744
0.001315665806244732
0.001315665806244719
0.00131566580624474
0.001315665806244731
0.001315665806244717
0.001315665806244744
0.001315665806244727
0.001315665806244716
0.001315665806244746
0.00131566580624473
0.001315665806244709
0.001315665806244721
0.00131566580624472
0.001315665806244742
0.001315665806244728
0.001315665806244717
0.001315665806244741
0.00131566580624473
0.001315665806244712
0.001315665806244745
0.001315665806244727
0.001315665806244714
0.001315665806244741
0.001315665806244727
0.001315665806244715
0.001315665806244736
0.001315665806244733
0.001315665806244714
0.001315665806244745
0.001315665806244729
0.001547616632426997
0.001547616632427039
0.001547616632427034
0.001547616632427042
0.001547616632427045
0.001547616632427035
0.001547616632427003
0.001547616632427013
0.001547616632427012
0.00154761663242704
0.001547616632427019
0.001547616632427012
0.001547616632427042
0.001547616632427028
0.001547616632427012
0.001547616632427046
0.001547616632427027
0.001547616632427012
0.001547616632427046
0.001547616632427024
0.00154761663242701
0.001547616632427043
0.001547616632427025
0.00154761663242701
0.001547616632427042
0.001547616632427025
0.001547616632427009
0.001547616632427041
0.001547616632427025
0.001547616632427011
0.001547616632427038
0.001547616632427024
0.00154761663242701
0.001547616632427039
0.00154761663242702
0.001547616632427008
0.001547616632427042
0.001547616632427022
0.001547616632426999
0.001547616632427013
0.001547616632427013
0.001547616632427038
0.00154761663242702
0.001547616632427008
0.001547616632427035
0.001547616632427021
0.001547616632427003
0.001547616632427041
0.001547616632427017
0.001547616632427003
0.001547616632427035
0.001547616632427016
0.001547616632427004
0.001547616632427028
0.001547616632427023
0.001547616632427002
0.001547616632427036
0.001547616632427012
0.001783713347490812
0.001783713347490874
0.001783713347490867
0.001783713347490877
0.00178371334749088
0.001783713347490868
0.001783713347490832
0.001783713347490844
0.001783713347490842
0.001783713347490873
0.001783713347490851
0.001783713347490843
0.001783713347490877
0.001783713347490862
0.001783713347490844
0.001783713347490884
0.001783713347490861
0.001783713347490843
0.001783713347490884
0.001783713347490858
0.001783713347490842
0.001783713347490881
0.001783713347490858
0.001783713347490842
0.001783713347490877
0.001783713347490857
0.001783713347490841
0.001783713347490878
0.001783713347490857
0.001783713347490841
0.001783713347490874
0.001783713347490857
0.00178371334749084
0.001783713347490874
0.001783713347490851
0.001783713347490839
0.001783713347490877
0.001783713347490853
0.001783713347490829
0.001783713347490845
0.001783713347490844
0.001783713347490872
0.001783713347490851
0.001783713347490839
0.001783713347490869
0.001783713347490853
0.001783713347490832
0.001783713347490873
0.001783713347490847
0.001783713347490832
0.001783713347490868
0.001783713347490847
0.001783713347490832
0.001783713347490858
0.001783713347490851
0.001783713347490829
0.001783713347490866
0.001783713347490831
0.002029591564059191
0.002029591564059276
0.002029591564059268
0.00202959156405928
0.002029591564059284
0.00202959156405927
0.002029591564059231
0.002029591564059244
0.002029591564059242
0.002029591564059277
0.002029591564059252
0.002029591564059244
0.002029591564059281
0.002029591564059264
0.002029591564059245
0.00202959156405929
0.002029591564059263
0.002029591564059246
0.002029591564059288
0.002029591564059261
0.002029591564059244
0.002029591564059286
0.00202959156405926
0.002029591564059244
0.00202959156405928
0.00202959156405926
0.002029591564059242
0.002029591564059283
0.002029591564059259
0.002029591564059242
0.002029591564059279
0.002029591564059258
0.002029591564059241
0.002029591564059278
0.002029591564059254
0.002029591564059239
0.00202959156405928
0.002029591564059254
0.002029591564059228
0.002029591564059246
0.002029591564059247
0.002029591564059274
0.002029591564059252
0.002029591564059238
0.002029591564059272
0.002029591564059254
0.002029591564059231
0.002029591564059274
0.002029591564059248
0.002029591564059231
0.002029591564059268
0.002029591564059245
0.002029591564059228
0.002029591564059257
0.002029591564059249
0.002029591564059225
0.002029591564059262
0.002029591564059217
0.002294270460083631
0.002294270460083743
0.002294270460083735
0.002294270460083747
0.00229427046008375
0.002294270460083736
0.002294270460083693
0.002294270460083708
0.002294270460083705
0.002294270460083745
0.002294270460083717
0.002294270460083708
0.002294270460083749
0.002294270460083731
0.002294270460083711
0.002294270460083762
0.002294270460083731
0.002294270460083713
0.002294270460083758
0.002294270460083729
0.00229427046008371
0.002294270460083756
0.002294270460083726
0.00229427046008371
0.002294270460083749
0.002294270460083726
0.002294270460083708
0.002294270460083753
0.002294270460083725
0.002294270460083708
0.002294270460083749
0.002294270460083724
0.002294270460083705
0.002294270460083748
0.00229427046008372
0.002294270460083703
0.002294270460083749
0.00229427046008372
0.002294270460083692
0.002294270460083712
0.002294270460083713
0.002294270460083742
0.002294270460083718
0.002294270460083702
0.002294270460083741
0.002294270460083717
0.002294270460083695
0.00229427046008374
0.002294270460083713
0.002294270460083694
0.002294270460083734
0.002294270460083708
0.00229427046008369
0.00229427046008372
0.002294270460083712
0.002294270460083686
0.002294270460083721
0.002294270460083665
0.002590032848857228
0.00259003284885737
0.002590032848857365
0.002590032848857377
0.002590032848857378
0.002590032848857362
0.002590032848857318
0.002590032848857334
0.002590032848857332
0.002590032848857375
0.002590032848857346
0.002590032848857335
0.002590032848857381
0.002590032848857362
0.002590032848857341
0.002590032848857394
0.002590032848857362
0.002590032848857343
0.002590032848857391
0.002590032848857359
0.00259003284885734
0.002590032848857388
0.002590032848857356
0.002590032848857338
0.002590032848857381
0.002590032848857357
0.002590032848857337
0.002590032848857386
0.002590032848857355
0.002590032848857335
0.002590032848857381
0.002590032848857354
0.002590032848857332
0.00259003284885738
0.002590032848857348
0.002590032848857329
0.00259003284885738
0.002590032848857348
0.002590032848857318
0.002590032848857343
0.002590032848857343
0.002590032848857371
0.002590032848857346
0.002590032848857329
0.002590032848857368
0.002590032848857343
0.002590032848857321
0.002590032848857368
0.00259003284885734
0.002590032848857319
0.002590032848857361
0.002590032848857336
0.002590032848857313
0.002590032848857345
0.002590032848857335
0.002590032848857311
0.002590032848857343
0.002590032848857271
0.002930925837808994
0.002930925837809171
0.002930925837809175
0.002930925837809182
0.002930925837809182
0.002930925837809165
0.002930925837809117
0.002930925837809135
0.002930925837809134
0.002930925837809182
0.002930925837809152
0.002930925837809138
0.002930925837809187
0.002930925837809168
0.002930925837809145
0.002930925837809204
0.002930925837809171
0.002930925837809149
0.0029309258378092
0.002930925837809167
0.002930925837809145
0.002930925837809197
0.002930925837809162
0.002930925837809143
0.002930925837809188
0.002930925837809164
0.002930925837809143
0.002930925837809193
0.002930925837809162
0.00293092583780914
0.002930925837809188
0.00293092583780916
0.002930925837809137
0.002930925837809188
0.002930925837809152
0.002930925837809132
0.002930925837809187
0.002930925837809153
0.002930925837809119
0.002930925837809149
0.002930925837809149
0.002930925837809177
0.00293092583780915
0.002930925837809132
0.002930925837809174
0.002930925837809145
0.002930925837809123
0.002930925837809175
0.002930925837809143
0.002930925837809118
0.002930925837809164
0.00293092583780914
0.002930925837809115
0.002930925837809145
0.002930925837809135
0.002930925837809111
0.002930925837809138
0.002930925837809049
0.003329616690037081
0.003329616690037287
0.003329616690037302
0.003329616690037308
0.003329616690037309
0.003329616690037294
0.003329616690037245
0.003329616690037265
0.003329616690037263
0.003329616690037316
0.003329616690037284
0.003329616690037269
0.00332961669003732
0.003329616690037302
0.003329616690037279
0.003329616690037339
0.003329616690037306
0.003329616690037283
0.003329616690037336
0.003329616690037304
0.003329616690037279
0.003329616690037332
0.003329616690037296
0.003329616690037277
0.003329616690037322
0.003329616690037297
0.003329616690037277
0.003329616690037328
0.003329616690037298
0.003329616690037274
0.003329616690037325
0.003329616690037295
0.003329616690037271
0.003329616690037323
0.003329616690037287
0.003329616690037263
0.003329616690037321
0.003329616690037287
0.003329616690037251
0.00332961669003728
0.003329616690037282
0.003329616690037309
0.003329616690037283
0.003329616690037263
0.003329616690037306
0.003329616690037278
0.003329616690037254
0.003329616690037309
0.003329616690037274
0.003329616690037247
0.003329616690037293
0.003329616690037273
0.003329616690037244
0.003329616690037269
0.003329616690037263
0.003329616690037241
0.003329616690037263
0.003329616690037152
0.003793220814047755
0.003793220814047987
0.003793220814048018
0.003793220814048027
0.003793220814048031
0.003793220814048015
0.003793220814047968
0.003793220814047987
0.003793220814047985
0.003793220814048045
0.003793220814048014
0.003793220814047995
0.003793220814048046
0.003793220814048031
0.003793220814048009
0.003793220814048071
0.003793220814048039
0.003793220814048016
0.003793220814048069
0.003793220814048036
0.003793220814048011
0.003793220814048065
0.003793220814048028
0.003793220814048006
0.003793220814048052
0.003793220814048029
0.003793220814048009
0.003793220814048062
0.00379322081404803
0.003793220814048005
0.003793220814048057
0.00379322081404803
0.003793220814048005
0.003793220814048052
0.003793220814048019
0.003793220814047991
0.003793220814048052
0.003793220814048017
0.003793220814047979
0.003793220814048006
0.003793220814048007
0.003793220814048035
0.003793220814048012
0.003793220814047993
0.003793220814048033
0.003793220814048008
0.003793220814047983
0.003793220814048039
0.003793220814048001
0.003793220814047973
0.003793220814048017
0.003793220814048004
0.003793220814047975
0.003793220814047989
0.003793220814047986
0.003793220814047973
0.003793220814047984
0.003793220814047849
0.004319723159803659
0.004319723159803906
0.004319723159803958
0.004319723159803974
0.004319723159803982
0.004319723159803971
0.004319723159803927
0.004319723159803945
0.004319723159803944
0.004319723159804006
0.004319723159803981
0.004319723159803959
0.00431972315980401
0.004319723159803999
0.004319723159803979
0.004319723159804037
0.00431972315980401
0.004319723159803988
0.004319723159804036
0.004319723159804007
0.004319723159803982
0.004319723159804034
0.004319723159803999
0.004319723159803974
0.004319723159804018
0.004319723159803997
0.00431972315980398
0.00431972315980403
0.004319723159804001
0.004319723159803977
0.004319723159804027
0.004319723159804002
0.004319723159803977
0.004319723159804022
0.004319723159803987
0.004319723159803959
0.004319723159804016
0.004319723159803984
0.004319723159803948
0.004319723159803972
0.004319723159803973
0.004319723159803999
0.00431972315980398
0.004319723159803961
0.004319723159803997
0.004319723159803974
0.004319723159803949
0.004319723159804006
0.00431972315980397
0.004319723159803942
0.004319723159803977
0.004319723159803975
0.00431972315980395
0.004319723159803948
0.004319723159803951
0.004319723159803951
0.004319723159803946
0.004319723159803786
0.00489689464897374
0.004896894648973992
0.004896894648974069
0.004896894648974096
0.004896894648974108
0.004896894648974101
0.004896894648974066
0.004896894648974082
0.004896894648974079
0.004896894648974143
0.00489689464897412
0.004896894648974103
0.004896894648974148
0.004896894648974144
0.004896894648974128
0.004896894648974179
0.00489689464897416
0.00489689464897414
0.004896894648974186
0.004896894648974159
0.004896894648974135
0.004896894648974182
0.004896894648974149
0.004896894648974128
0.004896894648974162
0.004896894648974147
0.004896894648974135
0.004896894648974179
0.004896894648974149
0.00489689464897413
0.004896894648974174
0.004896894648974153
0.004896894648974129
0.00489689464897417
0.004896894648974137
0.004896894648974108
0.004896894648974161
0.004896894648974134
0.004896894648974101
0.004896894648974123
0.004896894648974123
0.004896894648974143
0.004896894648974129
0.004896894648974109
0.004896894648974144
0.004896894648974121
0.0048968946489741
0.004896894648974154
0.00489689464897412
0.004896894648974096
0.004896894648974122
0.004896894648974128
0.004896894648974106
0.004896894648974089
0.004896894648974096
0.004896894648974102
0.004896894648974087
0.004896894648973912
0.005504563204077935
0.005504563204078166
0.005504563204078275
0.005504563204078317
0.005504563204078335
0.005504563204078333
0.005504563204078316
0.005504563204078326
0.005504563204078324
0.005504563204078381
0.005504563204078368
0.005504563204078353
0.005504563204078388
0.005504563204078392
0.005504563204078385
0.005504563204078424
0.005504563204078416
0.005504563204078401
0.005504563204078439
0.005504563204078417
0.005504563204078394
0.005504563204078435
0.005504563204078407
0.005504563204078384
0.00550456320407841
0.005504563204078401
0.005504563204078394
0.005504563204078432
0.005504563204078403
0.005504563204078388
0.005504563204078428
0.005504563204078409
0.00550456320407839
0.005504563204078423
0.005504563204078395
0.005504563204078368
0.005504563204078413
0.005504563204078391
0.005504563204078357
0.005504563204078378
0.005504563204078378
0.005504563204078386
0.005504563204078383
0.005504563204078368
0.005504563204078394
0.005504563204078375
0.005504563204078359
0.005504563204078408
0.005504563204078378
0.005504563204078359
0.005504563204078377
0.005504563204078383
0.005504563204078364
0.005504563204078339
0.00550456320407835
0.005504563204078354
0.005504563204078332
0.005504563204078159
0.006119271981974357
0.006119271981974549
0.006119271981974687
0.006119271981974747
0.006119271981974771
0.006119271981974773
0.006119271981974775
0.006119271981974779
0.006119271981974771
0.006119271981974829
0.006119271981974825
0.006119271981974813
0.006119271981974844
0.006119271981974854
0.006119271981974855
0.006119271981974877
0.006119271981974882
0.006119271981974875
0.006119271981974898
0.006119271981974887
0.00611927198197487
0.006119271981974896
0.006119271981974876
0.00611927198197486
0.006119271981974869
0.006119271981974865
0.006119271981974869
0.006119271981974894
0.006119271981974869
0.006119271981974869
0.006119271981974893
0.006119271981974875
0.006119271981974866
0.006119271981974891
0.006119271981974866
0.006119271981974838
0.006119271981974875
0.006119271981974858
0.006119271981974828
0.006119271981974843
0.006119271981974844
0.006119271981974843
0.006119271981974847
0.006119271981974841
0.006119271981974859
0.006119271981974842
0.006119271981974836
0.006119271981974875
0.006119271981974851
0.006119271981974835
0.006119271981974849
0.006119271981974856
0.006119271981974839
0.006119271981974814
0.006119271981974827
0.006119271981974827
0.006119271981974792
0.006119271981974629
0.006719173870714301
0.006719173870714442
0.006719173870714593
0.006719173870714678
0.006719173870714704
0.006719173870714704
0.006719173870714725
0.00671917387071473
0.00671917387071472
0.006719173870714778
0.00671917387071478
0.006719173870714764
0.006719173870714803
0.006719173870714821
0.006719173870714824
0.006719173870714838
0.006719173870714854
0.006719173870714849
0.006719173870714858
0.006719173870714859
0.006719173870714848
0.006719173870714863
0.006719173870714848
0.006719173870714835
0.006719173870714839
0.006719173870714827
0.006719173870714839
0.006719173870714859
0.006719173870714835
0.006719173870714848
0.00671917387071486
0.00671917387071484
0.006719173870714844
0.006719173870714859
0.006719173870714841
0.006719173870714814
0.006719173870714837
0.006719173870714828
0.006719173870714799
0.006719173870714807
0.006719173870714804
0.0067191738707148
0.006719173870714816
0.006719173870714818
0.006719173870714824
0.006719173870714811
0.006719173870714819
0.006719173870714846
0.006719173870714829
0.006719173870714809
0.006719173870714822
0.006719173870714829
0.006719173870714816
0.006719173870714791
0.006719173870714797
0.006719173870714796
0.006719173870714759
0.006719173870714614
0.007287310577484984
0.007287310577485072
0.007287310577485221
0.007287310577485329
0.007287310577485352
0.007287310577485346
0.007287310577485391
0.007287310577485396
0.007287310577485379
0.007287310577485441
0.007287310577485447
0.007287310577485422
0.00728731057748547
0.0072873105774855
0.007287310577485499
0.007287310577485509
0.007287310577485537
0.007287310577485537
0.007287310577485533
0.007287310577485543
0.007287310577485539
0.007287310577485545
0.007287310577485537
0.007287310577485526
0.007287310577485525
0.007287310577485501
0.007287310577485526
0.007287310577485543
0.00728731057748551
0.007287310577485537
0.007287310577485544
0.007287310577485516
0.007287310577485534
0.007287310577485544
0.007287310577485528
0.007287310577485507
0.007287310577485513
0.00728731057748551
0.007287310577485487
0.007287310577485488
0.007287310577485485
0.007287310577485473
0.007287310577485499
0.007287310577485507
0.007287310577485506
0.007287310577485492
0.007287310577485508
0.007287310577485532
0.007287310577485518
0.007287310577485499
0.007287310577485517
0.007287310577485518
0.007287310577485508
0.00728731057748548
0.007287310577485487
0.00728731057748548
0.007287310577485449
0.007287310577485323
0.007812664286031841
0.007812664286031876
0.007812664286032011
0.007812664286032138
0.007812664286032155
0.007812664286032141
0.007812664286032204
0.00781266428603221
0.007812664286032184
0.007812664286032257
0.007812664286032263
0.007812664286032231
0.007812664286032289
0.007812664286032328
0.007812664286032322
0.007812664286032327
0.007812664286032367
0.007812664286032368
0.007812664286032353
0.007812664286032379
0.007812664286032382
0.007812664286032379
0.007812664286032377
0.007812664286032368
0.007812664286032363
0.007812664286032327
0.007812664286032361
0.007812664286032374
0.007812664286032334
0.007812664286032374
0.007812664286032377
0.007812664286032341
0.00781266428603237
0.007812664286032382
0.007812664286032367
0.007812664286032349
0.007812664286032346
0.007812664286032341
0.007812664286032327
0.007812664286032325
0.007812664286032316
0.007812664286032295
0.007812664286032332
0.007812664286032344
0.007812664286032342
0.007812664286032332
0.007812664286032351
0.007812664286032368
0.007812664286032361
0.007812664286032339
0.007812664286032361
0.007812664286032361
0.007812664286032348
0.007812664286032323
0.007812664286032328
0.007812664286032323
0.007812664286032297
0.007812664286032188
0.008289475764257542
0.00828947576425753
0.008289475764257639
0.008289475764257767
0.008289475764257783
0.008289475764257762
0.008289475764257837
0.008289475764257847
0.008289475764257813
0.008289475764257892
0.008289475764257899
0.008289475764257858
0.008289475764257924
0.008289475764257974
0.008289475764257965
0.008289475764257965
0.008289475764258019
0.008289475764258022
0.008289475764257991
0.008289475764258033
0.008289475764258035
0.008289475764258024
0.008289475764258029
0.008289475764258024
0.008289475764258014
0.00828947576425797
0.008289475764258012
0.008289475764258022
0.008289475764257976
0.008289475764258026
0.008289475764258031
0.008289475764257981
0.008289475764258028
0.008289475764258035
0.008289475764258024
0.008289475764258014
0.008289475764258007
0.008289475764257998
0.008289475764257988
0.008289475764257977
0.008289475764257967
0.008289475764257936
0.008289475764257984
0.008289475764257998
0.008289475764257995
0.008289475764257983
0.008289475764258012
0.008289475764258024
0.008289475764258021
0.008289475764257995
0.008289475764258021
0.008289475764258022
0.008289475764258014
0.008289475764257983
0.00828947576425799
0.008289475764257991
0.008289475764257965
0.008289475764257873
0.008715748567704136
0.008715748567704096
0.008715748567704166
0.008715748567704294
0.008715748567704304
0.008715748567704277
0.008715748567704363
0.008715748567704374
0.008715748567704332
0.008715748567704414
0.008715748567704427
0.008715748567704374
0.008715748567704448
0.008715748567704504
0.008715748567704506
0.008715748567704493
0.008715748567704556
0.008715748567704558
0.008715748567704518
0.008715748567704571
0.008715748567704578
0.008715748567704559
0.008715748567704566
0.008715748567704566
0.008715748567704554
0.008715748567704507
0.008715748567704552
0.008715748567704559
0.008715748567704506
0.008715748567704568
0.008715748567704573
0.008715748567704516
0.008715748567704571
0.008715748567704577
0.008715748567704568
0.008715748567704565
0.008715748567704561
0.008715748567704547
0.008715748567704532
0.008715748567704521
0.008715748567704507
0.008715748567704466
0.008715748567704519
0.00871574856770454
0.008715748567704535
0.008715748567704519
0.008715748567704559
0.008715748567704566
0.008715748567704563
0.00871574856770454
0.00871574856770457
0.00871574856770457
0.008715748567704561
0.00871574856770453
0.008715748567704547
0.008715748567704549
0.008715748567704521
0.008715748567704448
0.009091711501973103
0.009091711501973051
0.00909171150197308
0.009091711501973194
0.009091711501973205
0.009091711501973168
0.009091711501973255
0.009091711501973274
0.009091711501973221
0.009091711501973307
0.009091711501973325
0.009091711501973264
0.009091711501973342
0.009091711501973411
0.009091711501973408
0.009091711501973392
0.00909171150197346
0.009091711501973463
0.009091711501973411
0.009091711501973476
0.009091711501973489
0.009091711501973463
0.009091711501973481
0.009091711501973477
0.009091711501973462
0.009091711501973411
0.009091711501973458
0.009091711501973465
0.009091711501973406
0.009091711501973472
0.009091711501973482
0.009091711501973417
0.009091711501973479
0.009091711501973488
0.009091711501973476
0.009091711501973481
0.009091711501973479
0.009091711501973463
0.009091711501973441
0.009091711501973429
0.009091711501973411
0.009091711501973363
0.009091711501973423
0.009091711501973448
0.009091711501973443
0.009091711501973423
0.009091711501973476