/*--------------------------------*- C++ -*----------------------------------*\
| =========                 |                                                 |
| \\      /  F ield         | OpenFOAM: The Open Source CFD Toolbox           |
|  \\    /   O peration     | Version:  v1812                                 |
|   \\  /    A nd           | Web:      www.OpenFOAM.com                      |
|    \\/     M anipulation  |                                                 |
\*---------------------------------------------------------------------------*/
FoamFile
{
    version     2.0;
    format      ascii;
    class       volScalarField;
    location    "20000";
    object      nuTilda_0;
}
// * * * * * * * * * * * * * * * * * * * * * * * * * * * * * * * * * * * * * //

dimensions      [0 2 -1 0 0 0 0];


internalField   nonuniform List<scalar> 
3770
(
0.000477901548585893
0.000477901548585893
0.0004779015485858931
0.000477901548585893
0.0004779015485858931
0.0004779015485858931
0.0004779015485858932
0.0004779015485858929
0.000477901548585893
0.0004779015485858933
0.0004779015485858929
0.0004779015485858933
0.0004779015485858931
0.0004779015485858932
0.0004779015485858931
0.0004779015485858927
0.0004779015485858935
0.0004779015485858927
0.0004779015485858936
0.000477901548585893
0.0004779015485858927
0.0004779015485858934
0.0004779015485858928
0.0004779015485858932
0.0004779015485858931
0.0004779015485858931
0.0004779015485858931
0.0004779015485858931
0.0004779015485858932
0.0004779015485858935
0.0004779015485858925
0.0004779015485858934
0.0004779015485858931
0.0004779015485858933
0.0004779015485858929
0.0004779015485858928
0.0004779015485858931
0.0004779015485858936
0.0004779015485858932
0.0004779015485858933
0.0004779015485858925
0.0004779015485858928
0.0004779015485858931
0.0004779015485858932
0.0004779015485858931
0.0004779015485858932
0.0004779015485858933
0.0004779015485858937
0.0004779015485858924
0.0004779015485858932
0.0004779015485858932
0.0004779015485858925
0.0004779015485858934
0.0004779015485858945
0.0004779015485858931
0.0004779015485858925
0.0004779015485858925
0.0004779015485858944
0.000350726357142968
0.0003507263571429662
0.0003507263571429651
0.0003507263571429629
0.0003507263571429661
0.0003507263571429642
0.0003507263571429608
0.0003507263571429617
0.0003507263571429615
0.0003507263571429654
0.0003507263571429625
0.0003507263571429603
0.0003507263571429651
0.0003507263571429631
0.0003507263571429602
0.0003507263571429648
0.0003507263571429635
0.0003507263571429599
0.0003507263571429657
0.0003507263571429624
0.0003507263571429597
0.0003507263571429651
0.0003507263571429629
0.0003507263571429598
0.0003507263571429649
0.0003507263571429627
0.0003507263571429599
0.0003507263571429645
0.0003507263571429635
0.0003507263571429601
0.000350726357142964
0.0003507263571429627
0.0003507263571429604
0.0003507263571429649
0.0003507263571429626
0.0003507263571429599
0.0003507263571429659
0.0003507263571429636
0.0003507263571429592
0.0003507263571429608
0.000350726357142961
0.0003507263571429656
0.0003507263571429632
0.0003507263571429609
0.0003507263571429648
0.0003507263571429637
0.0003507263571429609
0.0003507263571429666
0.0003507263571429629
0.0003507263571429612
0.0003507263571429642
0.0003507263571429637
0.0003507263571429646
0.0003507263571429646
0.0003507263571429641
0.0003507263571429617
0.0003507263571429668
0.0003507263571429674
0.000619463889857788
0.0006194638898577797
0.0006194638898577809
0.000619463889857777
0.0006194638898577832
0.0006194638898577796
0.0006194638898577699
0.0006194638898577715
0.0006194638898577713
0.0006194638898577811
0.0006194638898577749
0.0006194638898577682
0.0006194638898577801
0.0006194638898577758
0.0006194638898577683
0.0006194638898577802
0.0006194638898577767
0.000619463889857768
0.0006194638898577807
0.0006194638898577746
0.0006194638898577671
0.000619463889857779
0.0006194638898577757
0.0006194638898577679
0.0006194638898577789
0.0006194638898577751
0.0006194638898577685
0.0006194638898577784
0.000619463889857776
0.0006194638898577684
0.0006194638898577767
0.0006194638898577749
0.0006194638898577684
0.00061946388985778
0.0006194638898577741
0.0006194638898577677
0.0006194638898577812
0.0006194638898577774
0.0006194638898577657
0.0006194638898577702
0.0006194638898577697
0.0006194638898577818
0.0006194638898577768
0.0006194638898577703
0.000619463889857779
0.0006194638898577766
0.0006194638898577693
0.0006194638898577839
0.0006194638898577758
0.0006194638898577715
0.0006194638898577815
0.0006194638898577771
0.0006194638898577739
0.0006194638898577793
0.0006194638898577802
0.0006194638898577726
0.0006194638898577842
0.0006194638898577862
0.0008541111483394744
0.0008541111483394774
0.0008541111483394751
0.0008541111483394716
0.0008541111483394781
0.0008541111483394725
0.0008541111483394564
0.0008541111483394606
0.0008541111483394609
0.0008541111483394752
0.0008541111483394641
0.0008541111483394571
0.0008541111483394737
0.0008541111483394673
0.0008541111483394563
0.0008541111483394749
0.0008541111483394675
0.0008541111483394568
0.0008541111483394755
0.0008541111483394651
0.0008541111483394554
0.0008541111483394727
0.0008541111483394669
0.0008541111483394557
0.0008541111483394734
0.000854111148339466
0.0008541111483394567
0.0008541111483394726
0.0008541111483394666
0.0008541111483394568
0.0008541111483394697
0.0008541111483394659
0.000854111148339457
0.0008541111483394733
0.0008541111483394645
0.0008541111483394548
0.0008541111483394747
0.0008541111483394677
0.000854111148339452
0.0008541111483394587
0.0008541111483394587
0.000854111148339474
0.0008541111483394643
0.0008541111483394579
0.000854111148339472
0.0008541111483394672
0.0008541111483394554
0.0008541111483394766
0.0008541111483394653
0.0008541111483394573
0.0008541111483394738
0.0008541111483394649
0.0008541111483394608
0.0008541111483394689
0.0008541111483394704
0.0008541111483394573
0.0008541111483394773
0.0008541111483394777
0.001084952289058582
0.001084952289058595
0.001084952289058592
0.001084952289058592
0.001084952289058597
0.001084952289058591
0.001084952289058569
0.001084952289058575
0.001084952289058575
0.001084952289058594
0.00108495228905858
0.001084952289058572
0.001084952289058593
0.001084952289058584
0.001084952289058571
0.001084952289058594
0.001084952289058584
0.001084952289058571
0.001084952289058596
0.001084952289058581
0.00108495228905857
0.001084952289058593
0.001084952289058582
0.00108495228905857
0.001084952289058593
0.001084952289058582
0.00108495228905857
0.001084952289058591
0.001084952289058583
0.001084952289058571
0.001084952289058589
0.001084952289058582
0.001084952289058571
0.001084952289058592
0.001084952289058579
0.001084952289058569
0.001084952289058593
0.001084952289058583
0.001084952289058564
0.001084952289058574
0.001084952289058574
0.001084952289058591
0.001084952289058579
0.001084952289058571
0.001084952289058591
0.001084952289058581
0.001084952289058568
0.001084952289058594
0.00108495228905858
0.001084952289058569
0.001084952289058591
0.001084952289058581
0.001084952289058571
0.001084952289058587
0.001084952289058586
0.00108495228905857
0.001084952289058595
0.001084952289058587
0.001315665806244368
0.001315665806244394
0.001315665806244392
0.001315665806244396
0.001315665806244398
0.00131566580624439
0.001315665806244364
0.001315665806244372
0.001315665806244372
0.001315665806244394
0.001315665806244376
0.001315665806244368
0.001315665806244394
0.001315665806244382
0.001315665806244368
0.001315665806244397
0.001315665806244382
0.001315665806244368
0.001315665806244398
0.001315665806244379
0.001315665806244367
0.001315665806244395
0.00131566580624438
0.001315665806244367
0.001315665806244394
0.001315665806244381
0.001315665806244367
0.001315665806244393
0.001315665806244381
0.001315665806244368
0.001315665806244389
0.00131566580624438
0.001315665806244366
0.001315665806244393
0.001315665806244376
0.001315665806244365
0.001315665806244394
0.001315665806244379
0.001315665806244358
0.00131566580624437
0.001315665806244369
0.00131566580624439
0.001315665806244377
0.001315665806244366
0.00131566580624439
0.001315665806244378
0.001315665806244361
0.001315665806244395
0.001315665806244376
0.001315665806244362
0.00131566580624439
0.001315665806244376
0.001315665806244364
0.001315665806244386
0.001315665806244382
0.001315665806244362
0.001315665806244394
0.001315665806244378
0.001547616632426593
0.001547616632426636
0.001547616632426631
0.001547616632426639
0.00154761663242664
0.001547616632426631
0.001547616632426599
0.001547616632426609
0.001547616632426608
0.001547616632426636
0.001547616632426615
0.001547616632426608
0.001547616632426638
0.001547616632426624
0.001547616632426607
0.001547616632426641
0.001547616632426622
0.001547616632426607
0.001547616632426642
0.00154761663242662
0.001547616632426605
0.001547616632426639
0.00154761663242662
0.001547616632426607
0.001547616632426637
0.001547616632426621
0.001547616632426604
0.001547616632426637
0.001547616632426621
0.001547616632426606
0.001547616632426633
0.001547616632426619
0.001547616632426605
0.001547616632426635
0.001547616632426615
0.001547616632426604
0.001547616632426637
0.001547616632426618
0.001547616632426594
0.001547616632426609
0.001547616632426609
0.001547616632426633
0.001547616632426615
0.001547616632426603
0.001547616632426631
0.001547616632426616
0.001547616632426598
0.001547616632426636
0.001547616632426613
0.001547616632426599
0.00154761663242663
0.001547616632426612
0.0015476166324266
0.001547616632426624
0.001547616632426618
0.001547616632426597
0.001547616632426632
0.001547616632426608
0.001783713347490356
0.001783713347490418
0.001783713347490411
0.001783713347490422
0.001783713347490424
0.001783713347490412
0.001783713347490377
0.001783713347490388
0.001783713347490387
0.001783713347490418
0.001783713347490395
0.001783713347490388
0.001783713347490422
0.001783713347490406
0.001783713347490388
0.001783713347490428
0.001783713347490405
0.001783713347490388
0.001783713347490428
0.001783713347490402
0.001783713347490385
0.001783713347490424
0.001783713347490402
0.001783713347490386
0.001783713347490421
0.001783713347490402
0.001783713347490385
0.001783713347490422
0.001783713347490401
0.001783713347490386
0.001783713347490418
0.001783713347490401
0.001783713347490384
0.001783713347490418
0.001783713347490396
0.001783713347490383
0.001783713347490421
0.001783713347490397
0.001783713347490373
0.001783713347490389
0.001783713347490389
0.001783713347490416
0.001783713347490395
0.001783713347490382
0.001783713347490413
0.001783713347490396
0.001783713347490376
0.001783713347490417
0.001783713347490392
0.001783713347490377
0.001783713347490411
0.00178371334749039
0.001783713347490376
0.001783713347490402
0.001783713347490395
0.001783713347490373
0.00178371334749041
0.001783713347490376
0.002029591564058683
0.00202959156405877
0.00202959156405876
0.002029591564058773
0.002029591564058777
0.002029591564058763
0.002029591564058723
0.002029591564058737
0.002029591564058734
0.00202959156405877
0.002029591564058745
0.002029591564058736
0.002029591564058774
0.002029591564058757
0.002029591564058738
0.002029591564058784
0.002029591564058756
0.002029591564058739
0.002029591564058782
0.002029591564058753
0.002029591564058736
0.002029591564058779
0.002029591564058753
0.002029591564058737
0.002029591564058774
0.002029591564058753
0.002029591564058735
0.002029591564058776
0.002029591564058752
0.002029591564058735
0.002029591564058772
0.002029591564058751
0.002029591564058734
0.002029591564058771
0.002029591564058746
0.002029591564058731
0.002029591564058773
0.002029591564058747
0.00202959156405872
0.002029591564058741
0.002029591564058741
0.002029591564058767
0.002029591564058745
0.002029591564058731
0.002029591564058765
0.002029591564058746
0.002029591564058723
0.002029591564058767
0.00202959156405874
0.002029591564058724
0.00202959156405876
0.002029591564058738
0.002029591564058721
0.00202959156405875
0.002029591564058742
0.002029591564058717
0.002029591564058756
0.00202959156405871
0.002294270460083071
0.002294270460083183
0.002294270460083174
0.002294270460083187
0.002294270460083191
0.002294270460083177
0.002294270460083133
0.002294270460083148
0.002294270460083146
0.002294270460083185
0.002294270460083158
0.002294270460083148
0.002294270460083189
0.002294270460083172
0.002294270460083151
0.002294270460083202
0.002294270460083171
0.002294270460083153
0.002294270460083199
0.002294270460083167
0.00229427046008315
0.002294270460083196
0.002294270460083167
0.00229427046008315
0.00229427046008319
0.002294270460083167
0.002294270460083148
0.002294270460083193
0.002294270460083166
0.002294270460083148
0.002294270460083189
0.002294270460083164
0.002294270460083145
0.002294270460083188
0.00229427046008316
0.002294270460083142
0.002294270460083189
0.00229427046008316
0.002294270460083131
0.002294270460083157
0.002294270460083156
0.002294270460083182
0.002294270460083158
0.002294270460083142
0.00229427046008318
0.002294270460083157
0.002294270460083134
0.002294270460083181
0.002294270460083151
0.002294270460083135
0.002294270460083174
0.002294270460083148
0.002294270460083129
0.00229427046008316
0.002294270460083152
0.002294270460083126
0.002294270460083161
0.002294270460083105
0.002590032848856611
0.002590032848856753
0.002590032848856747
0.00259003284885676
0.002590032848856763
0.002590032848856746
0.002590032848856702
0.002590032848856717
0.002590032848856716
0.002590032848856758
0.00259003284885673
0.002590032848856718
0.002590032848856763
0.002590032848856745
0.002590032848856724
0.002590032848856779
0.002590032848856747
0.002590032848856727
0.002590032848856775
0.002590032848856742
0.002590032848856724
0.002590032848856771
0.00259003284885674
0.002590032848856721
0.002590032848856764
0.00259003284885674
0.002590032848856721
0.00259003284885677
0.002590032848856739
0.00259003284885672
0.002590032848856763
0.002590032848856737
0.002590032848856716
0.002590032848856762
0.002590032848856732
0.002590032848856712
0.002590032848856764
0.002590032848856731
0.002590032848856702
0.002590032848856729
0.002590032848856729
0.002590032848856754
0.00259003284885673
0.002590032848856713
0.002590032848856752
0.002590032848856726
0.002590032848856704
0.002590032848856753
0.002590032848856723
0.002590032848856702
0.002590032848856745
0.002590032848856719
0.002590032848856697
0.00259003284885673
0.002590032848856719
0.002590032848856694
0.002590032848856727
0.002590032848856654
0.002930925837808315
0.002930925837808491
0.002930925837808493
0.002930925837808501
0.002930925837808503
0.002930925837808486
0.002930925837808439
0.002930925837808458
0.002930925837808455
0.002930925837808503
0.002930925837808472
0.002930925837808458
0.002930925837808507
0.002930925837808488
0.002930925837808467
0.002930925837808524
0.002930925837808491
0.002930925837808471
0.002930925837808522
0.002930925837808487
0.002930925837808467
0.002930925837808517
0.002930925837808482
0.002930925837808464
0.002930925837808508
0.002930925837808485
0.002930925837808464
0.002930925837808515
0.002930925837808484
0.002930925837808462
0.00293092583780851
0.002930925837808481
0.002930925837808458
0.002930925837808508
0.002930925837808474
0.002930925837808452
0.002930925837808509
0.002930925837808474
0.00293092583780844
0.002930925837808468
0.002930925837808468
0.002930925837808498
0.002930925837808471
0.002930925837808453
0.002930925837808495
0.002930925837808465
0.002930925837808444
0.002930925837808496
0.002930925837808464
0.002930925837808439
0.002930925837808485
0.00293092583780846
0.002930925837808435
0.002930925837808466
0.002930925837808457
0.002930925837808433
0.00293092583780846
0.00293092583780837
0.003329616690036332
0.003329616690036538
0.003329616690036552
0.003329616690036559
0.003329616690036561
0.003329616690036544
0.003329616690036497
0.003329616690036519
0.003329616690036517
0.003329616690036566
0.003329616690036535
0.00332961669003652
0.003329616690036571
0.003329616690036553
0.003329616690036531
0.00332961669003659
0.003329616690036557
0.003329616690036537
0.003329616690036588
0.003329616690036554
0.00332961669003653
0.003329616690036582
0.003329616690036546
0.003329616690036528
0.003329616690036573
0.003329616690036549
0.003329616690036527
0.003329616690036579
0.003329616690036551
0.003329616690036525
0.003329616690036577
0.003329616690036545
0.003329616690036521
0.003329616690036574
0.003329616690036538
0.003329616690036513
0.003329616690036572
0.003329616690036537
0.003329616690036502
0.003329616690036531
0.003329616690036531
0.003329616690036561
0.003329616690036534
0.003329616690036515
0.003329616690036557
0.003329616690036527
0.003329616690036505
0.00332961669003656
0.003329616690036525
0.003329616690036499
0.003329616690036544
0.003329616690036522
0.003329616690036493
0.003329616690036521
0.003329616690036515
0.003329616690036494
0.003329616690036514
0.003329616690036403
0.003793220814046929
0.003793220814047161
0.00379322081404719
0.0037932208140472
0.003793220814047204
0.003793220814047186
0.003793220814047143
0.003793220814047165
0.003793220814047161
0.003793220814047217
0.003793220814047188
0.003793220814047169
0.003793220814047219
0.003793220814047205
0.003793220814047183
0.003793220814047245
0.003793220814047213
0.003793220814047193
0.003793220814047243
0.003793220814047211
0.003793220814047185
0.003793220814047239
0.003793220814047202
0.00379322081404718
0.003793220814047226
0.003793220814047204
0.003793220814047182
0.003793220814047236
0.003793220814047205
0.003793220814047179
0.003793220814047231
0.003793220814047203
0.003793220814047178
0.003793220814047226
0.003793220814047192
0.003793220814047165
0.003793220814047225
0.003793220814047191
0.003793220814047154
0.003793220814047184
0.003793220814047184
0.00379322081404721
0.003793220814047186
0.003793220814047166
0.003793220814047206
0.00379322081404718
0.003793220814047157
0.003793220814047213
0.003793220814047176
0.003793220814047149
0.003793220814047192
0.003793220814047178
0.003793220814047147
0.003793220814047162
0.003793220814047161
0.003793220814047148
0.003793220814047157
0.003793220814047022
0.004319723159802752
0.004319723159802997
0.004319723159803049
0.004319723159803066
0.004319723159803075
0.004319723159803062
0.004319723159803022
0.00431972315980304
0.004319723159803038
0.004319723159803096
0.004319723159803072
0.004319723159803052
0.004319723159803101
0.004319723159803093
0.004319723159803071
0.00431972315980313
0.004319723159803104
0.004319723159803081
0.004319723159803129
0.004319723159803099
0.004319723159803074
0.004319723159803124
0.004319723159803091
0.004319723159803067
0.00431972315980311
0.00431972315980309
0.004319723159803072
0.004319723159803124
0.004319723159803094
0.004319723159803069
0.004319723159803119
0.004319723159803093
0.004319723159803068
0.004319723159803114
0.004319723159803078
0.00431972315980305
0.004319723159803109
0.004319723159803078
0.004319723159803041
0.004319723159803072
0.00431972315980307
0.004319723159803092
0.004319723159803072
0.004319723159803053
0.004319723159803089
0.004319723159803067
0.004319723159803042
0.004319723159803098
0.004319723159803062
0.004319723159803035
0.004319723159803072
0.00431972315980307
0.004319723159803039
0.004319723159803039
0.004319723159803042
0.004319723159803041
0.004319723159803038
0.004319723159802877
0.00489689464897275
0.004896894648973001
0.004896894648973079
0.004896894648973107
0.004896894648973116
0.004896894648973108
0.004896894648973078
0.004896894648973092
0.00489689464897309
0.004896894648973152
0.004896894648973131
0.004896894648973115
0.004896894648973159
0.004896894648973155
0.004896894648973139
0.004896894648973192
0.004896894648973171
0.004896894648973151
0.004896894648973195
0.004896894648973168
0.004896894648973144
0.004896894648973189
0.00489689464897316
0.004896894648973137
0.004896894648973174
0.004896894648973156
0.004896894648973143
0.004896894648973189
0.00489689464897316
0.00489689464897314
0.004896894648973184
0.004896894648973162
0.004896894648973138
0.00489689464897318
0.004896894648973147
0.004896894648973118
0.004896894648973171
0.004896894648973144
0.004896894648973111
0.004896894648973134
0.004896894648973134
0.004896894648973153
0.004896894648973139
0.00489689464897312
0.004896894648973153
0.004896894648973132
0.004896894648973109
0.004896894648973165
0.00489689464897313
0.004896894648973104
0.004896894648973132
0.004896894648973139
0.004896894648973113
0.004896894648973096
0.004896894648973103
0.004896894648973111
0.004896894648973095
0.00489689464897292
0.005504563204076869
0.005504563204077099
0.005504563204077206
0.00550456320407725
0.005504563204077267
0.005504563204077265
0.005504563204077247
0.005504563204077255
0.005504563204077255
0.005504563204077314
0.0055045632040773
0.005504563204077286
0.005504563204077323
0.005504563204077326
0.00550456320407732
0.005504563204077359
0.005504563204077348
0.005504563204077335
0.005504563204077371
0.005504563204077349
0.005504563204077327
0.005504563204077365
0.005504563204077339
0.005504563204077316
0.005504563204077344
0.005504563204077332
0.005504563204077328
0.005504563204077367
0.005504563204077337
0.005504563204077322
0.005504563204077361
0.005504563204077341
0.005504563204077322
0.005504563204077356
0.005504563204077328
0.005504563204077299
0.005504563204077345
0.005504563204077325
0.005504563204077289
0.005504563204077309
0.005504563204077309
0.005504563204077319
0.005504563204077316
0.005504563204077302
0.005504563204077327
0.005504563204077309
0.005504563204077292
0.005504563204077343
0.005504563204077311
0.005504563204077289
0.005504563204077311
0.005504563204077316
0.005504563204077297
0.005504563204077272
0.005504563204077284
0.005504563204077287
0.005504563204077265
0.005504563204077091
0.00611927198197322
0.006119271981973414
0.00611927198197355
0.006119271981973612
0.006119271981973634
0.006119271981973635
0.006119271981973638
0.006119271981973643
0.006119271981973636
0.006119271981973693
0.006119271981973688
0.006119271981973677
0.006119271981973709
0.006119271981973721
0.00611927198197372
0.006119271981973744
0.006119271981973746
0.00611927198197374
0.006119271981973764
0.00611927198197375
0.006119271981973734
0.006119271981973758
0.00611927198197374
0.006119271981973722
0.006119271981973732
0.006119271981973728
0.006119271981973734
0.006119271981973759
0.006119271981973735
0.006119271981973731
0.006119271981973757
0.006119271981973738
0.006119271981973728
0.006119271981973754
0.006119271981973731
0.006119271981973701
0.006119271981973738
0.006119271981973722
0.006119271981973691
0.006119271981973705
0.006119271981973707
0.006119271981973708
0.00611927198197371
0.006119271981973706
0.006119271981973723
0.006119271981973708
0.0061192719819737
0.00611927198197374
0.006119271981973715
0.006119271981973697
0.006119271981973712
0.006119271981973719
0.006119271981973702
0.006119271981973678
0.006119271981973692
0.006119271981973692
0.006119271981973656
0.006119271981973492
0.006719173870713107
0.006719173870713251
0.006719173870713401
0.006719173870713486
0.006719173870713514
0.006719173870713511
0.006719173870713534
0.00671917387071354
0.006719173870713532
0.006719173870713587
0.006719173870713586
0.006719173870713573
0.006719173870713612
0.006719173870713631
0.006719173870713634
0.006719173870713647
0.006719173870713665
0.006719173870713659
0.006719173870713669
0.006719173870713667
0.006719173870713657
0.006719173870713669
0.006719173870713653
0.006719173870713642
0.006719173870713645
0.006719173870713632
0.006719173870713649
0.006719173870713667
0.006719173870713645
0.006719173870713656
0.006719173870713668
0.006719173870713651
0.006719173870713652
0.006719173870713667
0.006719173870713648
0.00671917387071362
0.006719173870713645
0.006719173870713635
0.006719173870713607
0.006719173870713614
0.006719173870713614
0.006719173870713608
0.006719173870713625
0.006719173870713629
0.006719173870713634
0.006719173870713621
0.006719173870713626
0.006719173870713655
0.006719173870713635
0.006719173870713616
0.00671917387071363
0.006719173870713638
0.006719173870713625
0.006719173870713599
0.006719173870713609
0.006719173870713603
0.006719173870713569
0.006719173870713424
0.00728731057748375
0.007287310577483838
0.007287310577483988
0.007287310577484096
0.00728731057748412
0.007287310577484115
0.007287310577484158
0.007287310577484165
0.007287310577484149
0.007287310577484209
0.007287310577484214
0.00728731057748419
0.007287310577484238
0.00728731057748427
0.007287310577484267
0.007287310577484277
0.007287310577484307
0.007287310577484303
0.0072873105774843
0.00728731057748431
0.007287310577484306
0.007287310577484312
0.0072873105774843
0.007287310577484292
0.007287310577484289
0.007287310577484265
0.007287310577484294
0.007287310577484309
0.00728731057748428
0.007287310577484303
0.007287310577484311
0.007287310577484286
0.007287310577484303
0.007287310577484309
0.007287310577484292
0.007287310577484268
0.007287310577484276
0.007287310577484276
0.007287310577484252
0.007287310577484253
0.007287310577484252
0.007287310577484241
0.007287310577484269
0.007287310577484275
0.007287310577484276
0.007287310577484261
0.007287310577484277
0.007287310577484299
0.007287310577484284
0.007287310577484266
0.007287310577484285
0.007287310577484288
0.007287310577484276
0.00728731057748425
0.007287310577484256
0.007287310577484249
0.007287310577484216
0.007287310577484093
0.007812664286030583
0.00781266428603062
0.007812664286030753
0.00781266428603088
0.007812664286030894
0.007812664286030885
0.007812664286030946
0.007812664286030953
0.007812664286030929
0.007812664286031
0.007812664286031005
0.007812664286030974
0.007812664286031031
0.007812664286031069
0.007812664286031064
0.007812664286031071
0.007812664286031114
0.007812664286031112
0.007812664286031093
0.007812664286031121
0.007812664286031125
0.007812664286031123
0.007812664286031118
0.007812664286031107
0.007812664286031102
0.007812664286031066
0.007812664286031102
0.007812664286031118
0.007812664286031079
0.007812664286031112
0.007812664286031119
0.007812664286031085
0.007812664286031114
0.007812664286031123
0.007812664286031107
0.007812664286031081
0.007812664286031079
0.007812664286031078
0.007812664286031064
0.007812664286031062
0.007812664286031055
0.007812664286031036
0.007812664286031076
0.007812664286031086
0.007812664286031085
0.007812664286031073
0.007812664286031095
0.007812664286031111
0.007812664286031104
0.007812664286031081
0.007812664286031104
0.007812664286031105
0.007812664286031093
0.007812664286031066
0.007812664286031069
0.007812664286031064
0.00781266428603104
0.007812664286030929
0.008289475764256272
0.008289475764256258
0.008289475764256369
0.008289475764256499
0.008289475764256512
0.008289475764256494
0.008289475764256569
0.008289475764256577
0.008289475764256544
0.008289475764256623
0.008289475764256633
0.00828947576425659
0.008289475764256655
0.008289475764256704
0.008289475764256695
0.008289475764256697
0.008289475764256753
0.008289475764256754
0.008289475764256723
0.008289475764256765
0.008289475764256768
0.00828947576425676
0.00828947576425676
0.008289475764256756
0.008289475764256746
0.008289475764256702
0.008289475764256746
0.008289475764256756
0.008289475764256709
0.008289475764256758
0.008289475764256763
0.008289475764256716
0.00828947576425676
0.008289475764256765
0.008289475764256753
0.008289475764256732
0.008289475764256728
0.00828947576425672
0.008289475764256713
0.008289475764256704
0.008289475764256694
0.008289475764256664
0.008289475764256716
0.00828947576425673
0.008289475764256725
0.008289475764256711
0.008289475764256744
0.008289475764256754
0.008289475764256751
0.008289475764256728
0.008289475764256749
0.008289475764256753
0.008289475764256746
0.008289475764256718
0.008289475764256723
0.008289475764256721
0.008289475764256695
0.008289475764256603
0.00871574856770287
0.00871574856770283
0.008715748567702899
0.008715748567703031
0.008715748567703036
0.008715748567703014
0.008715748567703097
0.008715748567703109
0.008715748567703067
0.008715748567703147
0.008715748567703163
0.008715748567703109
0.008715748567703184
0.008715748567703241
0.008715748567703237
0.008715748567703227
0.008715748567703293
0.008715748567703295
0.008715748567703253
0.008715748567703309
0.008715748567703314
0.008715748567703298
0.008715748567703303
0.008715748567703302
0.008715748567703291
0.008715748567703241
0.008715748567703288
0.008715748567703293
0.008715748567703241
0.008715748567703303
0.008715748567703309
0.008715748567703251
0.008715748567703305
0.00871574856770331
0.008715748567703303
0.008715748567703288
0.008715748567703281
0.008715748567703269
0.008715748567703257
0.008715748567703248
0.008715748567703231
0.008715748567703198
0.008715748567703253
0.008715748567703276
0.008715748567703269
0.008715748567703251
0.008715748567703295
0.008715748567703302
0.008715748567703293
0.008715748567703276
0.008715748567703305
0.008715748567703305
0.008715748567703296
0.008715748567703265
0.008715748567703281
0.008715748567703283
0.008715748567703258
0.008715748567703182
0.009091711501971854
0.0090917115019718
0.009091711501971829
0.009091711501971944
0.009091711501971952
0.009091711501971919
0.009091711501972004
0.009091711501972024
0.009091711501971972
0.00909171150197206
0.009091711501972074
0.009091711501972013
0.009091711501972093
0.009091711501972164
0.009091711501972157
0.009091711501972142
0.009091711501972211
0.009091711501972214
0.009091711501972164
0.009091711501972227
0.00909171150197224
0.009091711501972218
0.009091711501972232
0.009091711501972232
0.009091711501972213
0.009091711501972157
0.009091711501972209
0.009091711501972216
0.009091711501972155
0.009091711501972223
0.009091711501972232
0.009091711501972168
0.00909171150197223
0.009091711501972237
0.009091711501972232
0.009091711501972225
0.009091711501972213
0.009091711501972201
0.009091711501972178
0.009091711501972171
0.00909171150197215
0.009091711501972109
0.009091711501972176
0.009091711501972199
0.009091711501972195
0.009091711501972174
0.009091711501972223
0.00909171150197223
0.009091711501972227