/*--------------------------------*- C++ -*----------------------------------*\
| =========                 |                                                 |
| \\      /  F ield         | OpenFOAM: The Open Source CFD Toolbox           |
|  \\    /   O peration     | Version:  v1812                                 |
|   \\  /    A nd           | Web:      www.OpenFOAM.com                      |
|    \\/     M anipulation  |                                                 |
\*---------------------------------------------------------------------------*/
FoamFile
{
    version     2.0;
    format      ascii;
    class       volScalarField;
    location    "20000";
    object      p;
}
// * * * * * * * * * * * * * * * * * * * * * * * * * * * * * * * * * * * * * //

dimensions      [0 2 -2 0 0 0 0];


internalField   nonuniform List<scalar> 
3770
(
-5.435568619048564e-18
-3.332217249479259e-15
-4.164460617039457e-15
-5.314331453428693e-15
-5.762169204171171e-15
-6.125522106362344e-15
-6.422223717477632e-15
-6.484786410201625e-15
-6.726078051371268e-15
-6.779510203286162e-15
-6.862384594976399e-15
-6.851126210195061e-15
-6.97190074090204e-15
-6.891613650391405e-15
-6.943021960603127e-15
-6.92898261268259e-15
-6.873849773393692e-15
-6.818089173374478e-15
-6.844664607848558e-15
-6.739753531440998e-15
-6.768380160663149e-15
-6.71193162983924e-15
-6.588011532760327e-15
-6.563487136752538e-15
-6.496232344034193e-15
-6.372323976363025e-15
-6.329875790222065e-15
-6.270532146831126e-15
-6.184617520742723e-15
-6.072851685072224e-15
-6.052693484098943e-15
-5.957730354740416e-15
-5.900776294699798e-15
-5.752864492388165e-15
-5.600704585650524e-15
-5.544571176836975e-15
-5.514165518436638e-15
-5.31476851372843e-15
-5.155040770748725e-15
-5.07321248209653e-15
-4.984512869208995e-15
-4.814435891713567e-15
-4.683098554905409e-15
-4.521396029006055e-15
-4.373233734740607e-15
-4.08153446119798e-15
-4.013983721571308e-15
-3.835384992351502e-15
-3.634713907670868e-15
-3.337180049019822e-15
-3.26145023011941e-15
-2.75425126952309e-15
-2.675148114722713e-15
-2.10460732441491e-15
-2.145872378906987e-15
-1.256762541824391e-15
-1.339959664860024e-15
-7.254365031972961e-16
-5.921693929251569e-18
-3.33045785855108e-15
-4.165400415800256e-15
-5.313248010219777e-15
-5.761493203783602e-15
-6.124142270073007e-15
-6.423024468185386e-15
-6.484940749251888e-15
-6.725827186445052e-15
-6.778650532065418e-15
-6.862746836500616e-15
-6.851789929009161e-15
-6.971152457970845e-15
-6.891640072974228e-15
-6.943976165894644e-15
-6.92774420544459e-15
-6.874483795669523e-15
-6.818245863423502e-15
-6.843181780377159e-15
-6.740846578621922e-15
-6.768120722642966e-15
-6.711782326445513e-15
-6.588506771721941e-15
-6.563230935453349e-15
-6.495932846036204e-15
-6.372511421453255e-15
-6.330780088621794e-15
-6.26948490458611e-15
-6.184375943438785e-15
-6.074834598695278e-15
-6.052083841754361e-15
-5.956864252021236e-15
-5.901513593114517e-15
-5.752926988452413e-15
-5.601765031092001e-15
-5.544571204129867e-15
-5.512128262865688e-15
-5.315045301023659e-15
-5.156946796721422e-15
-5.074443618857198e-15
-4.984583959441117e-15
-4.813337665744751e-15
-4.683299427652063e-15
-4.522331984686619e-15
-4.373120720415631e-15
-4.081812661895897e-15
-4.014100299138487e-15
-3.836004594685065e-15
-3.63575840100118e-15
-3.337887224934403e-15
-3.262467327947091e-15
-2.753802419196452e-15
-2.674372184722148e-15
-2.106288376924133e-15
-2.149036301799851e-15
-1.257610092909823e-15
-1.336099224878964e-15
-7.250847739319389e-16
4.753706946449647e-18
-3.327203587203235e-15
-4.166326560142885e-15
-5.308518338760122e-15
-5.75908351597599e-15
-6.125850176810071e-15
-6.425729267704421e-15
-6.483493071094027e-15
-6.723010161551772e-15
-6.777254978048792e-15
-6.867901605113765e-15
-6.849562432758049e-15
-6.968089826889962e-15
-6.895165986676679e-15
-6.943063338849247e-15
-6.924092663413011e-15
-6.879253228365028e-15
-6.81662685828411e-15
-6.840174896355265e-15
-6.745081456915204e-15
-6.766173539878879e-15
-6.708950093958904e-15
-6.593544275444138e-15
-6.562476836145217e-15
-6.49273945966934e-15
-6.377044587510538e-15
-6.329723684258983e-15
-6.265661725413704e-15
-6.187952631054015e-15
-6.076029897223941e-15
-6.0503503370717e-15
-5.95952214998729e-15
-5.900332881358831e-15
-5.752009225953734e-15
-5.606361462472245e-15
-5.542254144465852e-15
-5.508674770147526e-15
-5.321015423192984e-15
-5.160560981194457e-15
-5.074019936970878e-15
-4.981811654557589e-15
-4.811686639028559e-15
-4.68829967679008e-15
-4.522429276454609e-15
-4.371714831721977e-15
-4.086987300922465e-15
-4.012899092743379e-15
-3.83474322797073e-15
-3.641660853890783e-15
-3.338077222417081e-15
-3.263061222987848e-15
-2.758271920761901e-15
-2.677316256225883e-15
-2.106152061241328e-15
-2.154462673120478e-15
-1.258583454011534e-15
-1.330218414175906e-15
-7.231880846325142e-16
2.509088036416536e-17
-3.318991548150667e-15
-4.165737017419385e-15
-5.300945211132667e-15
-5.756185575812015e-15
-6.127271869671261e-15
-6.429370788638135e-15
-6.480479405695319e-15
-6.718871425412514e-15
-6.775874948158707e-15
-6.874406053377537e-15
-6.846041036414058e-15
-6.964961208378426e-15
-6.898977316906802e-15
-6.940820367032265e-15
-6.919931166286008e-15
-6.885920927576016e-15
-6.814230114150091e-15
-6.836645739242051e-15
-6.750155756089608e-15
-6.763748078101623e-15
-6.705608037147607e-15
-6.600292011013824e-15
-6.561118287561096e-15
-6.48880258030867e-15
-6.382547906336641e-15
-6.32802716730829e-15
-6.261321480964902e-15
-6.192876829560714e-15
-6.077660086662965e-15
-6.048446507349393e-15
-5.963298772468544e-15
-5.898187268291271e-15
-5.750694160593967e-15
-5.613408882567781e-15
-5.538991946340996e-15
-5.504738955467963e-15
-5.329963743660228e-15
-5.165115087627322e-15
-5.073154965693313e-15
-4.977944066640924e-15
-4.810460740890058e-15
-4.695091507734426e-15
-4.52171327252857e-15
-4.371154563843841e-15
-4.094987629577657e-15
-4.012355300803133e-15
-3.833075024149567e-15
-3.649428953809593e-15
-3.338098805827946e-15
-3.265206458695016e-15
-2.766268907652348e-15
-2.682111193398702e-15
-2.106272619315905e-15
-2.162786745850155e-15
-1.262090877455178e-15
-1.323521219030166e-15
-7.209852337061289e-16
4.896304228837562e-17
-3.307857635187167e-15
-4.164071527174317e-15
-5.292541604477839e-15
-5.755201695715372e-15
-6.127808736679763e-15
-6.43175401387523e-15
-6.476999806180971e-15
-6.715734535020446e-15
-6.774911366009002e-15
-6.879786480373072e-15
-6.84123623247734e-15
-6.963382546032872e-15
-6.902294111543335e-15
-6.936459930690091e-15
-6.917880288505149e-15
-6.892662114038815e-15
-6.810537257902558e-15
-6.83382994409011e-15
-6.754719551808154e-15
-6.761238581308836e-15
-6.703784116155369e-15
-6.606041356024999e-15
-6.558234882482739e-15
-6.485948683909704e-15
-6.387608316752426e-15
-6.326738918849315e-15
-6.258771274199978e-15
-6.196614833520549e-15
-6.078867001916306e-15
-6.047456317684186e-15
-5.966407398891009e-15
-5.895669411053263e-15
-5.751184435744374e-15
-5.620601382958299e-15
-5.535658289292861e-15
-5.502277107275105e-15
-5.337906705684357e-15
-5.168299935192589e-15
-5.071568122592525e-15
-4.974975923086956e-15
-4.811970884872734e-15
-4.701202820013347e-15
-4.519234310822552e-15
-4.372254927630027e-15
-4.104163067442258e-15
-4.011581730382029e-15
-3.83175329012635e-15
-3.656441583297775e-15
-3.338055433412178e-15
-3.268226670434642e-15
-2.773743541060447e-15
-2.687441909303896e-15
-2.10808004648126e-15
-2.171297623786833e-15
-1.266307758267138e-15
-1.319848057413421e-15
-7.201654924742347e-16
7.299083634958266e-17
-3.296890885779167e-15
-4.161311956628783e-15
-5.285160994257558e-15
-5.755557034538229e-15
-6.128096679124522e-15
-6.432473788982781e-15
-6.475108202219028e-15
-6.712043271104173e-15
-6.773855253610853e-15
-6.88336548725951e-15
-6.837058361426557e-15
-6.962408004345926e-15
-6.904374347706505e-15
-6.93268237063335e-15
-6.91668991900256e-15
-6.898535413913407e-15
-6.80579285382639e-15
-6.832179325468123e-15
-6.758351876900765e-15
-6.758377003392993e-15
-6.703609905305816e-15
-6.61149916883651e-15
-6.553951212579043e-15
-6.48379900512501e-15
-6.393113543341431e-15
-6.325546071683098e-15
-6.256627169833732e-15
-6.198709387739048e-15
-6.079689236207671e-15
-6.049140858187113e-15
-5.96951501258942e-15
-5.892226807127544e-15
-5.752227657759456e-15
-5.626480923692141e-15
-5.533009893882854e-15
-5.501458985345732e-15
-5.344277370896131e-15
-5.170318206802353e-15
-5.07024251425241e-15
-4.972728248016354e-15
-4.814373923927763e-15
-4.706395856874606e-15
-4.516254390186373e-15
-4.374095513115175e-15
-4.112790356356749e-15
-4.012329817507137e-15
-3.83092560898009e-15
-3.661021561555684e-15
-3.338078445298251e-15
-3.271349008977343e-15
-2.781519135526443e-15
-2.692671827239622e-15
-2.110390272236884e-15
-2.179211712503523e-15
-1.269762736891411e-15
-1.320010977515401e-15
-7.191582126896657e-16
9.623421508778313e-17
-3.286970794639879e-15
-4.157660264869554e-15
-5.278564561776045e-15
-5.756858927844008e-15
-6.126687627075229e-15
-6.433310625105e-15
-6.473742707287699e-15
-6.710002497050246e-15
-6.772767957152941e-15
-6.886766675612959e-15
-6.833058787818228e-15
-6.961826502059237e-15
-6.904821809896085e-15
-6.928424410150878e-15
-6.915982466572841e-15
-6.90278507352662e-15
-6.802408591726362e-15
-6.832289962874736e-15
-6.760165351926137e-15
-6.754570301577613e-15
-6.704719823703204e-15
-6.615973632726999e-15
-6.549931858009727e-15
-6.483196961644084e-15
-6.396591229763378e-15
-6.324268247835769e-15
-6.2557739756254e-15
-6.200484216814343e-15
-6.080840779747136e-15
-6.050146806924967e-15
-5.973418400938685e-15
-5.888996010950601e-15
-5.752440085912563e-15
-5.632279966705496e-15
-5.53191859499718e-15
-5.500892284539099e-15
-5.348906700351367e-15
-5.170652044961471e-15
-5.072070199950087e-15
-4.970080707377329e-15
-4.815327006932948e-15
-4.711314361149301e-15
-4.513245363660193e-15
-4.376670648419718e-15
-4.121376733760044e-15
-4.012187847225971e-15
-3.830048667929915e-15
-3.664877063530852e-15
-3.337825329032686e-15
-3.274742256804632e-15
-2.788873169842261e-15
-2.698473255586549e-15
-2.113467220407721e-15
-2.187367408939848e-15
-1.273555662866612e-15
-1.321156452832187e-15
-7.160766377094579e-16
1.179385873860126e-16
-3.276857411927847e-15
-4.152795262585142e-15
-5.272143853972038e-15
-5.757462483786788e-15
-6.125622969725351e-15
-6.433868230325851e-15
-6.473771535973274e-15
-6.708424623503047e-15
-6.771894151275817e-15
-6.88881663247695e-15
-6.828167515967215e-15
-6.96267064375401e-15
-6.905850132690134e-15
-6.921376543567176e-15
-6.915964444372744e-15
-6.906646897124579e-15
-6.798729658392227e-15
-6.832476961811298e-15
-6.76181951569042e-15
-6.750676586174186e-15
-6.705822740970526e-15
-6.619912285155885e-15
-6.546573350370442e-15
-6.482953259288889e-15
-6.39992421979073e-15
-6.323391952851058e-15
-6.254134139722435e-15
-6.203445408111004e-15
-6.082182729709609e-15
-6.052207852539291e-15
-5.975408812992065e-15
-5.885268387250523e-15
-5.754159547896338e-15
-5.638422783957262e-15
-5.529998382550805e-15
-5.5004513227466e-15
-5.353147818254795e-15
-5.170520156884158e-15
-5.073587831278409e-15
-4.967897515272042e-15
-4.817087672977634e-15
-4.715495777171154e-15
-4.51045179967125e-15
-4.379781054895667e-15
-4.128485588273325e-15
-4.012462753578656e-15
-3.830008750090375e-15
-3.667730367809917e-15
-3.338633801817754e-15
-3.278332072072963e-15
-2.795690902295675e-15
-2.704050511926694e-15
-2.11822391771667e-15
-2.194477122387734e-15
-1.278213484190319e-15
-1.323026238200426e-15
-7.115577242827892e-16
1.417869305929255e-16
-3.268826100732459e-15
-4.147887215103262e-15
-5.264615293260581e-15
-5.757459254629568e-15
-6.125418462640251e-15
-6.433521480919082e-15
-6.474112317584416e-15
-6.70618007126973e-15
-6.770995548174523e-15
-6.890667558595141e-15
-6.823888647753939e-15
-6.963599098168494e-15
-6.905562474576283e-15
-6.914762243681935e-15
-6.915587604602521e-15
-6.910592874503319e-15
-6.79353419980692e-15
-6.834181813931514e-15
-6.763489906081004e-15
-6.747489366301726e-15
-6.706743613941046e-15
-6.622418812091159e-15
-6.543141366217417e-15
-6.483232657653086e-15
-6.403147701105603e-15
-6.321434105567183e-15
-6.255047550262397e-15
-6.2045426540526e-15
-6.083821946256932e-15
-6.055256549816668e-15
-5.976417814659629e-15
-5.880972414637429e-15
-5.756642894009748e-15
-5.644890577195998e-15
-5.527130239785603e-15
-5.500702429245907e-15
-5.356452497195096e-15
-5.170611151088133e-15
-5.076017032597047e-15
-4.965628314456643e-15
-4.818547849699448e-15
-4.719971008644574e-15
-4.508233576137544e-15
-4.383014070775178e-15
-4.135254332778054e-15
-4.014060738348265e-15
-3.83043867035869e-15
-3.669734779643674e-15
-3.340378936649304e-15
-3.281479714066497e-15
-2.802362815118353e-15
-2.710229448268894e-15
-2.124117160426592e-15
-2.20062500108234e-15
-1.283667284779091e-15
-1.328428703403712e-15
-7.032329925337238e-16
1.674847759284387e-16
-3.261905688106942e-15
-4.142751370292577e-15
-5.25628622975538e-15
-5.757147798648714e-15
-6.125186093360706e-15
-6.432190169359897e-15
-6.474192837893047e-15
-6.704734585895283e-15
-6.769522083223114e-15
-6.892212526756325e-15
-6.819547133095439e-15
-6.964079717528223e-15
-6.905539473254544e-15
-6.90823601283541e-15
-6.914790047490045e-15
-6.913921410220548e-15
-6.788635187496311e-15
-6.835882502094713e-15
-6.76513021894542e-15
-6.744599673131992e-15
-6.707410190451767e-15
-6.624524520804898e-15
-6.540445891353357e-15
-6.482796360906932e-15
-6.405002086514505e-15
-6.319862284723767e-15
-6.257275813728733e-15
-6.206033780265437e-15
-6.085166959607613e-15
-6.058101205719843e-15
-5.977190889021819e-15
-5.876611399333565e-15
-5.759247288528026e-15
-5.651027332098818e-15
-5.524969842271394e-15
-5.501381508854587e-15
-5.358037347931522e-15
-5.169838929014519e-15
-5.079431331937175e-15
-4.96302035162206e-15
-4.820302500720571e-15
-4.724949586824633e-15
-4.507382983402854e-15
-4.385648341709866e-15
-4.141647860400866e-15
-4.01691883004274e-15
-3.830383355928159e-15
-3.672509146779154e-15
-3.341541152766367e-15
-3.284087356428899e-15
-2.809381252771478e-15
-2.717380445691365e-15
-2.129990698776371e-15
-2.207341285905128e-15
-1.290770834111042e-15
-1.336909725304147e-15
-6.909855362579616e-16
1.957831998024962e-16
-3.25385061053767e-15
-4.138110115793589e-15
-5.248157045334026e-15
-5.756122798170589e-15
-6.124464495768657e-15
-6.430874268949676e-15
-6.473800183000701e-15
-6.703125513010757e-15
-6.768163454947558e-15
-6.893717553981581e-15
-6.81476674100443e-15
-6.96525186461041e-15
-6.905388860141926e-15
-6.901902224596218e-15
-6.913344745102966e-15
-6.916210110054914e-15
-6.784104175609202e-15
-6.837746572767776e-15
-6.766875811471228e-15
-6.741565214659659e-15
-6.708195766048617e-15
-6.626852074414573e-15
-6.537338954851532e-15
-6.483187832029663e-15
-6.406301728437376e-15
-6.318614509742703e-15
-6.258608823367805e-15
-6.208168720598741e-15
-6.085761909094945e-15
-6.061103403948441e-15
-5.977906852330308e-15
-5.87248232857097e-15
-5.762215843967758e-15
-5.656687070653912e-15
-5.524441350280659e-15
-5.501561706070409e-15
-5.359339932501806e-15
-5.168660515262315e-15
-5.082081546981871e-15
-4.961023697318926e-15
-4.823145176100177e-15
-4.72992564878345e-15
-4.506261683756007e-15
-4.389023892065467e-15
-4.148089758311518e-15
-4.018883238035107e-15
-3.831016854090945e-15
-3.675703458318052e-15
-3.343436143653728e-15
-3.28739265920301e-15
-2.817249419534726e-15
-2.725307812154944e-15
-2.136857800623513e-15
-2.213936990811404e-15
-1.299679671701276e-15
-1.347823856928624e-15
-6.749858527971748e-16
2.28924701989866e-16
-3.245944454102472e-15
-4.132719005124811e-15
-5.2396711654499e-15
-5.754514755392166e-15
-6.123403622640727e-15
-6.427758420847971e-15
-6.472988616990612e-15
-6.701176116258787e-15
-6.765670826666132e-15
-6.894751497687232e-15
-6.811190521514564e-15
-6.966599815275282e-15
-6.902443678972543e-15
-6.896558358292293e-15
-6.912668307777063e-15
-6.919123656998025e-15
-6.780066315507407e-15
-6.839894712783194e-15
-6.769145046327022e-15
-6.737912933694925e-15
-6.710078348836058e-15
-6.627519530350223e-15
-6.534288666502301e-15
-6.483701873165752e-15
-6.407523541334655e-15
-6.315790232187983e-15
-6.260914338273413e-15
-6.210714162834094e-15
-6.086170586460306e-15
-6.065064395475717e-15
-5.976855490780889e-15
-5.869266126192911e-15
-5.76441768597786e-15
-5.662789520819648e-15
-5.524691988665082e-15
-5.499880139349462e-15
-5.363644585876358e-15
-5.166337186467287e-15
-5.082730244303822e-15
-4.959610160035139e-15
-4.827617368295146e-15
-4.733987107737339e-15
-4.505558370568784e-15
-4.39489133763027e-15
-4.15242422935373e-15
-4.021315119420039e-15
-3.83176601533984e-15
-3.679107344426755e-15
-3.346363630147118e-15
-3.290489640467959e-15
-2.825695212960403e-15
-2.733527934595507e-15
-2.145676926328037e-15
-2.222717147563279e-15
-1.307998245252606e-15
-1.362532394358944e-15
-6.554527263805317e-16
2.660032947788054e-16
-3.237093167878198e-15
-4.125657066481249e-15
-5.232098084891201e-15
-5.752592948416764e-15
-6.121611867511198e-15
-6.423015413157196e-15
-6.471274472888576e-15
-6.699270277963866e-15
-6.762979350416101e-15
-6.894671067260617e-15
-6.808294446210076e-15
-6.966060489483958e-15
-6.901311496080122e-15
-6.890340860331941e-15
-6.911474396581113e-15
-6.920322949313484e-15
-6.777117352095415e-15
-6.84188034180479e-15
-6.76989295652043e-15
-6.735285285706025e-15
-6.711280652749555e-15
-6.629411955399484e-15
-6.531153006848758e-15
-6.484457804909303e-15
-6.408972370204129e-15
-6.314003225155469e-15
-6.263068863114991e-15
-6.212167129456546e-15
-6.087940922709012e-15
-6.066618209868638e-15
-5.976991268653675e-15
-5.866121765457652e-15
-5.769286237164802e-15
-5.668885445331818e-15
-5.522524950764889e-15
-5.500998269656514e-15
-5.365956839986644e-15
-5.165801209791913e-15
-5.082625880253632e-15
-4.957868050189229e-15
-4.832665552301798e-15
-4.738295424597895e-15
-4.505931501498706e-15
-4.400032698730007e-15
-4.158693576128794e-15
-4.023845468245693e-15
-3.830898042275325e-15
-3.684535681654395e-15
-3.34933399987387e-15
-3.292127755173434e-15
-2.834415546398349e-15
-2.744091499145604e-15
-2.156460364257483e-15
-2.233016399956875e-15
-1.317561916589197e-15
-1.381593390700796e-15
-6.307887106608588e-16
3.014441735108865e-16
-3.22848915760413e-15
-4.114204994094811e-15
-5.224612685096037e-15
-5.748738702998161e-15
-6.12045387646503e-15
-6.416708046334432e-15
-6.468229121598807e-15
-6.696605255487415e-15
-6.761971242684686e-15
-6.893042636487635e-15
-6.805790299867428e-15
-6.962756272053979e-15
-6.902884735728803e-15
-6.884545155490268e-15
-6.910140181787785e-15
-6.92049187283173e-15
-6.774378332083751e-15
-6.843510875130391e-15
-6.771229385066513e-15
-6.732751953260447e-15
-6.711165957275016e-15
-6.631675585018697e-15
-6.527656418632411e-15
-6.486402736566293e-15
-6.410024436201665e-15
-6.31350858261395e-15
-6.264817284294163e-15
-6.212973384999564e-15
-6.08973518373754e-15
-6.066618095774419e-15
-5.979334769678786e-15
-5.863961414438161e-15
-5.773504849855939e-15
-5.676338195256142e-15
-5.518657581952609e-15
-5.503513387812618e-15
-5.365395109042906e-15
-5.166389094192507e-15
-5.082441995225209e-15
-4.956912889955843e-15
-4.837869775961387e-15
-4.742186594302167e-15
-4.50883982584445e-15
-4.402803116232994e-15
-4.166037660886265e-15
-4.026109354256904e-15
-3.8320435276357e-15
-3.688955732659679e-15
-3.352989094976244e-15
-3.295134546120617e-15
-2.842753819572172e-15
-2.757152009257026e-15
-2.165882784826052e-15
-2.244793846677424e-15
-1.328376423653738e-15
-1.406311678717653e-15
-6.003084007879151e-16
3.319425609349613e-16
-3.224074982631954e-15
-4.097250267629621e-15
-5.217260291932084e-15
-5.743504206720112e-15
-6.118286862867956e-15
-6.406749302454102e-15
-6.46659471336197e-15
-6.693015213218187e-15
-6.760546995741647e-15
-6.891680266283755e-15
-6.804821383487566e-15
-6.959135453331124e-15
-6.901696164935717e-15
-6.878565696696766e-15
-6.908553859306429e-15
-6.920356869149005e-15
-6.771601517583345e-15
-6.844028321222014e-15
-6.773706358930905e-15
-6.730230750337941e-15
-6.71129096820157e-15
-6.633624383902527e-15
-6.524633413670906e-15
-6.487137656012914e-15
-6.410919230797025e-15
-6.312856349304795e-15
-6.267161401690088e-15
-6.215610154708175e-15
-6.089629424406174e-15
-6.066632975977506e-15
-5.980659800505469e-15
-5.863769106161228e-15
-5.776281939437532e-15
-5.681022029908665e-15
-5.517804161725397e-15
-5.503651769708102e-15
-5.366511394389004e-15
-5.167831350175972e-15
-5.081347781572436e-15
-4.956961675252034e-15
-4.844060149492977e-15
-4.744208250269922e-15
-4.513038066248226e-15
-4.406441951580567e-15
-4.169885209362847e-15
-4.03076791787861e-15
-3.834944931049776e-15
-3.693284777571494e-15
-3.357114232690219e-15
-3.29674987556823e-15
-2.852445473047871e-15
-2.770211004902267e-15
-2.177452057083596e-15
-2.254818782308058e-15
-1.339204655488026e-15
-1.437241625149451e-15
-5.641534911422832e-16
3.4886542311341e-16
-3.231160184434403e-15
-4.07378795382312e-15
-5.21119904940535e-15
-5.732106780684435e-15
-6.115264289864739e-15
-6.396411094852648e-15
-6.465454948017501e-15
-6.685915859018215e-15
-6.757436824581491e-15
-6.889140849936544e-15
-6.806283269256663e-15
-6.95453059197036e-15
-6.899661660905165e-15
-6.873278448336729e-15
-6.905903445930591e-15
-6.918973114268602e-15
-6.771050623616837e-15
-6.84421182984446e-15
-6.775388688725811e-15
-6.729463102449803e-15
-6.709606940773141e-15
-6.63547879357508e-15
-6.522362739138996e-15
-6.487390013947243e-15
-6.41084313872713e-15
-6.313706715734764e-15
-6.26878917450347e-15
-6.217249866493902e-15
-6.088382961900085e-15
-6.068033740520519e-15
-5.981359921596017e-15
-5.864334615478082e-15
-5.779996037839708e-15
-5.685262305481658e-15
-5.517659162311986e-15
-5.502527266853871e-15
-5.367396131566397e-15
-5.170380080780522e-15
-5.081791935023687e-15
-4.957200658088446e-15
-4.849251158281982e-15
-4.745005862481713e-15
-4.517988430668047e-15
-4.406947278165773e-15
-4.176068598836621e-15
-4.035289733544332e-15
-3.837406426659426e-15
-3.698536570678297e-15
-3.362605762411434e-15
-3.297267516743278e-15
-2.858938709910885e-15
-2.783882044789162e-15
-2.191732711251615e-15
-2.262310998808636e-15
-1.348908944014948e-15
-1.473662192575557e-15
-5.198221443190213e-16
3.435751710823379e-16
-3.254134044910589e-15
-4.044598129802353e-15
-5.207612712753234e-15
-5.717540215687048e-15
-6.10918566747477e-15
-6.384525240015155e-15
-6.463444467133878e-15
-6.679105293481942e-15
-6.752670924886949e-15
-6.884791459892899e-15
-6.806258592418743e-15
-6.949836864130022e-15
-6.89754836040576e-15
-6.870276774490262e-15
-6.902714312976909e-15
-6.915927263669453e-15
-6.770877425268567e-15
-6.84207199175989e-15
-6.776136043390762e-15
-6.729753554121144e-15
-6.708560307007505e-15
-6.635639648044506e-15
-6.521661614421758e-15
-6.487131061871968e-15
-6.41131891424768e-15
-6.316148665250096e-15
-6.26871079711341e-15
-6.216769121158768e-15
-6.090024925589204e-15
-6.069065632330349e-15
-5.980362898184603e-15
-5.864293085266412e-15
-5.783346594076261e-15
-5.690478844119432e-15
-5.520187990534112e-15
-5.500043240971912e-15
-5.365288997067944e-15
-5.17392717424461e-15
-5.083608806734435e-15
-4.957414266934095e-15
-4.851649950872028e-15
-4.746903461563163e-15
-4.521423940351606e-15
-4.40802894730756e-15
-4.182461322773371e-15
-4.038908947087551e-15
-3.838570714095557e-15
-3.701986124238879e-15
-3.367415438661734e-15
-3.299714133806123e-15
-2.862216908942203e-15
-2.794531179573061e-15
-2.203503169901759e-15
-2.27193404678874e-15
-1.356975053430872e-15
-1.509833105741034e-15
-4.700534531060289e-16
3.067814956087193e-16
-3.303291290271025e-15
-4.009625405234368e-15
-5.202451719221184e-15
-5.698653486555829e-15
-6.099893876975913e-15
-6.373820553329102e-15
-6.460787941015097e-15
-6.672123487530942e-15
-6.747335474070566e-15
-6.878624982319481e-15
-6.806588284122068e-15
-6.942912723579465e-15
-6.893318033703278e-15
-6.869863988092313e-15
-6.899168967576838e-15
-6.911972265510551e-15
-6.770088654672611e-15
-6.84034057379527e-15
-6.776942105640436e-15
-6.727367320346218e-15
-6.709943660138052e-15
-6.634642894782143e-15
-6.521558996815654e-15
-6.48749748335033e-15
-6.410343402998804e-15
-6.318967343122682e-15
-6.269453498105324e-15
-6.216435396575671e-15
-6.094335988861324e-15
-6.066195460873378e-15
-5.978452180433955e-15
-5.866909325105411e-15
-5.785379733267617e-15
-5.691060690714394e-15
-5.524604377758879e-15
-5.496236324698509e-15
-5.362994774225324e-15
-5.179794828138532e-15
-5.083744305640657e-15
-4.959438771364434e-15
-4.852410901760386e-15
-4.746411139203573e-15
-4.524359865252141e-15
-4.411390978886709e-15
-4.185457851228617e-15
-4.042560455077803e-15
-3.836801058108712e-15
-3.704003795385895e-15
-3.371029050646057e-15
-3.302382454669287e-15
-2.864368397724454e-15
-2.806268864884695e-15
-2.210153426433268e-15
-2.283758075399209e-15
-1.360684882758136e-15
-1.537521183310533e-15
-4.115743681627625e-16
2.403664304498069e-16
-3.382865390456101e-15
-3.966510388752264e-15
-5.200283489677128e-15
-5.675357051183465e-15
-6.089168713867758e-15
-6.359738968162858e-15
-6.460014498523566e-15
-6.664740356310432e-15
-6.742466514295795e-15
-6.871055091551731e-15
-6.808782900022116e-15
-6.936648887280827e-15
-6.886956009213073e-15
-6.870084090038912e-15
-6.895398372698582e-15
-6.904903356705487e-15
-6.770465002197092e-15
-6.837141803654743e-15
-6.777884898651867e-15
-6.727863202691649e-15
-6.707545929761753e-15
-6.633292230148937e-15
-6.525015667194812e-15
-6.485908741437007e-15
-6.406837666672441e-15
-6.323032419511322e-15
-6.270536172015404e-15
-6.215536771330579e-15
-6.098117521617476e-15
-6.064660196170518e-15
-5.97543666728359e-15
-5.869240844950887e-15
-5.786114549622163e-15
-5.692440854477337e-15
-5.528013975831816e-15
-5.49239839325188e-15
-5.361566498548669e-15
-5.185112898695359e-15
-5.082402401198297e-15
-4.960960727981647e-15
-4.854618969332541e-15
-4.744024155903017e-15
-4.526324590691675e-15
-4.411606368605222e-15
-4.188121254629043e-15
-4.047200842951515e-15
-3.834532026924649e-15
-3.702927971217533e-15
-3.374155226270544e-15
-3.302113199852218e-15
-2.866929034862494e-15
-2.815284596189365e-15
-2.211456783600743e-15
-2.290677740042044e-15
-1.360019863140814e-15
-1.562851471903788e-15
-3.444896981510314e-16
1.536481562805691e-16
-3.496804677468356e-15
-3.926024302979716e-15
-5.201253294636009e-15
-5.649443492818757e-15
-6.077758444194888e-15
-6.342724969954779e-15
-6.456679541367794e-15
-6.655176321753821e-15
-6.738360394944255e-15
-6.863445763936614e-15
-6.809231225933507e-15
-6.931772029165847e-15
-6.880406563499732e-15
-6.868476985039249e-15
-6.890464781014169e-15
-6.897093738138652e-15
-6.772939652057768e-15
-6.832342664794463e-15
-6.777536467062624e-15
-6.729428845208391e-15
-6.704809734782759e-15
-6.631851615404743e-15
-6.528413472114568e-15
-6.485235053956209e-15
-6.403968437121533e-15
-6.326738567526543e-15
-6.270424729573048e-15
-6.214397850947512e-15
-6.100929483172655e-15
-6.063491383157783e-15
-5.971632346202897e-15
-5.872148799796277e-15
-5.784608627941939e-15
-5.695684862763399e-15
-5.532132480509252e-15
-5.487630680712533e-15
-5.358801235329694e-15
-5.18947510929177e-15
-5.081819659786751e-15
-4.963765745096686e-15
-4.856220161133495e-15
-4.737462336797502e-15
-4.52719950508672e-15
-4.410491077151182e-15
-4.187495554306566e-15
-4.051445514801871e-15
-3.832877942687161e-15
-3.699011689471649e-15
-3.378594645884758e-15
-3.301040844929587e-15
-2.864935632920658e-15
-2.819502883089874e-15
-2.211407245757261e-15
-2.297743079544153e-15
-1.351315652689517e-15
-1.583862746567981e-15
-2.689787942739184e-16
4.774195601945126e-17
-3.642729278292829e-15
-3.889887922040057e-15
-5.204286440684022e-15
-5.623076546235617e-15
-6.065873162850757e-15
-6.323637709837017e-15
-6.45432726982218e-15
-6.647939794329619e-15
-6.730338547672567e-15
-6.855715294928797e-15
-6.810217454869485e-15
-6.923361549523931e-15
-6.872991040823905e-15
-6.867219053005654e-15
-6.885004791755527e-15
-6.889686273224847e-15
-6.774745587757796e-15
-6.827113560882907e-15
-6.777004548392574e-15
-6.729882412869429e-15
-6.701224369474319e-15
-6.62926614336121e-15
-6.531833528702756e-15
-6.486498149240802e-15
-6.402888451922578e-15
-6.327531291112339e-15
-6.270154174632726e-15
-6.212265137009485e-15
-6.105061906157455e-15
-6.061241341825958e-15
-5.967447395406743e-15
-5.873723164856968e-15
-5.784749535485091e-15
-5.694109608092185e-15
-5.539215457882252e-15
-5.483274058726913e-15
-5.353280397562207e-15
-5.195410172673568e-15
-5.081377868554331e-15
-4.964836261698333e-15
-4.85354814385379e-15
-4.734034395537169e-15
-4.530802871649331e-15
-4.410645983107456e-15
-4.186530543954457e-15
-4.049782607538357e-15
-3.827978585363168e-15
-3.698641848704037e-15
-3.377256465525525e-15
-3.300064863785391e-15
-2.860329392103242e-15
-2.822485810414194e-15
-2.205304069641515e-15
-2.303486020820743e-15
-1.33662779179389e-15
-1.598632362366224e-15
-1.837614298201091e-16
-6.952036420147739e-17
-3.818908226174461e-15
-3.858730570447515e-15
-5.210480115552813e-15
-5.600387819492821e-15
-6.055254037135595e-15
-6.303749236263119e-15
-6.449247675043534e-15
-6.638383187962882e-15
-6.720960157473889e-15
-6.847713891291291e-15
-6.808785080301792e-15
-6.912987521738138e-15
-6.86750510415966e-15
-6.867047932894053e-15
-6.87849644734549e-15
-6.884948640457585e-15
-6.775483992568338e-15
-6.821203743899327e-15
-6.773588322401807e-15
-6.728490951711609e-15
-6.699874420092712e-15
-6.628965945516347e-15
-6.531581796671805e-15
-6.488684536458614e-15
-6.408270177833567e-15
-6.327024333506303e-15
-6.269016722355868e-15
-6.209898209636445e-15
-6.107909989800803e-15
-6.061366598180413e-15
-5.962239369259728e-15
-5.871645402097213e-15
-5.785525267380184e-15
-5.691911193633771e-15
-5.54688649329323e-15
-5.4796762158014e-15
-5.346139350234075e-15
-5.196632883855911e-15
-5.082150301595085e-15
-4.967712553191014e-15
-4.84824700762654e-15
-4.729874952194764e-15
-4.532679534004457e-15
-4.408718620933383e-15
-4.184490758273919e-15
-4.052433471794911e-15
-3.819846028153843e-15
-3.696983325421101e-15
-3.372124314716089e-15
-3.300170539638979e-15
-2.855173928347758e-15
-2.822419940908166e-15
-2.193886210509494e-15
-2.306319442035973e-15