/*--------------------------------*- C++ -*----------------------------------*\
| =========                 |                                                 |
| \\      /  F ield         | OpenFOAM: The Open Source CFD Toolbox           |
|  \\    /   O peration     | Version:  v1812                                 |
|   \\  /    A nd           | Web:      www.OpenFOAM.com                      |
|    \\/     M anipulation  |                                                 |
\*---------------------------------------------------------------------------*/
FoamFile
{
    version     2.0;
    format      ascii;
    class       surfaceScalarField;
    location    "20000";
    object      phi;
}
// * * * * * * * * * * * * * * * * * * * * * * * * * * * * * * * * * * * * * //

dimensions      [0 3 -1 0 0 0 0];
oriented        oriented;


internalField   nonuniform List<scalar> 
7417
(
-0.0007526339982692223
4.093874588756567e-18
-0.000752633998269225
2.517041806230091e-18
-0.0007526339982692259
9.144662828359232e-19
-0.0007526339982692267
8.072739506682447e-19
-0.000752633998269227
3.516934600465712e-19
-0.0007526339982692281
1.093957400583546e-18
-0.0007526339982692279
-2.335574223668596e-19
-0.000752633998269228
9.315897515867787e-20
-0.0007526339982692276
-1.909010547297784e-19
-0.0007526339982692281
2.535452397580098e-19
-0.0007526339982692282
2.315932958967523e-19
-0.000752633998269228
-2.90680038878715e-19
-0.0007526339982692282
2.855406445573191e-19
-0.0007526339982692285
2.653977091177443e-19
-0.0007526339982692282
-4.068852728304817e-19
-0.0007526339982692284
3.371569811378251e-19
-0.0007526339982692287
2.368297659782156e-19
-0.0007526339982692282
-5.315275075411804e-19
-0.0007526339982692285
3.006021401801421e-19
-0.0007526339982692287
4.279716112873748e-20
-0.000752633998269228
-5.652087732539607e-19
-0.0007526339982692286
5.848542599688786e-19
-0.0007526339982692288
2.782244927057831e-19
-0.0007526339982692282
-6.277840157663744e-19
-0.0007526339982692284
1.236154269442299e-19
-0.0007526339982692286
3.027067923538076e-19
-0.0007526339982692282
-3.635623659168983e-19
-0.0007526339982692283
8.358156369272734e-20
-0.0007526339982692286
2.646790985134888e-19
-0.0007526339982692282
-3.887035224527172e-19
-0.0007526339982692283
3.987393591224131e-20
-0.0007526339982692284
1.528239265346294e-19
-0.000752633998269228
-4.144235219300498e-19
-0.0007526339982692283
4.068113757027951e-19
-0.0007526339982692282
-1.308280544727023e-19
-0.0007526339982692276
-6.028838416883994e-19
-0.000752633998269228
4.452268661667925e-19
-0.0007526339982692282
1.436573494183521e-19
-0.0007526339982692276
-5.757539357658627e-19
-0.0007526339982692271
-4.968411769459162e-19
-0.0007526339982692267
-4.626719448376464e-19
-0.0007526339982692267
-5.074618925441693e-20
-0.0007526339982692266
-8.666880349235954e-20
-0.0007526339982692258
-6.862873315744902e-19
-0.0007526339982692258
7.996984569590342e-20
-0.0007526339982692259
8.262249144184676e-20
-0.000752633998269225
-1.035981769674649e-18
-0.000752633998269225
-4.051997235027088e-20
-0.0007526339982692247
-2.407277217177492e-19
-0.0007526339982692237
-9.78979706838624e-19
-0.000752633998269224
2.031907733440209e-19
-0.0007526339982692233
-6.591393937311768e-19
-0.0007526339982692223
-9.005841078160242e-19
-0.0007526339982692217
-6.696997771773151e-19
-0.0007526339982692216
-1.022575877966149e-19
-0.0007526339982692196
-1.939235927416287e-18
-0.0007526339982692199
2.956428458131097e-19
1.082249930133079e-18
-0.0005648508863759698
8.922533859877833e-18
-0.0005648508863759733
5.935872910647288e-18
-0.0005648508863759745
2.133238558793761e-18
-0.0005648508863759761
2.375630182332891e-18
-0.0005648508863759768
1.148858337229909e-18
-0.0005648508863759788
3.04804457101687e-18
-0.0005648508863759787
-3.276609214788667e-19
-0.0005648508863759787
8.076017354981887e-20
-0.0005648508863759782
-6.569590834445172e-19
-0.000564850886375979
9.700302582688738e-19
-0.0005648508863759795
9.013060577571377e-19
-0.0005648508863759788
-1.152600013779946e-18
-0.0005648508863759789
4.522941556136657e-19
-0.0005648508863759798
1.096145644682554e-18
-0.000564850886375979
-1.210760035315428e-18
-0.0005648508863759791
5.468250155349379e-19
-0.0005648508863759799
9.072345825735445e-19
-0.0005648508863759791
-1.299569118892641e-18
-0.0005648508863759794
5.911395118915586e-19
-0.0005648508863759803
7.41480687370632e-19
-0.0005648508863759793
-1.436581421488711e-18
-0.0005648508863759793
6.673605043585086e-19
-0.0005648508863759802
1.150782992272225e-18
-0.0005648508863759794
-1.33932634912458e-18
-0.0005648508863759792
-5.205094138257748e-20
-0.00056485088637598
1.062420536325824e-18
-0.0005648508863759789
-1.356506372724273e-18
-0.0005648508863759789
5.17828949831076e-20
-0.0005648508863759794
8.130236058174385e-19
-0.0005648508863759788
-1.057314611721175e-18
-0.000564850886375979
1.728579851287401e-19
-0.0005648508863759793
4.853820339596044e-19
-0.0005648508863759785
-1.317812191230376e-18
-0.0005648508863759786
6.110992276547623e-19
-0.0005648508863759789
1.582834716086921e-19
-0.0005648508863759778
-1.696673283791134e-18
-0.0005648508863759781
8.392984012308046e-19
-0.000564850886375979
9.579014990618801e-19
-0.000564850886375978
-1.578536360201628e-18
-0.0005648508863759771
-1.436267933337578e-18
-0.0005648508863759762
-1.391669562743452e-18
-0.0005648508863759761
-6.348049481577366e-20
-0.0005648508863759765
2.488684996802479e-19
-0.0005648508863759751
-2.044260039429695e-18
-0.0005648508863759746
-4.457539314467801e-19
-0.0005648508863759748
3.40642170766878e-19
-0.0005648508863759734
-2.577086683183673e-18
-0.0005648508863759729
-4.885149178051213e-19
-0.0005648508863759729
-1.714574449293428e-19
-0.0005648508863759711
-2.836670199599433e-18
-0.0005648508863759704
-3.981839479269246e-19
-0.0005648508863759702
-9.525797756928512e-19
-0.0005648508863759689
-2.150396194785048e-18
-0.0005648508863759674
-2.249425041602627e-18
-0.0005648508863759666
-8.057031695826432e-19
-0.0005648508863759643
-4.342717382405658e-18
-0.0005648508863759637
-1.976966837909385e-19
2.232383199677267e-18
-0.0004328025081045583
1.570225442620762e-17
-0.0004328025081045624
1.006019491696873e-17
-0.0004328025081045634
3.151634304730585e-18
-0.0004328025081045659
4.845472795105896e-18
-0.0004328025081045663
1.576075204164523e-18
-0.0004328025081045675
4.246411838001076e-18
-0.0004328025081045674
-4.154249052480292e-19
-0.0004328025081045681
7.791016605549661e-19
-0.0004328025081045681
-6.186421715507759e-19
-0.0004328025081045685
1.425585378248217e-18
-0.0004328025081045683
6.76584967741981e-19
-0.0004328025081045684
-1.089435263194722e-18
-0.0004328025081045686
6.279638209309891e-19
-0.0004328025081045688
1.266587921032333e-18
-0.0004328025081045687
-1.43892803377958e-18
-0.0004328025081045691
1.100742662087359e-18
-0.0004328025081045689
6.55110545006776e-19
-0.0004328025081045689
-1.352520584421182e-18
-0.0004328025081045693
9.722766819891856e-19
-0.0004328025081045693
6.915011015116317e-19
-0.0004328025081045691
-1.534591901065009e-18
-0.0004328025081045691
6.719611605896243e-19
-0.0004328025081045689
9.778974911824436e-19
-0.0004328025081045688
-1.423703716093317e-18
-0.0004328025081045691
1.879961555203707e-19
-0.0004328025081045689
8.868576243252038e-19
-0.0004328025081045687
-1.53992841517074e-18
-0.0004328025081045689
3.035885480769014e-19
-0.0004328025081045687
5.072998118836085e-19
-0.0004328025081045683
-1.335473224246522e-18
-0.0004328025081045686
3.944502991656545e-19
-0.0004328025081045685
4.044007754706234e-19
-0.000432802508104568
-1.80164374387503e-18
-0.0004328025081045679
5.308801824409443e-19
-0.0004328025081045677
-7.577645801081866e-20
-0.0004328025081045674
-1.979572534843369e-18
-0.0004328025081045676
1.092338707662982e-18
-0.000432802508104567
2.971204007222437e-19
-0.0004328025081045665
-2.122029185114174e-18
-0.000432802508104566
-1.875617065576678e-18
-0.0004328025081045656
-1.767395619420179e-18
-0.0004328025081045656
-1.002212959782777e-19
-0.000432802508104565
-4.089575128318496e-19
-0.000432802508104564
-2.916538758183635e-18
-0.0004328025081045634
-1.059536473449064e-18
-0.0004328025081045629
-1.6671938668234e-19
-0.0004328025081045626
-2.983336056467522e-18
-0.0004328025081045619
-1.227588265461186e-18
-0.0004328025081045608
-1.169943407671338e-18
-0.0004328025081045597
-3.989348366826006e-18
-0.000432802508104559
-1.119393483673654e-18
-0.000432802508104558
-1.949883286492483e-18
-0.0004328025081045566
-3.614103714718143e-18
-0.0004328025081045552
-3.583996059769039e-18
-0.000432802508104554
-2.099643525383594e-18
-0.0004328025081045522
-6.104137497895457e-18
-0.0004328025081045518
-5.882132139803921e-19
1.960571661486795e-18
-0.0003689018434593708
2.326550437078789e-17
-0.0003689018434593761
1.527957099963692e-17
-0.0003689018434593769
4.016036849563683e-18
-0.0003689018434593795
7.457016863207867e-18
-0.0003689018434593804
2.533004659299061e-18
-0.0003689018434593814
5.221741588028633e-18
-0.0003689018434593814
-4.782751831625342e-19
-0.0003689018434593818
1.246010115145564e-18
-0.0003689018434593821
-3.532395030900479e-19
-0.0003689018434593825
1.783552882712224e-18
-0.000368901843459382
3.094982572647476e-19
-0.0003689018434593824
-7.273634998719523e-19
-0.0003689018434593828
1.098734447326389e-18
-0.0003689018434593826
9.670060442021195e-19
-0.0003689018434593826
-1.438784203173789e-18
-0.0003689018434593831
1.593045434154353e-18
-0.0003689018434593826
1.499598026948849e-19
-0.0003689018434593828
-1.088599341172544e-18
-0.0003689018434593832
1.267044764087284e-18
-0.000368901843459383
4.97758603381752e-19
-0.0003689018434593833
-1.213195907114944e-18
-0.0003689018434593834
8.509453819661646e-19
-0.0003689018434593829
5.065764272162256e-19
-0.0003689018434593827
-1.677539309397636e-18
-0.0003689018434593828
3.476587292579892e-19
-0.0003689018434593825
5.03812128205988e-19
-0.0003689018434593827
-1.221184627691194e-18
-0.0003689018434593829
4.223822536235652e-19
-0.0003689018434593823
-8.389498694693638e-20
-0.0003689018434593822
-1.387132659672549e-18
-0.0003689018434593825
5.957413326357123e-19
-0.0003689018434593821
6.805920933610823e-20
-0.0003689018434593819
-1.978434678536276e-18
-0.0003689018434593819
5.062026723942489e-19
-0.0003689018434593813
-5.969033901358919e-19
-0.0003689018434593813
-1.993965457132205e-18
-0.0003689018434593813
1.092330849692205e-18
-0.0003689018434593807
-3.823584952666958e-19
-0.0003689018434593799
-2.944743156154921e-18
-0.0003689018434593796
-2.068545531630308e-18
-0.0003689018434593795
-1.941819077173789e-18
-0.0003689018434593792
-3.132385033434638e-19
-0.0003689018434593784
-1.210476936342566e-18
-0.0003689018434593778
-3.427895510907433e-18
-0.0003689018434593776
-1.327810779601931e-18
-0.0003689018434593768
-1.013417097042715e-18
-0.0003689018434593761
-3.767254127292224e-18
-0.0003689018434593754
-1.92902721441011e-18
-0.0003689018434593742
-2.333641991824758e-18
-0.0003689018434593733
-4.856160463197061e-18
-0.0003689018434593723
-2.093474609569901e-18
-0.0003689018434593712
-3.12995316848733e-18
-0.0003689018434593698
-5.042181400323985e-18
-0.0003689018434593684
-4.951016762414553e-18
-0.0003689018434593667
-3.721027377537284e-18
-0.0003689018434593652
-7.610282175211885e-18
-0.0003689018434593647
-1.091934403003054e-18
5.059481032120859e-19
-0.0003287221878032709
3.117962792998916e-17
-0.0003287221878032768
2.109501983880197e-17
-0.0003287221878032779
5.182625971524369e-18
-0.0003287221878032807
1.026316355635072e-17
-0.0003287221878032813
3.136528619272209e-18
-0.0003287221878032822
6.130111854211855e-18
-0.0003287221878032824
-3.259592494269467e-19
-0.0003287221878032834
2.184523785286538e-18
-0.0003287221878032835
-1.941736403984807e-19
-0.0003287221878032841
2.359572965836849e-18
-0.0003287221878032833
-4.447835684229525e-19
-0.0003287221878032846
6.132216933581131e-19
-0.0003287221878032841
5.596574717587968e-19
-0.0003287221878032839
7.933856630875573e-19
-0.0003287221878032844
-1.07056855722682e-18
-0.0003287221878032845
1.777652945927874e-18
-0.000328722187803284
-4.509097072986994e-19
-0.0003287221878032847
-3.163444745491028e-19
-0.000328722187803285
1.467329004510961e-18
-0.0003287221878032844
-1.312065415559482e-19
-0.0003287221878032845
-1.067608017664907e-18
-0.0003287221878032851
1.450801922862009e-18
-0.0003287221878032843
-2.856610603920989e-19
-0.0003287221878032844
-1.633548921285885e-18
-0.0003287221878032847
7.449268957084635e-19
-0.000328722187803284
-1.711238277552818e-19
-0.0003287221878032841
-1.102346161834015e-18
-0.0003287221878032843
6.338460516000129e-19
-0.0003287221878032838
-5.917915389451909e-19
-0.0003287221878032838
-1.344402556527571e-18
-0.000328722187803284
7.894934101455033e-19
-0.0003287221878032837
-3.094199302646299e-19
-0.0003287221878032836
-2.063643459473642e-18
-0.0003287221878032833
3.029446486398857e-19
-0.0003287221878032827
-1.22122270705614e-18
-0.0003287221878032828
-1.8824436718372e-18
-0.0003287221878032829
1.251696175886547e-18
-0.0003287221878032817
-1.698088108617154e-18
-0.0003287221878032812
-3.424749893714092e-18
-0.0003287221878032814
-1.791325217551753e-18
-0.0003287221878032809
-2.469969700973981e-18
-0.0003287221878032806
-6.292290652667927e-19
-0.0003287221878032801
-1.702409838204635e-18
-0.0003287221878032794
-4.122020937171078e-18
-0.0003287221878032788
-1.883140950229495e-18
-0.000328722187803278
-1.777350955824457e-18
-0.0003287221878032774
-4.392786237296086e-18
-0.0003287221878032767
-2.716496530705923e-18
-0.0003287221878032754
-3.606517100791836e-18
-0.0003287221878032747
-5.555292679675556e-18
-0.0003287221878032736
-3.236877831764472e-18
-0.0003287221878032723
-4.352125663558379e-18
-0.0003287221878032709
-6.470070214058353e-18
-0.0003287221878032695
-6.411041736964451e-18
-0.0003287221878032678
-5.428310871017382e-18
-0.0003287221878032662
-9.203655331168853e-18
-0.0003287221878032653
-1.982622337986713e-18
-1.737069075700598e-18
-0.0003002979671167294
3.919792649749115e-17
-0.0003002979671167362
2.790016811594003e-17
-0.0003002979671167373
6.25224958166297e-18
-0.0003002979671167404
1.33232588731239e-17
-0.0003002979671167407
3.491491905640697e-18
-0.0003002979671167416
7.076116858079533e-18
-0.0003002979671167419
-2.794962356355644e-20
-0.000300297967116743
3.162025083167692e-18
-0.0003002979671167434
2.962075631436746e-19
-0.0003002979671167433
2.2399660422148e-18
-0.0003002979671167432
-5.312519332383375e-19
-0.0003002979671167436
1.031589678220984e-18
-0.0003002979671167442
1.172321112207241e-18
-0.0003002979671167439
4.408486559543413e-19
-0.0003002979671167441
-8.727000419685711e-19
-0.0003002979671167446
2.288993765395038e-18
-0.0003002979671167437
-1.338045036434498e-18
-0.0003002979671167441
7.984981133030364e-20
-0.000300297967116744
1.404240985882919e-18
-0.0003002979671167446
3.693907332106309e-19
-0.0003002979671167447
-9.054197599510017e-19
-0.0003002979671167443
1.082933731845425e-18
-0.0003002979671167439
-6.580334026167982e-19
-0.0003002979671167446
-9.98376603080372e-19
-0.0003002979671167441
2.557944693260427e-19
-0.0003002979671167439
-3.517688828320012e-19
-0.0003002979671167442
-8.402690749384154e-19
-0.0003002979671167443
7.169612373325133e-19
-0.0003002979671167438
-1.061709410698024e-18
-0.0003002979671167439
-1.197285440646754e-18
-0.0003002979671167438
6.139906654831925e-19
-0.0003002979671167433
-7.899966468756055e-19
-0.0003002979671167435
-1.834951152690951e-18
-0.0003002979671167433
1.291791380219035e-19
-0.0003002979671167426
-1.922855364720302e-18
-0.0003002979671167426
-1.861924102464279e-18
-0.0003002979671167421
7.3070290070069e-19
-0.0003002979671167416
-2.24602490263531e-18
-0.0003002979671167409
-4.083533633018685e-18
-0.0003002979671167405
-2.188331617167362e-18
-0.000300297967116741
-1.982803211386338e-18
-0.0003002979671167406
-1.09637667951357e-18
-0.0003002979671167392
-3.111445209276731e-18
-0.0003002979671167391
-4.14409577131522e-18
-0.0003002979671167387
-2.376467503671384e-18
-0.0003002979671167373
-3.128215072219053e-18
-0.0003002979671167371
-4.628136509980676e-18
-0.0003002979671167363
-3.564320630070475e-18
-0.0003002979671167351
-4.769576534471946e-18
-0.0003002979671167345
-6.194894040879002e-18
-0.0003002979671167332
-4.509077632210547e-18
-0.0003002979671167318
-5.745750659489268e-18
-0.0003002979671167305
-7.717353069296175e-18
-0.0003002979671167291
-7.818100629261129e-18
-0.0003002979671167273
-7.258204186327021e-18
-0.0003002979671167256
-1.087037804296157e-17
-0.0003002979671167243
-3.266595643767184e-18
-4.670495052149492e-18
-0.0002801668129681174
4.786825520593534e-17
-0.0002801668129681244
3.486389313868184e-17
-0.0002801668129681262
8.022491177894314e-18
-0.0002801668129681288
1.59742569660545e-17
-0.0002801668129681296
4.276892441925632e-18
-0.0002801668129681308
8.336678828194493e-18
-0.000280166812968131
1.089986909824125e-19
-0.0002801668129681319
3.99433732550595e-18
-0.000280166812968132
5.232595367529098e-19
-0.0002801668129681326
2.755313998319913e-18
-0.0002801668129681324
-7.04129685875935e-19
-0.0002801668129681327
1.33135773148478e-18
-0.000280166812968133
1.501558262464294e-18
-0.0002801668129681331
4.589702409135775e-19
-0.0002801668129681335
-4.839222009390593e-19
-0.0002801668129681331
1.941638040763636e-18
-0.000280166812968133
-1.548502858086839e-18
-0.0002801668129681334
5.290483282330394e-19
-0.0002801668129681336
1.61663378131767e-18
-0.0002801668129681331
-1.893136831057023e-19
-0.0002801668129681337
-3.154625846893305e-19
-0.0002801668129681334
8.704641568444779e-19
-0.0002801668129681332
-8.9014286164089e-19
-0.0002801668129681331
-1.103923236438247e-18
-0.0002801668129681332
3.864013280456871e-19
-0.0002801668129681328
-7.377255566162646e-19
-0.0002801668129681331
-5.075131478888427e-19
-0.0002801668129681327
2.81157737974095e-19
-0.0002801668129681326
-1.082676327791156e-18
-0.0002801668129681329
-9.51307417733639e-19
-0.0002801668129681331
7.599341849666847e-19
-0.0002801668129681326
-1.279181862261394e-18
-0.0002801668129681323
-2.099062427006548e-18
-0.000280166812968132
-1.186375065646033e-19
-0.0002801668129681318
-2.213873596638773e-18
-0.0002801668129681319
-1.758609767471467e-18
-0.0002801668129681311
1.091720619087823e-20
-0.0002801668129681301
-3.279342514727853e-18
-0.00028016681296813
-4.178078378381547e-18
-0.00028016681296813
-2.213981496808982e-18
-0.0002801668129681297
-2.286710415643556e-18
-0.0002801668129681292
-1.586627887696281e-18
-0.0002801668129681285
-3.815365393460661e-18
-0.0002801668129681284
-4.250334042698964e-18
-0.0002801668129681274
-3.381918944132215e-18
-0.0002801668129681262
-4.31778061306706e-18
-0.0002801668129681261
-4.778856013696406e-18
-0.0002801668129681252
-4.48444438837311e-18
-0.0002801668129681239
-6.043680591774332e-18
-0.0002801668129681234
-6.635076101471652e-18
-0.0002801668129681221
-5.880305036625602e-18
-0.0002801668129681207
-7.157680264169517e-18
-0.0002801668129681191
-9.271287349205277e-18
-0.0002801668129681176
-9.328442582006498e-18
-0.0002801668129681156
-9.304428756087344e-18
-0.0002801668129681137
-1.28100806616163e-17
-0.0002801668129681122
-4.693228223042247e-18
-8.118347984086818e-18
-0.0002679199126245822
5.629638227617554e-17
-0.0002679199126245902
4.287996657019382e-17
-0.0002679199126245918
9.583372930483964e-18
-0.0002679199126245952
1.939843690411714e-17
-0.0002679199126245959
4.924692901456458e-18
-0.000267919912624597
9.407375285908788e-18
-0.0002679199126245975
5.676291208349707e-19
-0.0002679199126245984
4.963345156735881e-18
-0.0002679199126245988
8.743497239421432e-19
-0.0002679199126245992
3.184777444816906e-18
-0.0002679199126245991
-7.987909613810239e-19
-0.0002679199126245998
2.024464543543885e-18
-0.0002679199126245998
1.540144400599955e-18
-0.0002679199126245997
3.210797668195741e-19
-0.0002679199126246005
3.359751238564463e-19
-0.0002679199126246001
1.534171351976749e-18
-0.0002679199126245997
-1.964118497432734e-18
-0.0002679199126246003
1.118517407849062e-18
-0.0002679199126246003
1.590744570371772e-18
-0.0002679199126246002
-3.849213676445437e-19
-0.0002679199126246007
1.678150443528305e-19
-0.0002679199126246004
5.81308052189429e-19
-0.0002679199126245999
-1.332135145896025e-18
-0.0002679199126246005
-4.956820329736394e-19
-0.0002679199126246001
-9.318081956850632e-20
-0.0002679199126245997
-1.078248828416548e-18
-0.0002679199126246
-2.218009371155772e-19
-0.0002679199126246004
7.182285798052982e-19
-0.0002679199126245995
-2.019813416319997e-18
-0.0002679199126245998
-6.931089604816226e-19
-0.0002679199126245997
6.639834114594652e-19
-0.0002679199126245992
-1.820278759857623e-18
-0.0002679199126245992
-2.056896136130517e-18
-0.0002679199126245989
-3.982431946121281e-19
-0.0002679199126245984
-2.671994659742581e-18
-0.0002679199126245984
-1.778783843464045e-18
-0.0002679199126245978
-5.471130036166079e-19
-0.0002679199126245969
-4.206795733036529e-18
-0.0002679199126245967
-4.399589414967779e-18
-0.0002679199126245966
-2.290033459910739e-18
-0.0002679199126245965
-2.389734139696272e-18
-0.000267919912624596
-2.118002573254178e-18
-0.0002679199126245953
-4.431775501814029e-18
-0.0002679199126245949
-4.688488095897615e-18
-0.000267919912624594
-4.242798484374096e-18
-0.000267919912624593
-5.367994171162289e-18
-0.0002679199126245926
-5.121061891915833e-18
-0.0002679199126245917
-5.447366463248818e-18
-0.0002679199126245905
-7.218017956628756e-18
-0.0002679199126245899
-7.243399587485958e-18
-0.0002679199126245883
-7.415713550051524e-18
-0.0002679199126245872
-8.354780388637815e-18
-0.0002679199126245855
-1.09172446032526e-17
-0.0002679199126245838
-1.105573541887016e-17
-0.0002679199126245815
-1.167064912989223e-17
-0.0002679199126245799
-1.432471894475705e-17
-0.0002679199126245781
-6.492237573533682e-18
-1.24019575011282e-17
-0.0002644528939567375
6.520961560032153e-17
-0.0002644528939567463
5.167361187667571e-17
-0.0002644528939567488
1.213242547781254e-17
-0.0002644528939567519
2.247960169045009e-17
-0.0002644528939567528
5.847454216975222e-18
-0.0002644528939567538
1.031229662559589e-17
-0.0002644528939567545
1.249105922854779e-18
-0.0002644528939567555
5.968853733132197e-18
-0.0002644528939567563
1.744660808604496e-18
-0.0002644528939567566
3.430408716204539e-18
-0.0002644528939567565
-8.387588403589112e-19
-0.0002644528939567573
2.815290095689757e-18
-0.0002644528939567573
1.577569021683974e-18
-0.0002644528939567571
1.070213484924623e-19
-0.0002644528939567577
8.911472333701279e-19
-0.0002644528939567576
1.46849791798487e-18
-0.0002644528939567573
-2.339866321232799e-18
-0.0002644528939567582
2.039558582759984e-18
-0.0002644528939567577
1.103692138307621e-18
-0.0002644528939567577
-4.132041833433337e-19
-0.0002644528939567582
6.208974338632554e-19
-0.0002644528939567579
3.27863554538366e-19
-0.0002644528939567575
-1.71932095711952e-18
-0.0002644528939567575
-5.728413060064408e-19
-0.0002644528939567576
3.332992408366898e-20
-0.0002644528939567572
-1.454654755992146e-18
-0.0002644528939567575
5.946208781912973e-20
-0.0002644528939567571
3.709616964796556e-19
-0.0002644528939567571
-1.990436913755463e-18
-0.0002644528939567573
-4.889720980194877e-19
-0.0002644528939567571
4.177542259994363e-19
-0.0002644528939567566
-2.311948632862285e-18
-0.0002644528939567567
-1.99561970365699e-18
-0.0002644528939567563
-7.633108487310862e-19
-0.0002644528939567558
-3.176156619314901e-18
-0.0002644528939567559
-1.714560079514872e-18
-0.0002644528939567552
-1.18828307671811e-18
-0.0002644528939567543
-5.162860930301873e-18
-0.000264452893956754
-4.681205226334299e-18
-0.0002644528939567539
-2.438029795723013e-18
-0.0002644528939567538
-2.504035714002336e-18
-0.0002644528939567532
-2.69399366294419e-18
-0.0002644528939567523
-5.363870211292852e-18
-0.0002644528939567522
-4.736872221432812e-18
-0.0002644528939567512
-5.286113540227551e-18
-0.00026445289395675
-6.580042417845454e-18
-0.0002644528939567499
-5.334205861852359e-18
-0.0002644528939567487
-6.595332058945043e-18
-0.0002644528939567476
-8.33028054782036e-18
-0.0002644528939567466
-8.228114123189244e-18
-0.000264452893956745
-9.027460933294797e-18
-0.0002644528939567435
-9.787672651626204e-18
-0.0002644528939567422
-1.224785679584203e-17
-0.0002644528939567402
-1.314009777987909e-17
-0.000264452893956738
-1.385283770635185e-17
-0.0002644528939567355
-1.675514953839937e-17
-0.0002644528939567331
-8.967761002903179e-18
-1.682268591937411e-17
-0.0002707232852386987
7.45300333761325e-17
-0.0002707232852387088
6.173188617479194e-17
-0.0002707232852387117
1.502334450917865e-17
-0.0002707232852387155
2.635353203164378e-17
-0.0002707232852387167
6.979383240157616e-18
-0.0002707232852387177
1.140805992284796e-17
-0.0002707232852387187
2.17569501478297e-18
-0.0002707232852387198
7.112032768335914e-18
-0.0002707232852387201
2.129357858238403e-18
-0.0002707232852387208
4.123783461297901e-18
-0.0002707232852387209
-7.819560328878812e-19
-0.0002707232852387217
3.587062530233952e-18
-0.0002707232852387217
1.596310088113977e-18
-0.0002707232852387219
2.423343914413522e-19
-0.0002707232852387222
1.204431251856154e-18
-0.0002707232852387223
1.672436605973892e-18
-0.000270723285238722
-2.701271486448076e-18
-0.0002707232852387223
2.365485716777205e-18
-0.0002707232852387225
1.209137608075324e-18
-0.0002707232852387225
-3.992297709858443e-19
-0.000270723285238723
1.158388986483165e-18
-0.0002707232852387227
-2.033443104409261e-22
-0.0002707232852387223
-2.093689701113616e-18
-0.0002707232852387226
-3.237751985723488e-19
-0.0002707232852387223
-1.732877219407868e-19
-0.000270723285238722
-1.754155879123309e-18
-0.0002707232852387223
4.36665982639606e-19
-0.0002707232852387225
4.500251179443591e-19
-0.0002707232852387218
-2.689365844452557e-18
-0.0002707232852387221
-1.834793338429008e-19
-0.0002707232852387218
1.311947540879248e-19
-0.0002707232852387213
-2.793135810320103e-18
-0.0002707232852387214
-1.875306157319069e-18
-0.000270723285238721
-1.155516804115901e-18
-0.0002707232852387204
-3.766966102752465e-18
-0.0002707232852387205
-1.61078519450953e-18
-0.0002707232852387197
-1.908096807301e-18
-0.0002707232852387189
-6.119049499364109e-18
-0.0002707232852387187
-4.833840924957305e-18
-0.0002707232852387183
-2.769268548049982e-18
-0.0002707232852387182
-2.660259829988032e-18
-0.0002707232852387176
-3.254543021743044e-18
-0.0002707232852387165
-6.471641753660105e-18
-0.0002707232852387161
-5.148875177414667e-18
-0.000270723285238715
-6.424400051914868e-18
-0.0002707232852387141
-7.468899387986337e-18
-0.0002707232852387134
-6.03527642127201e-18
-0.0002707232852387122
-7.787822690151995e-18
-0.000270723285238711
-9.634659104413284e-18
-0.0002707232852387102
-8.945237590486238e-18
-0.0002707232852387085
-1.074113226966183e-17
-0.0002707232852387067
-1.159244975724851e-17
-0.0002707232852387051
-1.390402910775671e-17
-0.0002707232852387032
-1.498970831644748e-17
-0.0002707232852387005
-1.655130588336866e-17
-0.0002707232852386977
-1.952680685010831e-17
-0.0002707232852386948
-1.187741355228906e-17
-2.220357527159359e-17
-0.0002862707009987977
8.44663252059332e-17
-0.0002862707009988096
7.362355508616356e-17
-0.0002862707009988132
1.863223126701869e-17
-0.0002862707009988178
3.095557022112807e-17
-0.0002862707009988194
8.58366696952027e-18
-0.0002862707009988209
1.287496203458423e-17
-0.0002862707009988218
3.07670593737508e-18
-0.0002862707009988232
8.475373613449859e-18
-0.000286270700998824
2.991533334957071e-18
-0.0002862707009988247
4.773088476118504e-18
-0.0002862707009988248
-6.236929611359586e-19
-0.0002862707009988258
4.581591085511766e-18
-0.0002862707009988257
1.496153847571291e-18
-0.0002862707009988256
1.966123191336979e-19
-0.0002862707009988264
1.929705256297354e-18
-0.0002862707009988264
1.636666937463058e-18
-0.0002862707009988261
-2.946852712575498e-18
-0.0002862707009988269
3.119426320333053e-18
-0.0002862707009988267
9.918325096182466e-19
-0.0002862707009988267
-3.991555305132815e-19
-0.0002862707009988271
1.616414613723391e-18
-0.0002862707009988268
-2.694589603879959e-19
-0.0002862707009988264
-2.511886525735613e-18
-0.0002862707009988267
-5.031744339953973e-20
-0.0002862707009988265
-4.064896152937063e-19
-0.0002862707009988261
-2.082874989235613e-18
-0.0002862707009988264
7.65138365048164e-19
-0.0002862707009988262
2.682748518963947e-19
-0.0002862707009988259
-3.025035108108376e-18
-0.0002862707009988262
1.681688152112836e-19
-0.000286270700998826
-1.775031492701276e-19
-0.0002862707009988254
-3.403493328025592e-18
-0.0002862707009988255
-1.784325814280138e-18
-0.0002862707009988249
-1.648830683434913e-18
-0.0002862707009988244
-4.33390828233822e-18
-0.0002862707009988244
-1.645408197035255e-18
-0.0002862707009988235
-2.825777329155328e-18
-0.0002862707009988226
-7.055216055710051e-18
-0.0002862707009988224
-5.01975474862976e-18
-0.000286270700998822
-3.199730101310824e-18
-0.0002862707009988218
-2.859057899961512e-18
-0.0002862707009988211
-3.911113499399889e-18
-0.0002862707009988201
-7.512234185156157e-18
-0.0002862707009988195
-5.680084254386438e-18
-0.0002862707009988182
-7.709368287396537e-18
-0.0002862707009988171
-8.575858469464879e-18
-0.0002862707009988165
-6.682226905445668e-18
-0.0002862707009988151
-9.179991831907393e-18
-0.0002862707009988136
-1.115027688568505e-17
-0.0002862707009988125
-1.009985969217277e-17
-0.0002862707009988106
-1.268058499092882e-17
-0.0002862707009988087
-1.345466768695631e-17
-0.0002862707009988069
-1.570606118157523e-17
-0.0002862707009988044
-1.746166399199692e-17
-0.0002862707009988013
-1.969140734299453e-17
-0.0002862707009987978
-2.297539563658809e-17
-0.0002862707009987943
-1.543382239502014e-17
-2.866847452723277e-17
-0.0003076991294065984
9.492311838532291e-17
-0.0003076991294066127
8.794235831571481e-17
-0.0003076991294066175
2.340957668750226e-17
-0.0003076991294066231
3.654129480538287e-17
-0.0003076991294066254
1.087229626884062e-17
-0.0003076991294066273
1.478740958979746e-17
-0.0003076991294066286
4.383056361900702e-18
-0.0003076991294066303
1.008924204153193e-17
-0.0003076991294066314
4.134324516030605e-18