/*--------------------------------*- C++ -*----------------------------------*\
| =========                 |                                                 |
| \\      /  F ield         | OpenFOAM: The Open Source CFD Toolbox           |
|  \\    /   O peration     | Version:  v1812                                 |
|   \\  /    A nd           | Web:      www.OpenFOAM.com                      |
|    \\/     M anipulation  |                                                 |
\*---------------------------------------------------------------------------*/
FoamFile
{
    version     2.0;
    format      ascii;
    class       volVectorField;
    location    "20000";
    object      U;
}
// * * * * * * * * * * * * * * * * * * * * * * * * * * * * * * * * * * * * * //

dimensions      [0 1 -1 0 0 0 0];


internalField   nonuniform List<vector> 
3770
(
(-0.7943451912429379 -1.013272701057787e-17 -1.181629898794909e-08)
(-0.7943451912429437 4.659973981003123e-17 -1.181641951302725e-08)
(-0.7943451912429409 1.39199088246027e-17 -1.181604753317275e-08)
(-0.7943451912429462 5.066436543562422e-18 -1.181642267555722e-08)
(-0.7943451912429422 5.707153511818961e-19 -1.181603900867037e-08)
(-0.7943451912429474 1.224499525161937e-17 -1.18163599064085e-08)
(-0.7943451912429444 5.295297814493314e-18 -1.181606261424333e-08)
(-0.7943451912429467 -7.314381514962681e-18 -1.18162926404556e-08)
(-0.794345191242945 1.521221115032657e-19 -1.181608374254814e-08)
(-0.7943451912429461 2.801534234588937e-18 -1.181623705223296e-08)
(-0.7943451912429459 1.408751451195874e-17 -1.18160955180987e-08)
(-0.7943451912429463 -1.233438414863194e-17 -1.181619402860217e-08)
(-0.7943451912429452 2.651872437541469e-18 -1.181609915582785e-08)
(-0.7943451912429469 6.927793861426255e-18 -1.181616093855844e-08)
(-0.794345191242946 -1.427038407353218e-17 -1.181609723682581e-08)
(-0.794345191242946 1.083084157527691e-17 -1.181613510725935e-08)
(-0.7943451912429466 1.653292608543708e-18 -1.181609196956436e-08)
(-0.7943451912429466 -1.155046805630617e-17 -1.18161145301597e-08)
(-0.7943451912429454 9.67114248783736e-18 -1.181608494811697e-08)
(-0.7943451912429472 -5.980495414419606e-18 -1.181609784776096e-08)
(-0.7943451912429458 -2.176388779257445e-18 -1.181607726486215e-08)
(-0.7943451912429458 5.503056854504587e-18 -1.181608418355835e-08)
(-0.794345191242947 3.830571640707224e-18 -1.181606966314818e-08)
(-0.7943451912429464 -3.815573888527236e-18 -1.181607299656147e-08)
(-0.7943451912429454 -3.531923019401536e-18 -1.181606266152635e-08)
(-0.7943451912429467 9.211882018060638e-18 -1.181606397451817e-08)
(-0.7943451912429462 -8.575335034626429e-18 -1.181605663696328e-08)
(-0.7943451912429459 -9.426461623313732e-19 -1.181605696070833e-08)
(-0.7943451912429466 1.359179903519915e-17 -1.181605188106923e-08)
(-0.7943451912429463 -1.469737435379474e-17 -1.181605191150561e-08)
(-0.7943451912429456 2.051724225986776e-18 -1.181604864314935e-08)
(-0.7943451912429466 1.33593703185773e-17 -1.181604885715408e-08)
(-0.7943451912429461 -4.438456240151004e-18 -1.181604714830559e-08)
(-0.7943451912429456 3.058651837762919e-18 -1.181604789286001e-08)
(-0.7943451912429467 -4.31323183847038e-18 -1.181604761776037e-08)
(-0.7943451912429456 -8.101292059835532e-18 -1.181604915170243e-08)
(-0.7943451912429454 1.76199193386976e-17 -1.18160502697784e-08)
(-0.7943451912429461 5.34172947937174e-18 -1.181605280097082e-08)
(-0.7943451912429459 -1.211656950521216e-17 -1.181605531919994e-08)
(-0.7943451912429449 -1.578702265392268e-17 -1.181605900783393e-08)
(-0.7943451912429448 -9.199112777002449e-18 -1.181606294831486e-08)
(-0.794345191242944 7.756902999457995e-18 -1.181606789694795e-08)
(-0.7943451912429447 -1.304105081850137e-18 -1.181607324369335e-08)
(-0.7943451912429439 -1.03700448137354e-17 -1.181607944149538e-08)
(-0.7943451912429432 8.38700090850829e-19 -1.18160860393743e-08)
(-0.7943451912429439 7.668919482913564e-18 -1.181609323353356e-08)
(-0.7943451912429433 -9.874389801829e-18 -1.181610058474862e-08)
(-0.794345191242942 -5.59700635745105e-18 -1.181610799608718e-08)
(-0.7943451912429433 2.872979405037356e-19 -1.181611485969917e-08)
(-0.7943451912429415 -1.219675373170798e-18 -1.18161206543308e-08)
(-0.7943451912429412 9.633577233032707e-19 -1.181612438028804e-08)
(-0.7943451912429412 -7.639939473788618e-18 -1.181612496733783e-08)
(-0.7943451912429405 2.323528149073582e-17 -1.181612104325636e-08)
(-0.7943451912429391 -2.442872597213282e-17 -1.181611153413927e-08)
(-0.7943451912429398 -1.682008242079467e-17 -1.181609468127289e-08)
(-0.7943451912429377 -3.27855319308398e-17 -1.181606964753724e-08)
(-0.7943451912429367 4.86842500751683e-17 -1.181606247635162e-08)
(-0.7943451912429375 2.472539688211072e-17 -1.181611744034103e-08)
(-0.5960817568467381 2.270528522420219e-16 -2.3226020923409e-08)
(-0.5960817568467498 1.556006645241271e-16 -2.322654192196809e-08)
(-0.5960817568467432 8.068186003425493e-17 -2.322571022199822e-08)
(-0.5960817568467528 6.762466828516093e-17 -2.322645390793162e-08)
(-0.5960817568467464 3.478655854653803e-17 -2.322574567820334e-08)
(-0.5960817568467546 9.466733621033454e-17 -2.322630293649879e-08)
(-0.5960817568467509 -5.617797806343722e-18 -2.322579624937373e-08)
(-0.5960817568467539 -5.869808296314231e-18 -2.322617252787923e-08)
(-0.5960817568467511 -2.501069106531679e-17 -2.322582783852516e-08)
(-0.5960817568467531 3.542102574450591e-17 -2.322607119069667e-08)
(-0.5960817568467527 3.516608374819557e-17 -2.322584016517172e-08)
(-0.5960817568467541 -4.653939331112081e-17 -2.32259935762427e-08)
(-0.5960817568467511 1.361574488898712e-17 -2.322583873183898e-08)
(-0.5960817568467545 3.962591757677322e-17 -2.322593328542329e-08)
(-0.5960817568467528 -4.078353412233782e-17 -2.322582867372721e-08)
(-0.5960817568467527 1.739242058590348e-17 -2.322588536498001e-08)
(-0.5960817568467534 3.064225198420342e-17 -2.322581375990262e-08)
(-0.596081756846754 -5.282364376642822e-17 -2.322584640074773e-08)
(-0.5960817568467519 2.048831116084652e-17 -2.322579657010351e-08)
(-0.5960817568467546 3.224527698172724e-17 -2.322581415041468e-08)
(-0.5960817568467537 -4.622632302435188e-17 -2.322577883514727e-08)
(-0.5960817568467527 2.51163590590781e-17 -2.322578719086676e-08)
(-0.5960817568467537 3.214072533241011e-17 -2.322576172574852e-08)
(-0.5960817568467542 -4.555959433450537e-17 -2.322576465246344e-08)
(-0.5960817568467521 2.01731479381108e-18 -2.322574606430997e-08)
(-0.596081756846754 3.204168289831383e-17 -2.322574604275432e-08)
(-0.5960817568467535 -5.058242596844451e-17 -2.322573245503753e-08)
(-0.5960817568467522 1.808934418203677e-18 -2.322573112700965e-08)
(-0.5960817568467532 3.323914795674998e-17 -2.322572137722044e-08)
(-0.5960817568467535 -3.056213837253013e-17 -2.322571985450935e-08)
(-0.596081756846752 6.492338707499699e-18 -2.322571325124749e-08)
(-0.5960817568467536 1.287165125902549e-17 -2.322571230650012e-08)
(-0.5960817568467528 -3.991182122721959e-17 -2.322570846859702e-08)
(-0.5960817568467516 2.009090439730872e-17 -2.322570867176963e-08)
(-0.5960817568467532 1.201136444593304e-17 -2.322570742563754e-08)
(-0.5960817568467524 -5.527529774042127e-17 -2.32257092154436e-08)
(-0.596081756846751 2.277877351075251e-17 -2.322571052660639e-08)
(-0.5960817568467529 3.677130101525731e-17 -2.322571426725738e-08)
(-0.5960817568467525 -3.901853702384594e-17 -2.322571819100705e-08)
(-0.5960817568467509 -4.06832120595576e-17 -2.322572418562515e-08)
(-0.5960817568467505 -5.285577081074498e-17 -2.322573081573043e-08)
(-0.596081756846749 -1.024904883873124e-17 -2.32257393006696e-08)
(-0.5960817568467506 7.327206840621412e-18 -2.322574870419991e-08)
(-0.5960817568467497 -6.852227386702919e-17 -2.322575978163457e-08)
(-0.5960817568467478 -5.007507833402542e-18 -2.322577186929791e-08)
(-0.5960817568467488 1.08211585771505e-17 -2.322578534488963e-08)
(-0.5960817568467479 -9.119661806384324e-17 -2.322579960246097e-08)
(-0.5960817568467455 6.575649437494597e-19 -2.32258146027541e-08)
(-0.5960817568467472 3.017260044307634e-18 -2.32258295241207e-08)
(-0.5960817568467455 -9.596614584498752e-17 -2.322584368918749e-08)
(-0.5960817568467436 1.054253410268662e-17 -2.322585562810606e-08)
(-0.5960817568467438 -3.059627734967664e-17 -2.322586358444436e-08)
(-0.5960817568467434 -7.551789720259953e-17 -2.322586489289969e-08)
(-0.5960817568467407 -6.541692343115465e-17 -2.32258564334989e-08)
(-0.5960817568467408 -8.958521090855795e-18 -2.322583433426277e-08)
(-0.5960817568467383 -1.474140276459084e-16 -2.322579580575544e-08)
(-0.5960817568467366 9.043472539311181e-18 -2.322575394026803e-08)
(-0.5960817568467366 1.120187459851115e-16 -2.322576952215365e-08)
(-0.4565449125663372 5.480577892368123e-16 -3.125042479609209e-08)
(-0.4565449125663527 3.458229761713657e-16 -3.125145140923316e-08)
(-0.4565449125663446 1.375440328340818e-16 -3.125026535255528e-08)
(-0.4565449125663553 1.787793314107146e-16 -3.125120928673686e-08)
(-0.4565449125663495 7.487060107546476e-17 -3.125035805323644e-08)
(-0.4565449125663568 1.772352592742957e-16 -3.125098931372684e-08)
(-0.4565449125663521 -1.89692486818221e-17 -3.125041825753446e-08)
(-0.4565449125663563 5.129361032608242e-18 -3.125082305835603e-08)
(-0.4565449125663533 -3.383590826207628e-17 -3.125044387198013e-08)
(-0.4565449125663564 6.482683669744552e-17 -3.125069832678344e-08)
(-0.4565449125663543 3.631285159737249e-17 -3.12504456695949e-08)
(-0.4565449125663558 -5.93261636434225e-17 -3.125060266826663e-08)
(-0.4565449125663545 2.98104862987799e-17 -3.125043268266844e-08)
(-0.4565449125663567 5.313156173666734e-17 -3.125052718115977e-08)
(-0.4565449125663545 -6.295064626302053e-17 -3.125041118850671e-08)
(-0.4565449125663562 4.824988250638228e-17 -3.125046593074042e-08)
(-0.4565449125663556 3.151183495989375e-17 -3.1250385348105e-08)
(-0.4565449125663557 -7.225850131130726e-17 -3.125041505575391e-08)
(-0.4565449125663555 4.019033030368313e-17 -3.125035789546166e-08)
(-0.4565449125663565 3.66657798995708e-17 -3.125037208235406e-08)
(-0.4565449125663555 -6.69260369179719e-17 -3.125033063387225e-08)
(-0.4565449125663561 4.667564947204251e-17 -3.125033545940524e-08)
(-0.4565449125663559 4.212293755131771e-17 -3.125030477997245e-08)
(-0.4565449125663558 -7.768695689318449e-17 -3.125030424590098e-08)
(-0.4565449125663553 6.3055141198156e-18 -3.125028119548037e-08)
(-0.4565449125663562 4.43312484113751e-17 -3.125027792284951e-08)
(-0.456544912566355 -7.813131665540445e-17 -3.125026052574718e-08)
(-0.4565449125663558 8.649053076690975e-18 -3.125025625709223e-08)
(-0.4565449125663555 3.653633275940426e-17 -3.125024329757327e-08)
(-0.4565449125663552 -6.225542087002811e-17 -3.125023922023091e-08)
(-0.4565449125663549 2.06215697908721e-17 -3.125022998969194e-08)
(-0.4565449125663558 2.109702406895629e-17 -3.125022694164278e-08)
(-0.4565449125663547 -7.32674583182028e-17 -3.125022106103077e-08)
(-0.4565449125663546 2.528112657216451e-17 -3.125021967381212e-08)
(-0.4565449125663547 -9.54099222037156e-19 -3.125021699601763e-08)
(-0.4565449125663542 -8.095022528244748e-17 -3.125021777002015e-08)
(-0.4565449125663542 4.801924718734648e-17 -3.12502182990853e-08)
(-0.4565449125663544 3.407561815801193e-17 -3.125022166776474e-08)
(-0.4565449125663533 -8.951106020710829e-17 -3.125022552100465e-08)
(-0.4565449125663529 -7.724713202854498e-17 -3.125023186963907e-08)
(-0.4565449125663523 -7.830580685974463e-17 -3.125023922264863e-08)
(-0.4565449125663521 -6.518975314894783e-18 -3.125024889505609e-08)
(-0.4565449125663522 -1.133146416269384e-17 -3.125025993515858e-08)
(-0.4565449125663508 -1.293184645383094e-16 -3.125027318672249e-08)
(-0.4565449125663503 -2.347305155434809e-17 -3.125028801074759e-08)
(-0.4565449125663499 4.578271113352154e-18 -3.125030488732889e-08)
(-0.4565449125663494 -1.409822930192157e-16 -3.12503232880301e-08)
(-0.4565449125663484 -3.693434855690645e-17 -3.125034331638204e-08)
(-0.456544912566348 -2.892585638557745e-17 -3.125036429833222e-08)
(-0.4565449125663463 -1.636679138691937e-16 -3.125038575155916e-08)
(-0.4565449125663457 -2.268399799467352e-17 -3.125040638148689e-08)
(-0.4565449125663445 -7.265975206347435e-17 -3.125042452206615e-08)
(-0.4565449125663439 -1.445121289550391e-16 -3.125043725355235e-08)
(-0.4565449125663412 -1.311133635210123e-16 -3.125044037310458e-08)
(-0.4565449125663415 -6.942503249046713e-17 -3.125042757976824e-08)
(-0.4565449125663379 -2.57516663649762e-16 -3.125039046284293e-08)
(-0.4565449125663383 -2.460690559653616e-18 -3.125032562675179e-08)
(-0.4565449125663367 1.411981987203025e-16 -3.125026390553065e-08)
(-0.3886544675472727 8.860413073015636e-16 -3.514445370979867e-08)
(-0.388654467547291 5.654900684247001e-16 -3.514578041635401e-08)
(-0.3886544675472826 1.733938795509386e-16 -3.514446013048228e-08)
(-0.3886544675472933 2.926140649176995e-16 -3.514544642808766e-08)
(-0.3886544675472881 1.025438877815681e-16 -3.514457643202444e-08)
(-0.3886544675472949 2.233080617253666e-16 -3.51451979721988e-08)
(-0.3886544675472901 -1.995468705222258e-17 -3.51446325600868e-08)
(-0.3886544675472948 3.359333468011855e-17 -3.514501982568385e-08)
(-0.3886544675472917 -2.953693519309403e-17 -3.514464844119894e-08)
(-0.3886544675472952 7.559215992574162e-17 -3.514488755415944e-08)
(-0.3886544675472925 2.542563222662718e-17 -3.514464031722768e-08)
(-0.3886544675472942 -4.359183767943916e-17 -3.514478549757234e-08)
(-0.3886544675472933 3.84142873343218e-17 -3.514461836962922e-08)
(-0.3886544675472948 5.243766499301854e-17 -3.514470397624853e-08)
(-0.388654467547293 -6.567320189249132e-17 -3.514458894617524e-08)
(-0.388654467547295 6.734128217764602e-17 -3.514463692107798e-08)
(-0.3886544675472938 1.850200230836587e-17 -3.514455605847725e-08)
(-0.388654467547294 -6.316231693278605e-17 -3.514458048460162e-08)
(-0.3886544675472944 4.60290322128928e-17 -3.51445222870429e-08)
(-0.3886544675472948 3.318638556443302e-17 -3.514453223235614e-08)
(-0.3886544675472939 -6.231557419311243e-17 -3.514448931807995e-08)
(-0.388654467547295 5.193657556825574e-17 -3.514449064463783e-08)
(-0.3886544675472941 3.149425442274271e-17 -3.514445829043626e-08)
(-0.388654467547294 -8.481241284053678e-17 -3.514445480453306e-08)
(-0.3886544675472942 1.075417124859799e-17 -3.514443001397752e-08)
(-0.3886544675472943 3.103094522035272e-17 -3.514442421394747e-08)
(-0.3886544675472933 -7.380407104846925e-17 -3.51444051067674e-08)
(-0.3886544675472947 1.706972925110823e-17 -3.514439865935365e-08)
(-0.3886544675472938 1.611712046817639e-17 -3.514438408488091e-08)
(-0.3886544675472935 -6.984851115684642e-17 -3.514437813022916e-08)
(-0.3886544675472938 2.911794346874401e-17 -3.514436742805117e-08)
(-0.3886544675472939 1.342436464167978e-17 -3.514436278173567e-08)
(-0.3886544675472929 -8.686877362289283e-17 -3.514435560780482e-08)
(-0.3886544675472935 2.175089182032269e-17 -3.51443528925424e-08)
(-0.3886544675472929 -2.103713601341624e-17 -3.514434913283571e-08)
(-0.3886544675472923 -8.669022362410619e-17 -3.514434885438337e-08)
(-0.3886544675472929 5.082932265683403e-17 -3.514434854303264e-08)
(-0.3886544675472923 6.866259025137048e-18 -3.514435114919925e-08)
(-0.3886544675472909 -1.17357882828824e-16 -3.514435444086153e-08)
(-0.3886544675472912 -9.706494818982958e-17 -3.514436034709929e-08)
(-0.3886544675472904 -9.063480753400711e-17 -3.51443674641266e-08)
(-0.3886544675472907 -1.944154081810321e-17 -3.514437706500905e-08)
(-0.3886544675472901 -3.751413282842826e-17 -3.514438826830746e-08)
(-0.3886544675472891 -1.490391083240744e-16 -3.514440190984972e-08)
(-0.3886544675472889 -4.502698916406298e-17 -3.514441742375151e-08)
(-0.3886544675472881 -3.051083558094373e-17 -3.514443532277035e-08)
(-0.3886544675472872 -1.69398019874898e-16 -3.514445518033903e-08)
(-0.3886544675472869 -7.09698248922416e-17 -3.514447719776481e-08)
(-0.3886544675472857 -7.433022531102944e-17 -3.514450087331751e-08)
(-0.3886544675472844 -2.043185296710282e-16 -3.51445259314222e-08)
(-0.388654467547284 -6.766445849148636e-17 -3.514455136987284e-08)
(-0.3886544675472821 -1.1656853255763e-16 -3.514457585521956e-08)
(-0.3886544675472818 -2.118505401125114e-16 -3.514459679388813e-08)
(-0.3886544675472789 -1.951495582757456e-16 -3.514461004403889e-08)
(-0.3886544675472791 -1.267899208637525e-16 -3.514460859537143e-08)
(-0.3886544675472752 -3.28412764148164e-16 -3.514458147938147e-08)
(-0.3886544675472762 -2.692656542141105e-17 -3.514451597385614e-08)
(-0.3886544675472739 8.843706837444176e-17 -3.514441503157428e-08)
(-0.3451367420032791 1.247886023966759e-15 -3.762689183089369e-08)
(-0.3451367420032989 8.238334917204418e-16 -3.762837980585685e-08)
(-0.3451367420032908 2.181353586828249e-16 -3.762701251382351e-08)
(-0.3451367420033015 4.13429772064224e-16 -3.762798813648434e-08)
(-0.3451367420032964 1.333267169239433e-16 -3.762713636891197e-08)
(-0.3451367420033028 2.638469530635239e-16 -3.762772630443597e-08)
(-0.3451367420032983 -1.664436919291871e-17 -3.762718394043629e-08)
(-0.3451367420033032 7.036471126993868e-17 -3.762754380394133e-08)
(-0.3451367420033002 -2.095674431364449e-17 -3.762718969631015e-08)
(-0.3451367420033036 8.703251318769426e-17 -3.762740863501167e-08)
(-0.3451367420033007 6.536859655340215e-18 -3.762717264624261e-08)
(-0.3451367420033026 -1.873811686398558e-17 -3.762730357601334e-08)
(-0.345136742003302 4.886196048851394e-17 -3.76271432030034e-08)
(-0.3451367420033032 4.606571852880182e-17 -3.762721876409175e-08)
(-0.3451367420033016 -5.898215144583888e-17 -3.762710745425648e-08)
(-0.3451367420033038 8.139949246257204e-17 -3.762714823562688e-08)
(-0.3451367420033022 -3.391783410708315e-18 -3.762706912861804e-08)
(-0.3451367420033026 -4.43739038705379e-17 -3.762708826870584e-08)
(-0.345136742003303 5.458569914478518e-17 -3.762703058905138e-08)
(-0.3451367420033031 2.06978329077216e-17 -3.762703652757877e-08)
(-0.3451367420033024 -5.384224816622177e-17 -3.762699336943396e-08)
(-0.3451367420033037 5.587630077536769e-17 -3.762699155616165e-08)
(-0.3451367420033025 1.50920865260019e-17 -3.762695850701158e-08)
(-0.3451367420033028 -8.438749487407698e-17 -3.762695247993252e-08)
(-0.3451367420033027 1.545440099582177e-17 -3.762692674326641e-08)
(-0.3451367420033029 1.047322220504142e-17 -3.762691882797414e-08)
(-0.3451367420033019 -6.543294954816115e-17 -3.762689865376055e-08)
(-0.3451367420033034 2.759730922343196e-17 -3.762689040773769e-08)
(-0.3451367420033022 -1.031539111520931e-17 -3.762687472992722e-08)
(-0.3451367420033022 -7.110085996603329e-17 -3.762686722165571e-08)
(-0.3451367420033024 3.898268219338504e-17 -3.762685543739436e-08)
(-0.3451367420033025 -3.566311253036001e-18 -3.762684944126206e-08)
(-0.3451367420033015 -9.265415255207847e-17 -3.762684124387216e-08)
(-0.3451367420033022 1.623739227788404e-17 -3.762683735789296e-08)
(-0.3451367420033012 -4.794923641610399e-17 -3.762683266397752e-08)
(-0.345136742003301 -8.367889636687239e-17 -3.762683138382399e-08)
(-0.3451367420033014 4.960877585899932e-17 -3.762683025096172e-08)
(-0.3451367420033006 -3.576902546115469e-17 -3.762683202350359e-08)
(-0.3451367420032992 -1.450048727360482e-16 -3.762683463225333e-08)
(-0.3451367420032996 -1.045889943167449e-16 -3.762683988595135e-08)
(-0.345136742003299 -9.649936147085633e-17 -3.76268464909967e-08)
(-0.3451367420032992 -3.106965287255917e-17 -3.762685564949321e-08)
(-0.3451367420032983 -7.591834354845618e-17 -3.762686656186734e-08)
(-0.3451367420032976 -1.64232983372079e-16 -3.762688003354446e-08)
(-0.3451367420032977 -7.162178375845839e-17 -3.762689557231717e-08)
(-0.3451367420032962 -7.700522247912789e-17 -3.762691370192213e-08)
(-0.3451367420032954 -1.844756279312545e-16 -3.762693408926958e-08)
(-0.3451367420032955 -1.070844916707981e-16 -3.762695700679633e-08)
(-0.3451367420032939 -1.319389977112863e-16 -3.762698210852925e-08)
(-0.3451367420032928 -2.397425726010375e-16 -3.762700930138008e-08)
(-0.3451367420032925 -1.14853546446161e-16 -3.762703787269133e-08)
(-0.3451367420032903 -1.739088039438185e-16 -3.762706685821652e-08)
(-0.3451367420032901 -2.79047318355214e-16 -3.762709414581568e-08)
(-0.3451367420032873 -2.584186083975811e-16 -3.762711606338432e-08)
(-0.3451367420032873 -1.973584920703425e-16 -3.762712574695143e-08)
(-0.3451367420032833 -3.939322549965101e-16 -3.762711115406843e-08)
(-0.3451367420032841 -6.568335256159384e-17 -3.762705406051837e-08)
(-0.3451367420032814 -3.812161622000779e-18 -3.762693846882334e-08)
(-0.3126015212147137 1.62189002998159e-15 -3.946691177589166e-08)
(-0.3126015212147346 1.116740320371873e-15 -3.946848100108688e-08)
(-0.3126015212147269 2.739031070646444e-16 -3.946711052918647e-08)
(-0.3126015212147374 5.40270828819178e-16 -3.946805133568176e-08)
(-0.3126015212147328 1.611380119295112e-16 -3.946723290058629e-08)
(-0.3126015212147386 3.048261095313544e-16 -3.946778335731462e-08)
(-0.3126015212147346 -4.983104917243111e-18 -3.946726985991378e-08)
(-0.3126015212147393 1.097191970472852e-16 -3.94675996634926e-08)
(-0.3126015212147366 -8.534702605332767e-18 -3.946726554817918e-08)
(-0.3126015212147401 1.002694418062859e-16 -3.946746341890824e-08)
(-0.3126015212147372 -1.195109310077719e-17 -3.946724023694879e-08)
(-0.3126015212147394 1.09718723479117e-17 -3.946735668355426e-08)
(-0.3126015212147386 5.815554880063467e-17 -3.946720411562076e-08)
(-0.3126015212147397 3.734745675727133e-17 -3.946726967851965e-08)
(-0.3126015212147382 -4.557784795358404e-17 -3.946716287210587e-08)
(-0.3126015212147403 8.809026711521033e-17 -3.946719663661538e-08)
(-0.3126015212147384 -2.984415437040125e-17 -3.946711990600261e-08)
(-0.3126015212147392 -1.692477565419298e-17 -3.946713399685831e-08)
(-0.3126015212147395 6.152534397499947e-17 -3.946707734488743e-08)
(-0.3126015212147395 7.078705692285925e-18 -3.946707953743525e-08)
(-0.3126015212147391 -3.998985668575675e-17 -3.946703656328237e-08)
(-0.3126015212147402 5.512863415380414e-17 -3.94670318728031e-08)
(-0.3126015212147389 -4.318224559451754e-18 -3.946699849214169e-08)
(-0.3126015212147392 -7.550345031427819e-17 -3.946699017404853e-08)
(-0.3126015212147393 1.657815555059937e-17 -3.946696379955494e-08)
(-0.3126015212147393 -9.830773443134519e-18 -3.946695399759479e-08)
(-0.3126015212147384 -5.305231526574573e-17 -3.946693301497777e-08)
(-0.3126015212147399 3.228759264720337e-17 -3.946692316964973e-08)
(-0.3126015212147386 -3.673560735423393e-17 -3.946690659943503e-08)
(-0.3126015212147388 -6.807322497520546e-17 -3.946689770262654e-08)
(-0.312601521214739 4.334833641533813e-17 -3.94668849993198e-08)
(-0.3126015212147387 -2.176970036462374e-17 -3.946687777807756e-08)
(-0.3126015212147381 -9.331549522777937e-17 -3.946686867189939e-08)
(-0.3126015212147387 7.078177806147808e-18 -3.946686369465988e-08)
(-0.3126015212147376 -7.47813912553423e-17 -3.946685812858002e-08)
(-0.3126015212147376 -7.811426780294042e-17 -3.946685587516489e-08)
(-0.3126015212147378 3.907720292750723e-17 -3.946685392677846e-08)
(-0.3126015212147367 -8.314440901245507e-17 -3.946685483724753e-08)
(-0.3126015212147357 -1.640660311181063e-16 -3.946685670638002e-08)
(-0.3126015212147361 -1.060677140016347e-16 -3.946686121378913e-08)
(-0.3126015212147356 -1.056305007221023e-16 -3.946686717894867e-08)
(-0.3126015212147359 -4.638622292746812e-17 -3.946687572587196e-08)
(-0.3126015212147346 -1.151871586947963e-16 -3.946688613605913e-08)
(-0.312601521214734 -1.806566975125858e-16 -3.946689917710443e-08)
(-0.3126015212147342 -1.021324487013771e-16 -3.946691442635183e-08)
(-0.3126015212147325 -1.284390238294734e-16 -3.946693240839286e-08)
(-0.3126015212147319 -2.000489305173388e-16 -3.946695287397246e-08)
(-0.3126015212147319 -1.41530960742481e-16 -3.946697615201343e-08)
(-0.3126015212147302 -1.910735812004797e-16 -3.946700203502777e-08)
(-0.3126015212147292 -2.690557568991782e-16 -3.946703059185236e-08)
(-0.3126015212147292 -1.745763732644974e-16 -3.946706138265231e-08)
(-0.3126015212147266 -2.347915419573487e-16 -3.946709381141743e-08)
(-0.3126015212147263 -3.433349932038047e-16 -3.94671263031453e-08)
(-0.3126015212147236 -3.26439866961213e-16 -3.946715584851224e-08)
(-0.3126015212147234 -2.779403591592704e-16 -3.946717622534389e-08)
(-0.3126015212147195 -4.662705808477727e-16 -3.946717529209416e-08)
(-0.3126015212147201 -1.121029191658079e-16 -3.946713151018619e-08)
(-0.3126015212147167 -1.261422444532576e-16 -3.946701521325038e-08)
(-0.2860628401015619 2.006811603034217e-15 -4.095025161916968e-08)
(-0.2860628401015832 1.438531496326318e-15 -4.095185018621759e-08)
(-0.2860628401015762 3.401302924936055e-16 -4.095050287754497e-08)
(-0.2860628401015866 6.723663605179143e-16 -4.095139541924414e-08)
(-0.286062840101582 1.857193299125844e-16 -4.095061778289552e-08)
(-0.2860628401015877 3.461012657128036e-16 -4.095112541210021e-08)
(-0.2860628401015841 1.403121808855205e-17 -4.09506429484082e-08)
(-0.2860628401015886 1.524854114744811e-16 -4.095094210074361e-08)
(-0.2860628401015858 6.650304493931795e-18 -4.095062869089146e-08)
(-0.2860628401015893 1.166580593807661e-16 -4.095080562057205e-08)
(-0.2860628401015866 -2.588988333821829e-17 -4.095059556872123e-08)
(-0.2860628401015888 4.21318931933245e-17 -4.095069781707634e-08)
(-0.2860628401015881 6.52543458071294e-17 -4.095055327869375e-08)
(-0.2860628401015891 2.940248160415277e-17 -4.095060913752496e-08)
(-0.2860628401015878 -3.10152222753033e-17 -4.095050703362057e-08)
(-0.2860628401015899 9.087661124673313e-17 -4.095053405089028e-08)
(-0.2860628401015878 -5.404121807719439e-17 -4.095045988682671e-08)
(-0.2860628401015889 1.30806535555478e-17 -4.095046916862627e-08)
(-0.286062840101589 6.645721455975826e-17 -4.095041372528002e-08)
(-0.2860628401015889 -4.618710333870246e-18 -4.095041238439796e-08)
(-0.2860628401015887 -2.528170569205987e-17 -4.095036976390374e-08)
(-0.2860628401015897 4.824709713343697e-17 -4.095036238349523e-08)
(-0.2860628401015883 -2.427064403243085e-17 -4.095032882711334e-08)
(-0.2860628401015888 -6.14103049466657e-17 -4.095031838141587e-08)
(-0.2860628401015888 1.619809445251318e-17 -4.095029150883213e-08)
(-0.2860628401015887 -3.082094787765479e-17 -4.095027996069479e-08)
(-0.286062840101588 -3.952171080169085e-17 -4.095025829021883e-08)
(-0.2860628401015893 3.613145691245255e-17 -4.095024696286527e-08)
(-0.286062840101588 -6.068904359934617e-17 -4.095022960046885e-08)
(-0.2860628401015883 -6.014633214928796e-17 -4.095021940816576e-08)
(-0.2860628401015886 4.081220576550706e-17 -4.095020586298112e-08)
(-0.2860628401015882 -4.336617729260409e-17 -4.095019748454618e-08)
(-0.2860628401015876 -9.146718553245304e-17 -4.095018752165798e-08)
(-0.2860628401015882 -2.138018361413932e-18 -4.095018149361515e-08)
(-0.2860628401015871 -9.845619294210428e-17 -4.095017507973678e-08)
(-0.2860628401015871 -7.599898643567784e-17 -4.095017186310546e-08)
(-0.2860628401015873 2.231497316835232e-17 -4.0950169092632e-08)
(-0.286062840101586 -1.265121412685708e-16 -4.095016911824878e-08)
(-0.2860628401015853 -1.812125367022795e-16 -4.095017020602421e-08)
(-0.2860628401015855 -1.085683537182485e-16 -4.095017390635893e-08)
(-0.2860628401015851 -1.105622181307127e-16 -4.095017914905443e-08)
(-0.2860628401015853 -6.712672521928894e-17 -4.095018697933107e-08)
(-0.2860628401015841 -1.57817985411992e-16 -4.095019675656155e-08)
(-0.2860628401015836 -1.913443228669068e-16 -4.095020920698719e-08)
(-0.2860628401015836 -1.371400590192098e-16 -4.095022397313133e-08)
(-0.2860628401015819 -1.80135210069556e-16 -4.0950241575262e-08)
(-0.2860628401015815 -2.145740685287173e-16 -4.095026183911584e-08)
(-0.2860628401015812 -1.827434373129975e-16 -4.095028514016238e-08)
(-0.2860628401015796 -2.477499310520302e-16 -4.095031139505825e-08)
(-0.2860628401015788 -2.93580527286982e-16 -4.095034081725728e-08)
(-0.2860628401015785 -2.397258501183238e-16 -4.095037322207153e-08)
(-0.286062840101576 -3.001750604203975e-16 -4.095040837108155e-08)
(-0.2860628401015757 -4.09312546016088e-16 -4.095044524537965e-08)
(-0.286062840101573 -3.96652147834324e-16 -4.095048160628668e-08)
(-0.2860628401015726 -3.646464835214484e-16 -4.095051219955422e-08)
(-0.2860628401015688 -5.419888219045089e-16 -4.095052553239196e-08)
(-0.2860628401015692 -1.768424726981098e-16 -4.095049839480015e-08)
(-0.2860628401015655 -2.748529500482576e-16 -4.095039084817264e-08)
(-0.2630851528619355 2.398935600127664e-15 -4.221575384701295e-08)
(-0.263085152861957 1.791098550477587e-15 -4.221734348625593e-08)
(-0.2630851528619508 4.197357420585562e-16 -4.221603735846358e-08)
(-0.2630851528619609 8.092005667629658e-16 -4.221687284544545e-08)
(-0.2630851528619567 2.138036269545727e-16 -4.221614031626245e-08)
(-0.2630851528619622 3.928062897544223e-16 -4.221660340292068e-08)
(-0.2630851528619588 3.447318962314743e-17 -4.221615283169241e-08)
(-0.2630851528619632 1.961868755148042e-16 -4.221642132762067e-08)
(-0.2630851528619607 2.208599727830995e-17 -4.22161286890473e-08)
(-0.2630851528619639 1.343320307195918e-16 -4.221628501588265e-08)
(-0.2630851528619615 -3.399885875777797e-17 -4.221608803290213e-08)
(-0.2630851528619637 7.471739025004793e-17 -4.221617642995219e-08)
(-0.2630851528619629 6.943592804162358e-17 -4.221603988264603e-08)
(-0.2630851528619638 2.480619569305346e-17 -4.221608632770864e-08)
(-0.2630851528619627 -1.255537468984533e-17 -4.221598892998056e-08)
(-0.2630851528619646 8.918525694056624e-17 -4.221600943253848e-08)
(-0.2630851528619627 -7.391787036727908e-17 -4.221593787049769e-08)
(-0.2630851528619638 4.212020079940812e-17 -4.221594253056004e-08)
(-0.2630851528619638 6.761783425605389e-17 -4.221588835061777e-08)
(-0.2630851528619637 -1.199565845503374e-17 -4.221588362803303e-08)
(-0.2630851528619637 -7.089938208430865e-18 -4.22158414254105e-08)
(-0.2630851528619645 3.797974899290753e-17 -4.221583147969544e-08)
(-0.2630851528619631 -4.525540027193739e-17 -4.22157978130651e-08)
(-0.2630851528619637 -4.859462124617209e-17 -4.221578534259198e-08)
(-0.2630851528619636 1.190278329552888e-17 -4.221575803386803e-08)
(-0.2630851528619635 -4.460136857851066e-17 -4.221574482292081e-08)
(-0.2630851528619629 -2.409231260158795e-17 -4.221572251930614e-08)