/*--------------------------------*- C++ -*----------------------------------*\
| =========                 |                                                 |
| \\      /  F ield         | OpenFOAM: The Open Source CFD Toolbox           |
|  \\    /   O peration     | Version:  v1812                                 |
|   \\  /    A nd           | Web:      www.OpenFOAM.com                      |
|    \\/     M anipulation  |                                                 |
\*---------------------------------------------------------------------------*/
FoamFile
{
    version     2.0;
    format      ascii;
    class       volVectorField;
    location    "20000";
    object      wallShearStress;
}
// * * * * * * * * * * * * * * * * * * * * * * * * * * * * * * * * * * * * * //

dimensions      [0 2 -2 0 0 0 0];


internalField   uniform (0 0 0);

boundaryField
{
    inlet
    {
        type            cyclic;
    }
    outlet
    {
        type            cyclic;
    }
    bottomWall
    {
        type            calculated;
        value           nonuniform List<vector> 
58
(
(-0.003905419203542856 -6.292162744996987e-19 2.243934934526821e-10)
(-0.003905419203542741 -1.529516554012362e-18 2.243957822440677e-10)
(-0.003905419203542796 -7.501897471807926e-19 2.243887182844362e-10)
(-0.003905419203542695 -3.359594017675177e-19 2.243958423010406e-10)
(-0.003905419203542772 -1.58773921720984e-19 2.243885564027108e-10)
(-0.003905419203542672 -5.739571544974391e-19 2.243946503044115e-10)
(-0.003905419203542727 -5.666654363871818e-20 2.243890046764879e-10)
(-0.003905419203542686 1.218489533507532e-19 2.243933729127191e-10)
(-0.003905419203542717 2.898490160137235e-20 2.24389405906529e-10)
(-0.003905419203542696 -1.835823426731004e-19 2.24392317283077e-10)
(-0.003905419203542702 -3.7075776923988e-19 2.243896295262031e-10)
(-0.003905419203542692 3.756621735859976e-19 2.243915002571347e-10)
(-0.003905419203542713 -1.304988194655328e-19 2.243896986072878e-10)
(-0.003905419203542679 -2.704425108212287e-19 2.243908718716715e-10)
(-0.003905419203542697 4.868746817273308e-19 2.243896621651181e-10)
(-0.003905419203542699 -3.681082902799968e-19 2.243903813309831e-10)
(-0.003905419203542688 -1.063748134054392e-19 2.243895621389426e-10)
(-0.003905419203542688 4.508424691929068e-19 2.243899905684201e-10)
(-0.003905419203542708 -3.399047105656134e-19 2.243894288004826e-10)
(-0.003905419203542674 8.807465991938403e-20 2.243896737668787e-10)
(-0.003905419203542702 2.768415093340229e-19 2.243892828941891e-10)
(-0.003905419203542702 -2.977206694030776e-19 2.243894142813865e-10)
(-0.003905419203542679 -1.920201537233232e-19 2.243891385363696e-10)
(-0.003905419203542689 2.8666963311907e-19 2.243892018384453e-10)
(-0.003905419203542708 5.775266962103469e-20 2.243890055744005e-10)
(-0.003905419203542685 -3.282761302550152e-19 2.243890305083347e-10)
(-0.003905419203542693 3.133188793853129e-19 2.243888911669405e-10)
(-0.0039054192035427 -7.808397632111088e-21 2.243888973149132e-10)
(-0.003905419203542686 -4.075001988316322e-19 2.243888008517171e-10)
(-0.003905419203542692 4.671700219185294e-19 2.243888014297092e-10)
(-0.003905419203542707 -5.311037356589357e-20 2.243887393630775e-10)
(-0.003905419203542688 -4.016150519110168e-19 2.24388743427063e-10)
(-0.003905419203542696 2.707647445143216e-19 2.243887109757443e-10)
(-0.003905419203542707 -1.713147106258671e-19 2.243887251149574e-10)
(-0.003905419203542685 1.092119907625413e-19 2.243887198907691e-10)
(-0.003905419203542707 3.635085621432241e-19 2.243887490205853e-10)
(-0.003905419203542708 -5.411695096323677e-19 2.243887702530349e-10)
(-0.003905419203542696 -1.680904505245673e-19 2.243888183208022e-10)
(-0.0039054192035427 4.651762840812166e-19 2.243888661423943e-10)
(-0.003905419203542719 5.264365674591256e-19 2.243889361901704e-10)
(-0.003905419203542722 3.596292207209527e-19 2.243890110205622e-10)
(-0.003905419203542737 -1.647301036543906e-19 2.243891049959321e-10)
(-0.003905419203542723 6.469664000706703e-20 2.243892065315212e-10)
(-0.003905419203542738 4.537905569146392e-19 2.243893242288178e-10)
(-0.003905419203542751 -2.123607327325696e-20 2.243894495236417e-10)
(-0.003905419203542738 -2.082375112515355e-19 2.243895861419291e-10)
(-0.003905419203542748 5.16331522435719e-19 2.243897257427322e-10)
(-0.003905419203542774 1.240998013554109e-19 2.243898664852905e-10)
(-0.003905419203542749 1.053724234008611e-19 2.243899968264299e-10)
(-0.003905419203542785 2.842937202741937e-19 2.243901068674533e-10)
(-0.003905419203542788 7.283975347006191e-21 2.243901776240042e-10)
(-0.00390541920354279 3.377682515161529e-19 2.243901887721779e-10)
(-0.003905419203542803 -3.208524771210176e-19 2.243901142532146e-10)
(-0.00390541920354283 7.135700133784747e-19 2.243899336734914e-10)
(-0.003905419203542816 6.159466873304343e-19 2.243896136347409e-10)
(-0.003905419203542858 1.273606697940186e-18 2.243891382399155e-10)
(-0.003905419203542877 -1.215078417804454e-18 2.243890020579015e-10)
(-0.003905419203542861 -8.161110137249358e-19 2.243900458332502e-10)
)
;
    }
    topWall
    {
        type            calculated;
        value           nonuniform List<vector> 
58
(
(0.001585419207745216 -1.654073134707955e-18 1.718459236913477e-10)
(0.001585419207745192 -3.37568306229891e-18 1.718456143786446e-10)
(0.001585419207745147 1.492635164015603e-18 1.718456834408563e-10)
(0.001585419207745157 2.316674586405529e-18 1.718456918388164e-10)
(0.001585419207745297 -9.540492654478341e-19 1.718460343062722e-10)
(0.00158541920774517 -6.813424061477805e-19 1.718461096707671e-10)
(0.001585419207745104 1.143243180384698e-18 1.718464652876171e-10)
(0.001585419207745239 -1.195405275926778e-18 1.718464536689276e-10)
(0.001585419207745145 -7.588560122105733e-19 1.718467682083329e-10)
(0.001585419207745169 2.97965847314111e-19 1.718466552017148e-10)
(0.001585419207745297 -1.218462520334293e-18 1.718469479936952e-10)
(0.001585419207745096 -1.726301572429452e-18 1.718467481077043e-10)
(0.001585419207745134 -7.176600389799973e-19 1.718470472283486e-10)
(0.001585419207745153 2.992826782374156e-18 1.718467715133905e-10)
(0.001585419207745208 5.289565754219475e-19 1.718471005231474e-10)
(0.001585419207745076 -6.494631201090146e-19 1.718467521850833e-10)
(0.001585419207745241 2.169152143196896e-18 1.718471304322673e-10)
(0.001585419207745205 -1.246881888783508e-18 1.718467061524011e-10)
(0.001585419207745145 8.290381563267464e-19 1.71847150525475e-10)
(0.001585419207745203 1.211703343676012e-18 1.71846641819487e-10)
(0.001585419207745186 -4.371286957534158e-19 1.718471688672978e-10)
(0.001585419207745237 -1.346959415741189e-18 1.718465632124604e-10)
(0.001585419207745238 -1.285334227712614e-18 1.718471902965276e-10)
(0.001585419207745089 -4.555133777939419e-19 1.718464715952064e-10)
(0.001585419207745127 2.191556852166044e-18 1.718472179172256e-10)
(0.001585419207745078 3.160509830948773e-18 1.71846366747487e-10)
(0.001585419207745377 -2.358848170122663e-18 1.718472538150789e-10)
(0.001585419207745062 7.428639260420279e-19 1.718462474846435e-10)
(0.001585419207745136 8.58967952742215e-19 1.718472995556181e-10)
(0.001585419207745154 -2.802028675453016e-19 1.718461121961636e-10)
(0.001585419207745314 -1.005440698346107e-18 1.71847356362819e-10)
(0.00158541920774524 -3.088802435530953e-18 1.718459592394313e-10)
(0.001585419207745106 1.968083074321314e-18 1.718474251275658e-10)
(0.001585419207745044 4.224208812093652e-18 1.718457872580124e-10)
(0.001585419207745298 -1.828439940941015e-18 1.718475061599651e-10)
(0.001585419207745129 -2.076350179100645e-19 1.718455956317568e-10)
(0.001585419207745202 2.029270340615421e-18 1.718475988030513e-10)
(0.001585419207745297 -2.445823740819379e-18 1.718453851037343e-10)
(0.001585419207745249 -1.139466926252556e-18 1.718477007661332e-10)
(0.001585419207745085 1.01764291580311e-18 1.718451586048661e-10)
(0.001585419207745251 3.400093912651714e-19 1.718478071032575e-10)
(0.001585419207745094 5.541046096491804e-19 1.71844922544333e-10)
(0.001585419207745284 -7.484572091583942e-19 1.718479089684399e-10)
(0.001585419207745212 -1.880446078898649e-18 1.718446882798206e-10)
(0.00158541920774523 1.858206197429361e-18 1.718479915055152e-10)
(0.001585419207745174 -1.116071970307855e-18 1.718444742510723e-10)
(0.001585419207745224 -1.144238501444864e-18 1.718480316534478e-10)
(0.001585419207745228 -1.609923091987948e-18 1.718443089291602e-10)
(0.001585419207745256 1.19313684899977e-18 1.718479949238967e-10)
(0.001585419207745193 7.638610500737835e-19 1.718442337238359e-10)
(0.00158541920774526 -1.178253278493698e-18 1.718478315081605e-10)
(0.001585419207745045 2.601986794630726e-18 1.718443087152831e-10)
(0.001585419207745342 -8.003530815813103e-19 1.718474744607031e-10)
(0.001585419207745073 -1.086288122111911e-18 1.718446005661932e-10)
(0.001585419207745305 2.574717035918379e-18 1.718470873160823e-10)
(0.001585419207745169 -4.198374024069002e-18 1.718457215922909e-10)
(0.00158541920774522 7.317073629749536e-19 1.718454613186964e-10)
(0.001585419207745053 4.039416575370907e-18 1.718458895590524e-10)
)
;
    }
    left
    {
        type            cyclic;
    }
    right
    {
        type            cyclic;
    }
}


// ************************************************************************* //
