/*--------------------------------*- C++ -*----------------------------------*\
| =========                 |                                                 |
| \\      /  F ield         | OpenFOAM: The Open Source CFD Toolbox           |
|  \\    /   O peration     | Version:  v1812                                 |
|   \\  /    A nd           | Web:      www.OpenFOAM.com                      |
|    \\/     M anipulation  |                                                 |
\*---------------------------------------------------------------------------*/
FoamFile
{
    version     2.0;
    format      ascii;
    class       volScalarField;
    location    "3000";
    object      nut;
}
// * * * * * * * * * * * * * * * * * * * * * * * * * * * * * * * * * * * * * //

dimensions      [0 2 -1 0 0 0 0];


internalField   nonuniform List<scalar> 
1892
(
4.088774123684745e-06
4.088756511884011e-06
4.088418944877361e-06
4.024575852837338e-06
4.023450041789113e-06
4.086705263776944e-06
4.024552944966608e-06
4.023449799334975e-06
4.08762342982461e-06
4.088760782820562e-06
4.024592944811769e-06
4.023420031743211e-06
4.02360547092515e-06
4.023438888661129e-06
4.023661832882218e-06
4.02290079706422e-06
4.023436564542046e-06
4.023697706699014e-06
4.023252322367749e-06
4.023029952228545e-06
4.023313086849002e-06
4.023502686199706e-06
4.02324651002666e-06
4.023862184678095e-06
4.023597424509905e-06
4.023471601382169e-06
4.0236875023592e-06
4.087635344062995e-06
4.088759755360971e-06
4.025455763175545e-06
4.087663095434723e-06
4.088745612589326e-06
4.08839857712774e-06
4.088823674493251e-06
4.088643344852671e-06
4.088823080669887e-06
4.088642090753195e-06
4.024582623260247e-06
4.023450130963158e-06
4.087623683722183e-06
4.088744977507526e-06
4.088419425322381e-06
4.0245759176723e-06
4.023449458833058e-06
4.027203354160708e-06
4.046533878006264e-06
4.0389172245519e-06
3.296387545733266e-06
3.285757182472434e-06
4.001460614031069e-06
3.295897792494858e-06
3.285760278794976e-06
4.015136580926923e-06
4.046001539414099e-06
3.29661078005929e-06
3.285534775539215e-06
3.287770178619463e-06
3.287517558865106e-06
3.287992344342701e-06
3.280906037943938e-06
3.285500708307015e-06
3.288863860180322e-06
3.287962924369081e-06
3.284767701925619e-06
3.284453728241982e-06
3.283749618977616e-06
3.282524217225267e-06
3.287533611418003e-06
3.289686002779797e-06
3.285359809892977e-06
3.286934551135752e-06
4.015500164657299e-06
4.045985043642573e-06
3.301706413341818e-06
4.016436577888876e-06
4.046274598917621e-06
4.038968045961246e-06
4.047411160748101e-06
4.042276582409017e-06
4.045216183498319e-06
4.042460606697131e-06
3.296416492161943e-06
3.285760773718473e-06
4.01516175458353e-06
4.046250316119381e-06
4.038918548339943e-06
3.296389574843768e-06
3.285763550274516e-06
2.192757782871744e-05
2.197387348720685e-05
2.195626013202839e-05
2.059133599572893e-05
2.048574658871321e-05
2.1863949001287e-05
2.058634556275363e-05
2.048565860629295e-05
2.189681996506486e-05
2.197221446855808e-05
2.059486427565288e-05
2.048243821503182e-05
2.050339390867738e-05
2.05005799883895e-05
2.050163079484575e-05
2.045133116552063e-05
2.045886296585866e-05
2.048450209086631e-05
2.048010489399949e-05
2.047601399278985e-05
2.045894727964397e-05
2.045853281817546e-05
2.04967118231784e-05
2.050707760612346e-05
2.049735213665784e-05
2.047170299811822e-05
2.04929719134563e-05
2.189811751344305e-05
2.197230658839023e-05
2.064021884930865e-05
2.190351785223676e-05
2.19730570676466e-05
2.195566405663045e-05
2.198798094839248e-05
2.196821218111209e-05
2.196555389616155e-05
2.196513600886849e-05
2.059220797544545e-05
2.048589229871555e-05
2.18969754400383e-05
2.19728931599697e-05
2.195615520073173e-05
2.059145514201366e-05
2.048583113565832e-05
7.768840513016541e-05
7.77525210058931e-05
7.772664465996486e-05
7.650138442757215e-05
7.637282595603631e-05
7.759069242943376e-05
7.649371857678033e-05
7.637252831420816e-05
7.76386090686813e-05
7.774930398798905e-05
7.650725891241914e-05
7.63696623050146e-05
7.639547897705201e-05
7.639460324534886e-05
7.63747844813184e-05
7.63002405179637e-05
7.635051502634498e-05
7.63846354244245e-05
7.637678953230801e-05
7.638160495783923e-05
7.63437844084965e-05
7.630631890734394e-05
7.638589213384092e-05
7.638126756572366e-05
7.637191239065681e-05
7.63325257461577e-05
7.636969194703752e-05
7.763978654091777e-05
7.774977992150535e-05
7.656498319141247e-05
7.765128787405683e-05
7.775098988269039e-05
7.772502341642566e-05
7.77494032738851e-05
7.77234146651489e-05
7.771682612626101e-05
7.772791093181222e-05
7.650198938864589e-05
7.637332079413665e-05
7.763905677523193e-05
7.775030494055017e-05
7.772628932998748e-05
7.650165937737463e-05
7.637284186676852e-05
0.0002190851951200223
0.0002191355251167555
0.0002191150330050365
0.0002184105162419464
0.0002183115446992867
0.0002190007033224386
0.0002184033952137798
0.0002183109318315211
0.0002190398921723622
0.000219132962896415
0.0002184178759910918
0.0002183080722283971
0.000218327499158819
0.0002183266853982842
0.0002183123384301027
0.0002182469408363246
0.0002183231801587738
0.0002183414564384545
0.0002182983632074772
0.0002183087849873307
0.0002183007792804864
0.0002182235785330505
0.000218315960658612
0.0002183378257785675
0.0002183178976265222
0.0002182527707540591
0.0002182942633146435
0.0002190377760419196
0.0002191341891820057
0.0002184632454328609
0.0002190535977988317
0.0002191346920201248
0.0002191104665872048
0.0002191139597394496
0.0002190919962448444
0.0002190728423249833
0.0002190978415922098
0.0002184083372004547
0.0002183124527721737
0.0002190404722654606
0.0002191327597159787
0.0002191142954044862
0.0002184109014868043
0.0002183113683029643
0.0005788235956814213
0.0005788509664324563
0.0005788421847220441
0.0005785946936101913
0.000578540620875847
0.0005787804377702664
0.0005785910638617849
0.0005785396471860724
0.0005787987823912786
0.000578850506627359
0.000578605110989985
0.0005785318442274273
0.0005785448031375915
0.0005785302522038908
0.0005785452815835287
0.0005785308420139377
0.0005785792729816754
0.0005785757070735376
0.0005785399293203185
0.0005785084629158835
0.0005785276786864572
0.0005784753896196731
0.0005785388509227865
0.0005785644140897548
0.000578526794207719
0.000578491761998082
0.0005785266697903605
0.0005787896697578438
0.0005788521850739487
0.000578623129485099
0.0005788111923558181
0.0005788517599439725
0.0005788276811943699
0.0005788172288877008
0.000578813168527524
0.0005787963412705276
0.0005788109260296017
0.0005785842961847801
0.0005785395230575199
0.0005787974327720466
0.0005788482159749248
0.0005788406829813549
0.0005785948656603075
0.0005785402726091592
0.001306140939976319
0.001306147260295113
0.001306146609404455
0.001306114533790655
0.00130610247481529
0.001306133504675524
0.001306116035731382
0.001306101229198273
0.001306137607646501
0.001306147776229458
0.001306124378580676
0.00130609543174877
0.001306094794337798
0.001306082424383907
0.001306101033125604
0.001306110769679462
0.001306120484312458
0.001306116997698895
0.001306110765364797
0.001306091210333631
0.00130609850764802
0.001306075665327042
0.001306097501101281
0.001306112253773066
0.001306076504356762
0.001306075627631083
0.001306092875326866
0.001306126931972533
0.001306149088365364
0.001306121787721818
0.001306144492119157
0.001306148810966506
0.001306141131785507
0.00130612573334698
0.001306128138175855
0.001306123034055242
0.001306119773549949
0.001306099562088815
0.001306095857700748
0.001306130897036877
0.001306143567418753
0.001306143883939422
0.001306113236210625
0.001306101656097694
0.00226161342802226
0.002261612875295835
0.002261613837578455
0.00226161355406533
0.002261614687267283
0.002261613081092282
0.00226161568234453
0.002261613202337422
0.002261614935088218
0.002261612929583354
0.002261618830948259
0.002261612022280296
0.002261608729559429
0.002261605641764793
0.002261613038457976
0.002261622713072273
0.002261626101043692
0.00226161929180194
0.002261620859934187
0.002261613634559586
0.002261617169855451
0.002261613248103647
0.002261615272299562
0.002261619248575101
0.00226161214531083
0.002261609745165951
0.002261610740233807
0.002261612613255381
0.002261616065187942
0.002261617238463067
0.002261618948907878
0.002261615133502762
0.002261613002463417
0.002261605167390626
0.002261603959437329
0.002261604198346572
0.002261597873686094
0.002261602819495796
0.002261606277673715
0.00226160596798528
0.00226160774763584
0.002261608072694994
0.002261610663058701
0.002261613511972425
0.003171095320564526
0.003171095013719852
0.003171095449439542
0.003171095231619622
0.003171095623690311
0.003171094338231908
0.003171095339271204
0.003171094113053186
0.003171095392137407
0.00317109422887647
0.003171096289170328
0.003171095810810611
0.003171093753778889
0.003171092811452912
0.003171095424864273
0.003171099915890355
0.003171101273390594
0.003171099307381498
0.00317110019653785
0.003171097949027778
0.003171100129685934
0.003171100659748757
0.003171100483739521
0.003171101317825896
0.003171098879100424
0.003171098734137215
0.003171100665193336
0.00317110082594036
0.003171101160025053
0.003171100930456094
0.003171100668723016
0.003171098965593475
0.003171097979215165
0.003171094904797877
0.00317109225090947
0.0031710911098121
0.00317108920851021
0.003171089600158264
0.00317108984141406
0.003171088890988291
0.003171089178727803
0.003171090625145528
0.003171092431876629
0.003171094618445254
0.003908928070267172
0.003908928089456344
0.003908928159593059
0.003908927525064006
0.003908926901205628
0.003908926177350303
0.00390892647682816
0.003908925573499206
0.00390892615505032
0.003908926438216133
0.003908926783887831
0.003908927372750309
0.003908926993485689
0.003908926717479441
0.003908927819851294
0.003908929384612826
0.00390893012961558
0.003908929878968387
0.003908931110577728
0.00390893062783502
0.00390893221660438
0.003908934125229131
0.003908934011717765
0.003908934034768695
0.003908932720315424
0.003908932465002336
0.003908934687698548
0.003908936097531345
0.003908936002771136
0.003908935156751447
0.003908934154641776
0.003908932631543981
0.003908931962888429
0.003908930772768612
0.003908928763127157
0.003908926240983048
0.003908925415802213
0.00390892458359568
0.003908923829442504
0.003908923409318222
0.003908923238683052
0.003908924323994563
0.00390892598234492
0.003908926999776657
0.004474690178081002
0.004474690255771517
0.004474690062235555
0.004474689464882457
0.004474688429263717
0.004474687932258542
0.004474687923306728
0.004474687246042622
0.004474687528643218
0.004474688099525014
0.004474688195052575
0.004474688791767604
0.004474689075404541
0.004474689087570947
0.004474689772322126
0.004474690318648544
0.004474690835589011
0.004474691060767152
0.004474692382150507
0.004474692539874656
0.004474693861734954
0.004474696156884039
0.00447469631574572
0.004474696254289878
0.004474695523664881
0.004474695186463745
0.004474696619913105
0.004474698305341914
0.0044746983528662
0.004474697822931329
0.004474696767883249
0.00447469550107339
0.00447469477854936
0.004474694178605083
0.004474692768890676
0.004474689734997043
0.004474688683694966
0.004474687904568941
0.004474687120835492
0.004474686860568688
0.004474686762840103
0.004474687421067217
0.004474688849875278
0.004474689399135132
0.004899809056471706
0.004899809125778547
0.004899808782827186
0.004899808234510454
0.004899807158248186
0.004899806778770222
0.004899806623180483
0.004899806182619791
0.004899806316518767
0.004899806870979519
0.004899807020274083
0.004899807463887402
0.004899807981232672
0.004899808098099978
0.004899808653025695
0.004899808932054234
0.004899809340561473
0.004899809757358095
0.004899810957847364
0.004899811331501259
0.004899812482187935
0.004899814671485369
0.004899815050563527
0.004899815058318337
0.004899814698343804
0.004899814423017141
0.004899815162666775
0.004899816512007107
0.004899816619484628
0.004899816394791533
0.004899815636326907
0.00489981468639837
0.004899814054456319
0.00489981359294475
0.004899812475283998
0.004899809656239279
0.004899808270255708
0.004899807545644261
0.004899806876327152
0.004899806721937812
0.004899806674808769
0.004899807155646058
0.004899808271871484
0.004899808629326236
0.005211886771231269
0.005211886801326666
0.005211886410893854
0.005211885919542194
0.005211884967270391
0.005211884666165073
0.005211884493366436
0.005211884211227943
0.00521188428790398
0.005211884786171746
0.005211884982842118
0.005211885369902377
0.005211885923077771
0.005211886089138967
0.005211886598718566
0.005211886827555564
0.005211887206303406
0.005211887743226603
0.005211888732086612
0.005211889192863695
0.005211890172995755
0.005211892006558644
0.005211892514405856
0.005211892593777649
0.005211892486531964
0.005211892284056202
0.005211892621100406
0.0052118934722581
0.005211893536712024
0.005211893447936944
0.005211892985888577
0.005211892309661777
0.005211891828668973
0.005211891412040382
0.005211890451022919
0.005211888098860557
0.005211886623785591
0.005211885888442172
0.005211885296605906
0.005211885182881727
0.00521188517593323
0.005211885540928468
0.005211886337593442
0.005211886539061316
0.005431105106666491
0.005431105078887805
0.005431104706136847
0.005431104288781813
0.005431103530214866
0.005431103303622981
0.005431103146931483
0.005431103011522231
0.005431103067132957
0.005431103509635349
0.00543110373649838
0.005431104132790865
0.005431104664142145
0.005431104868323132
0.00543110537024249
0.005431105601631186
0.00543110600554678
0.005431106565023467
0.005431107374419833
0.005431107858600866
0.005431108659886826
0.005431110065579976
0.005431110603070726
0.005431110737604146
0.005431110750035604
0.005431110624493431
0.005431110744438152
0.005431111158714753
0.005431111134325188
0.005431111064257908
0.005431110782373848
0.005431110296072877
0.005431109944928031
0.005431109555842478
0.005431108703920975
0.005431106880653676
0.005431105513440629
0.00543110477987114
0.005431104237726775
0.005431104130865961
0.005431104126692366
0.005431104379392636
0.005431104898729844
0.005431104991654109
0.005572699631917538
0.005572699565818014
0.00557269925799206
0.005572698928728291
0.005572698373890625
0.005572698232495851
0.005572698120262296
0.005572698056693821
0.00557269814240701
0.005572698544097668
0.005572698805006529
0.005572699235530052
0.005572699731931842
0.005572699986777264
0.005572700493355684
0.005572700743225741
0.005572701185070558
0.005572701710303513
0.005572702378545344
0.005572702849163706
0.005572703469542549
0.005572704474966603
0.005572704955450192
0.00557270510220835
0.005572705165669729
0.00557270507540985
0.005572705088838246
0.005572705161611456
0.005572705060669964
0.005572704953548282
0.005572704758430605
0.005572704381670795
0.005572704115709048
0.005572703733363451
0.005572702993454523
0.005572701640180074
0.005572700494706118
0.005572699820485421
0.005572699309868056
0.005572699197680418
0.005572699178354758
0.005572699323663926
0.005572699614443753
0.005572699628610511
0.005649017936659156
0.005649017828765239
0.005649017597655637
0.005649017356627894
0.005649016987833682
0.005649016924655837
0.005649016864562474
0.005649016856749131
0.005649016991266107
0.005649017353212961
0.005649017656676931
0.005649018116839
0.005649018579821343
0.005649018908271623
0.005649019395657822
0.005649019690890043
0.005649020158388848
0.005649020632723246
0.005649021191154664
0.005649021611176191
0.005649022089197248
0.005649022739989412
0.005649023111864185
0.005649023244610225
0.005649023303757848
0.005649023207583262
0.005649023145207947
0.005649023006548477
0.005649022827692147
0.005649022668395597
0.005649022517558648
0.005649022194423834
0.005649021972657538
0.005649021576506943
0.0056490209539878
0.00564901998082618
0.005649019082197294
0.005649018511620721
0.005649018065709448
0.005649017906704527
0.005649017883711274
0.005649017952205303
0.005649018069088452
0.005649018013879351
0.005670868101383089
0.005670867957895009
0.005670867799259105
0.005670867642760138
0.00567086742190709
0.005670867431749579
0.005670867413310605
0.005670867465263082
0.00567086764224082
0.005670867965323928
0.005670868309046263
0.005670868785053238
0.005670869226472965
0.005670869625424548
0.005670870094251645
0.005670870438586212
0.005670870919025752
0.005670871342295683
0.005670871815564421
0.005670872165164248
0.005670872530817685
0.005670872906173213
0.005670873137560029
0.0056708732307804
0.005670873255710099
0.005670873151712812
0.005670873015778757
0.005670872731021673
0.005670872509987716
0.005670872309945649
0.005670872175783443
0.005670871874786072
0.005670871665061913
0.005670871255469631
0.005670870737976566
0.005670870052176463
0.005670869393700825
0.005670868946218636
0.005670868581264588
0.005670868424034158
0.005670868353822789
0.005670868368733897
0.005670868380334083
0.005670868255743044
0.00564851741384942
0.005648517245021755
0.005648517137790491
0.005648517051418233
0.005648516938227136
0.005648517002119244
0.00564851701644372
0.005648517122711263
0.005648517330927589
0.005648517619959281
0.005648517991637365
0.005648518475111271
0.005648518897773748
0.005648519352542711
0.005648519807578804
0.005648520192739684
0.005648520676848116
0.005648521054806821
0.005648521463165388
0.005648521739172287
0.005648522013249222
0.005648522196502589
0.005648522286226478
0.005648522323365655
0.005648522314071701
0.005648522191715623
0.005648521998511888
0.005648521618383215
0.00564852136872851
0.005648521143595571
0.005648521015083708
0.005648520726501666
0.005648520511786536
0.005648520104659437
0.005648519674183727
0.005648519195169227
0.005648518742499113
0.005648518419496372
0.005648518136525055
0.005648518000274129
0.005648517903695262
0.005648517872305449
0.005648517813556662
0.005648517615296424
0.005592615167122546
0.005592614990044507
0.005592614915522611
0.005592614875987455
0.005592614821132868
0.00559261492282151
0.005592614959013672
0.00559261510140389
0.005592615327425623
0.005592615585080523
0.0055926159627876
0.005592616445558376
0.005592616847923742
0.005592617333707709
0.005592617778873669
0.005592618186043043
0.005592618669190793
0.005592619010595462
0.005592619370126934
0.005592619585792122
0.005592619779917259
0.005592619844264765
0.00559261980984095
0.005592619803607981
0.005592619748080199
0.005592619606838665
0.005592619388394941
0.005592618953057227
0.005592618686456239
0.005592618446085472
0.005592618325542817
0.005592618054428111
0.005592617836666228
0.0055926174538336
0.005592617092936598
0.005592616760657147
0.005592616465832112
0.005592616252136353
0.005592616047045845
0.005592615940605722
0.005592615832194056
0.005592615773785459
0.005592615660876185
0.005592615409987687
0.005515345087030075
0.005515344902089611
0.005515344837339043
0.005515344812222647
0.005515344775952057
0.005515344896797076
0.005515344940393912
0.005515345092359088
0.00551534531983459
0.005515345544663577
0.005515345904988828
0.005515346376178881
0.005515346746583849
0.005515347237043995
0.005515347667451192
0.005515348071175675
0.005515348549817705
0.005515348858402699
0.005515349183956244
0.005515349359066018
0.005515349490124325
0.005515349502202184
0.00551534937817919
0.005515349330943643
0.005515349245236629
0.005515349096824053
0.005515348884636536
0.005515348425147557
0.005515348160702727
0.005515347913612621
0.005515347808196945
0.005515347566996376
0.005515347368834343
0.005515347028899813
0.005515346728700792
0.005515346501737783
0.005515346318096518
0.005515346189761829
0.005515346048821836
0.005515345968271169
0.005515345859436411
0.00551534578610693
0.005515345645151419
0.005515345358119715
0.005432766599079045
0.005432766389459787
0.005432766313713254
0.005432766285953811
0.005432766220575858
0.005432766339882491
0.005432766359680367
0.005432766497707199
0.005432766702215065
0.005432766888140285
0.0054327672095617
0.005432767649195197
0.005432767966985638
0.005432768432159874
0.005432768830185158
0.005432769198120098
0.005432769661316025
0.0054327699277805
0.005432770227272093
0.005432770377531704
0.005432770471353098
0.005432770475613017
0.005432770298137096
0.00543277024674322
0.005432770159535927
0.00543277002051212
0.005432769837625468
0.005432769388189484
0.005432769163776888
0.005432768932856945
0.005432768858494392
0.005432768667412274
0.005432768525555694
0.005432768256979073
0.005432768022270504
0.005432767879625397
0.005432767768981371
0.005432767697281168
0.005432767594626737
0.005432767533073096
0.005432767415768332
0.00543276733703402
0.005432767183191377
0.005432766877208282
0.005383729709674213
0.005383729524059543
0.005383729407802605
0.005383729261072796
0.005383729134557855
0.005383729081927299
0.005383729053818895
0.005383729075655031
0.005383729143230293
0.005383729278746469
0.005383729474493514
0.005383729754757662
0.005383730025485273
0.005383730305256738
0.005383730575347813
0.005383730827957362
0.00538373105842725
0.005383731279571132
0.005383731466355558
0.005383731585929444
0.005383731661175536
0.005383731729566181
0.00538373173529978
0.005383731734684509
0.005383731686549161
0.005383731591942787
0.005383731485553285
0.005383731363758244
0.005383731302402465
0.005383731283421013
0.005383731285029154
0.005383731265407103
0.005383731275003961
0.005383731216978335
0.005383731162619947
0.005383731107575319
0.005383731011560489
0.005383730937751948
0.005383730809488386
0.005383730700875583
0.00538373050541545
0.005383730381680053
0.005383730177625575
0.005383729972731213
0.005432857031035802
0.005432856849944901
0.005432856690628361
0.005432856408795849
0.005432856238410046
0.005432855968850068
0.005432855896232961
0.005432855797409067
0.005432855744650899
0.005432855813681924
0.005432855897522847
0.005432856027322441
0.005432856247568563
0.005432856352525728
0.005432856502088616
0.005432856638857612
0.005432856669258072
0.005432856834750241
0.00543285692732185
0.005432857031118851
0.005432857094515654
0.005432857213769201
0.005432857423362916
0.005432857490103018
0.005432857493819852
0.005432857459103818
0.005432857451929564
0.005432857573792771
0.005432857670616811
0.005432857854583871
0.005432857960292321
0.005432858101905329
0.005432858277059595
0.005432858397768851
0.005432858519542527
0.005432858540788702
0.005432858460643926
0.00543285837962067
0.00543285821768553
0.005432858069543207
0.005432857804807514
0.005432857656097134
0.005432857396332224
0.005432857283301239
0.005515469566885325
0.005515469370684791
0.005515469193748141
0.005515468901917023
0.005515468699784939
0.005515468410917691
0.005515468297686139
0.005515468182188905
0.005515468108281392
0.005515468141594681
0.005515468196026844
0.005515468288345024
0.005515468462972763
0.005515468545950105
0.005515468658726732
0.005515468762013647
0.005515468777715891
0.005515468890490363
0.005515468961462692
0.005515469056450705
0.005515469096278614
0.005515469194975709
0.005515469377387481
0.005515469455529356
0.005515469470216784
0.005515469460309759
0.005515469465975586
0.005515469592235459
0.005515469720592151
0.005515469944194018
0.005515470098274813
0.005515470287160282
0.005515470532715745
0.005515470715232409
0.005515470908085093
0.005515470979261251
0.005515470942880139
0.005515470888036142
0.005515470745194174
0.005515470620806496
0.005515470353972897
0.005515470210219074
0.005515469949838119
0.005515469828502281
0.005592761336885952
0.005592761112917575
0.005592760935858015
0.005592760642649127
0.005592760432615878
0.005592760148917795
0.005592760004259039
0.005592759878529965
0.005592759789791554
0.005592759805235226
0.005592759841235345
0.005592759915771036
0.005592760060185419
0.005592760143853388
0.005592760240859787
0.00559276032932634
0.005592760342151938
0.005592760422001072
0.005592760472584457
0.005592760553223852
0.005592760569671141
0.005592760634177659
0.005592760760908226
0.005592760826007957
0.005592760835564885
0.005592760834580366
0.00559276084068008
0.005592760956101651
0.005592761086508241
0.005592761331129409
0.005592761521036673
0.00559276173252009
0.005592762018376167
0.005592762236378159
0.005592762482093686
0.00559276260482186
0.005592762603889067
0.005592762583549292
0.005592762471299845
0.005592762380769355
0.005592762135974947
0.005592761997614336
0.005592761743904949
0.005592761607607417
0.005648677000844604
0.005648676744524135
0.005648676583725921
0.00564867629718977
0.005648676095309812
0.005648675834469796
0.005648675654168503
0.005648675524831595
0.005648675416115039
0.005648675421084965
0.005648675444629547
0.00564867551287694
0.00564867563780058
0.005648675734337072
0.005648675828215394
0.005648675913120125
0.005648675922121127
0.005648675975460191
0.005648676011125924
0.0056486760669832
0.005648676062876291
0.005648676087728051
0.005648676137676725
0.005648676174063007
0.005648676170604433
0.005648676169423201
0.005648676170712704
0.0056486762678849
0.005648676390452473
0.005648676647187827
0.005648676867997578
0.005648677091017955
0.00564867739261095
0.005648677635989888
0.005648677912342862
0.005648678088418786
0.005648678126586305
0.005648678136642556
0.005648678066276521
0.005648678006537541
0.005648677797332799
0.005648677664882343
0.005648677425263204
0.005648677266030054
0.005671034857491587
0.005671034579159739
0.005671034449338198
0.005671034187331035
0.005671034001261984
0.005671033776781491
0.005671033545719397
0.005671033417108696
0.005671033278995143
0.00567103327610085
0.005671033290260434
0.005671033355571563
0.005671033465404222
0.005671033582929918
0.00567103368333285
0.005671033772795727
0.005671033775241059
0.005671033808043166
0.005671033830716007
0.005671033855214914
0.005671033826479985
0.00567103381130705
0.005671033770445564
0.005671033775385708
0.005671033750232287
0.005671033745436878
0.0056710337396446
0.005671033818024936
0.005671033934021913
0.00567103420111694
0.005671034449024764
0.005671034678477444
0.005671034974418392
0.00567103524288142
0.005671035523336069
0.005671035751283721
0.005671035828666448
0.00567103587139012
0.005671035836441986
0.005671035802791084
0.005671035635233523
0.005671035512958892
0.005671035292574111
0.005671035100554379
0.005649186932561654
0.005649186654959889
0.005649186568596826
0.005649186360695716
0.005649186183788956
0.00564918600305872
0.005649185700599323
0.005649185570544958
0.005649185390682908
0.005649185373121529
0.005649185379559944
0.005649185442776876
0.005649185535680392
0.005649185683488422
0.005649185793362045
0.005649185898782052
0.005649185891247582
0.005649185905999746
0.005649185917479924
0.005649185921195392
0.005649185858573475
0.00564918580940375
0.005649185665358738
0.005649185646524583
0.005649185590190467
0.005649185585619861
0.00564918557273976
0.005649185640200528
0.005649185754695003
0.005649186038021367
0.005649186313123558
0.005649186543798331
0.005649186812582408
0.005649187109745967
0.005649187366349838
0.005649187641545428
0.00564918774907272
0.005649187828351284
0.005649187817322395
0.005649187805336404
0.005649187670722802
0.005649187562792348
0.005649187369702861
0.005649187136675016
0.005572866874098942
0.005572866636487176
0.005572866605020742
0.005572866464753708
0.005572866296690998
0.005572866150733806
0.005572865756553586
0.005572865617491133
0.005572865383490042
0.00557286534663964
0.005572865335695853
0.005572865397915546
0.005572865470236293
0.00557286565276395
0.005572865778662821
0.005572865910548952
0.005572865889104756
0.005572865901082076
0.005572865903374919
0.005572865892265718
0.005572865799558643
0.00557286571956292
0.005572865466974544
0.005572865433769524
0.005572865357023478
0.005572865358025609
0.005572865345396858
0.005572865409144434
0.005572865529932788
0.005572865838903934
0.005572866135500108
0.005572866363553176
0.00557286658707393
0.005572866921008734
0.005572867118835532
0.005572867433681454
0.005572867554010178
0.005572867670010366
0.005572867676154883
0.005572867676650988
0.005572867561722013
0.00557286747293793
0.005572867310548815
0.005572867031756402
0.005431267270434356
0.005431267117285067
0.005431267140062763
0.005431267064289768
0.005431266911295867
0.005431266773048208
0.005431266271279291
0.005431266102303568
0.005431265800197837
0.005431265737541489
0.005431265705342298
0.005431265765509267
0.005431265820498181
0.005431266027245088
0.005431266182175678
0.005431266362933929
0.005431266329982747
0.005431266358212132
0.005431266358147399
0.005431266341650411
0.005431266239403689
0.005431266131041383
0.005431265767891776
0.005431265736373514
0.005431265657770573
0.005431265675548839
0.005431265667827751
0.005431265737656294
0.005431265869649972
0.005431266217904768
0.005431266533228744
0.005431266742489086
0.005431266916195449
0.005431267280451332
0.005431267405970926
0.005431267724800134
0.005431267840595045
0.005431267990702313
0.005431268006114125
0.005431268013255343
0.005431267903556452
0.005431267837276395
0.005431267699919575
0.005431267382855941
0.005212041077876718
0.005212041017341451
0.005212041145584934
0.005212041105713272
0.005212040958689319
0.005212040772775443
0.005212040110132365
0.005212039900331937
0.005212039531584397
0.005212039427352039
0.005212039375498405
0.005212039434653171
0.005212039479848801
0.005212039720557031
0.005212039922620463
0.005212040186728295
0.005212040146008996
0.00521204021746127
0.005212040225950533
0.005212040211917263
0.005212040126192631
0.005212039991103543
0.005212039524634613
0.005212039508757669
0.005212039451559493
0.005212039511472419
0.005212039514946787
0.005212039590706556
0.005212039736027748
0.005212040135070622
0.005212040456548788
0.005212040625928198
0.005212040771772483
0.00521204114159785
0.005212041193587135
0.005212041477535459
0.005212041560534338
0.00521204174073353
0.005212041756370248
0.005212041763142859
0.005212041645914101
0.005212041605966023
0.00521204147703122
0.005212041138767674
0.004899953016694495
0.004899953052967597
0.004899953315143077
0.004899953287810154
0.004899953115889305
0.004899952819412917
0.004899951895347726
0.004899951645452611
0.004899951237819285
0.004899951061656915
0.004899951014948862
0.004899951079979831
0.004899951137005196
0.004899951454608274
0.004899951715949937
0.004899952134173891
0.00489995209055129
0.004899952239727852