/*--------------------------------*- C++ -*----------------------------------*\
| =========                 |                                                 |
| \\      /  F ield         | OpenFOAM: The Open Source CFD Toolbox           |
|  \\    /   O peration     | Version:  v1812                                 |
|   \\  /    A nd           | Web:      www.OpenFOAM.com                      |
|    \\/     M anipulation  |                                                 |
\*---------------------------------------------------------------------------*/
FoamFile
{
    version     2.0;
    format      ascii;
    class       volScalarField;
    location    "3000";
    object      nuTilda;
}
// * * * * * * * * * * * * * * * * * * * * * * * * * * * * * * * * * * * * * //

dimensions      [0 2 -1 0 0 0 0];


internalField   nonuniform List<scalar> 
1892
(
0.0004984704991439463
0.0004984623658364599
0.0004984831374699677
0.0005024714362249859
0.0005025414091666108
0.0004985883329874036
0.000502472762272031
0.0005025414473784922
0.0004985337092224642
0.000498462273988977
0.000502470340949835
0.000502540621907422
0.0005025204079554987
0.0005025214310328626
0.0005025178350324445
0.0005025418728608822
0.0005025599366823833
0.0005025261485451889
0.0005025258622274021
0.0005025729762744776
0.0005025808807877212
0.0005025825130706171
0.0005025598954214247
0.0005025575390246499
0.0005025286200393823
0.0005025245336651461
0.000502521228710455
0.0004985328606090818
0.0004984622876736251
0.0005024138175846682
0.0004985310697532815
0.0004984629867752451
0.0004984841240692585
0.0004984735484588393
0.0004984801847008328
0.0004984738960385266
0.0004984779134422773
0.0005024708597988313
0.00050254140168135
0.0004985337103381471
0.000498463021118493
0.0004984831146322858
0.0005024714375786639
0.0005025414692490631
0.0004629152575054957
0.0004622813218859145
0.0004625273148809979
0.0005119398352858583
0.0005136100444674449
0.0004637988312996416
0.0005119821523646543
0.0005136109510874969
0.000463326381078178
0.0004622991831933963
0.000511908867692524
0.0005136219872049146
0.0005132285831697565
0.0005132206965982885
0.0005131841058033238
0.0005134565481985619
0.0005137263690962538
0.0005134477777512262
0.0005133974090619401
0.0005140523021260953
0.0005141304970586727
0.0005141690776769819
0.000513980458355601
0.0005137382735767321
0.000513548841167035
0.0005133158260713395
0.0005132274589815032
0.0004633098560486806
0.0004622984955066126
0.0005111441409230258
0.0004632697219528963
0.0004622881248551952
0.0004625268955058699
0.0004624945182315908
0.0004624058453851396
0.0004624227548785408
0.000462505305058284
0.0005119228260738307
0.0005136093448917527
0.0004633264270569664
0.0004622892212024944
0.0004625276212446365
0.0005119393802363913
0.0005136099961669788
0.0007480808671625393
0.0007469096285683364
0.0007473673149799708
0.0007732401474801915
0.000774772434978052
0.0007496355476912661
0.0007733220342825199
0.0007747733002455965
0.0007488481162921291
0.0007469641591968971
0.0007731900595992907
0.0007747925508922764
0.0007744380770623288
0.0007744455089352299
0.0007744519620196062
0.0007745901613308982
0.0007747873219221527
0.0007745808067252564
0.0007748805213843743
0.0007753711831850402
0.0007751206616605958
0.0007749178313323529
0.0007751592484657117
0.0007748170802010327
0.0007747896904692291
0.0007746616926447246
0.0007744430499413765
0.000748798148020434
0.0007469612031035071
0.0007725105918706245
0.0007486946808535846
0.0007469325578045966
0.0007473700248048665
0.0007471018152091337
0.0007468168980910036
0.0007468054506806808
0.000747187982147128
0.0007732128458651464
0.0007747713700366259
0.0007488481773911197
0.0007469371896442506
0.0007473697679322043
0.000773239098614427
0.000774770294597468
0.001057846622174385
0.001057260794833131
0.001057507961924367
0.001067080926870958
0.001067947260452558
0.001058713178504985
0.001067140256305262
0.001067947584686949
0.001058288732125346
0.001057301059250487
0.001067040842617552
0.001067966415102328
0.001067760484388013
0.001067794700350216
0.001067915971463436
0.001067897808499493
0.001068082333800845
0.001067924993182881
0.001068048340446022
0.001068242600184094
0.001068235955123519
0.001068015811192539
0.001068179140013017
0.001067984180310867
0.001067918435940543
0.00106785349279517
0.001067758387216167
0.001058251745179931
0.001057299431018061
0.001066651542786528
0.001058185874509322
0.001057278283162894
0.001057508569181454
0.001057407253295717
0.001057150982140184
0.001057099003154342
0.00105739199897892
0.001067056680599706
0.001067947186863667
0.001058290050145196
0.001057280394719865
0.00105751014434926
0.001067079890835092
0.001067944728125792
0.001410202534067028
0.001409963570425047
0.001410070151659085
0.001413054821680321
0.001413435597572914
0.001410593379444359
0.001413089179840266
0.001413435603408206
0.001410410752702926
0.001409987005570153
0.001413030473289713
0.001413447508933241
0.001413353526840124
0.001413366601367044
0.001413470873465541
0.001413415130134862
0.001413545523401983
0.001413467237995126
0.001413439625394277
0.001413477467740609
0.001413533002146313
0.001413409783912626
0.00141355554145415
0.001413478569512186
0.00141343542634398
0.001413372971423623
0.001413343512211871
0.001410385336283805
0.001409986618276019
0.001412862648148081
0.001410354481755914
0.001409976309851752
0.001410061771691107
0.001410039982934014
0.001409909113950053
0.001409823593585953
0.00140998910853252
0.001413034259666802
0.001413436397504174
0.001410412218708969
0.001409975578264662
0.001410071854225883
0.001413054006979282
0.001413434032652044
0.001890931074362267
0.001890837644400272
0.001890874016844518
0.001891629298826182
0.001891780111908626
0.001891076150749086
0.001891651419809643
0.00189178019138645
0.001891017552946793
0.00189084904078736
0.001891620419067235
0.001891780004274584
0.001891747463336128
0.001891735338341837
0.001891771353429413
0.001891764616043889
0.001891840949665916
0.00189181468516802
0.001891807290588502
0.001891780586703024
0.001891782780441953
0.001891734834365768
0.001891816814827277
0.001891808033688114
0.001891785580064814
0.001891752470829597
0.001891746008158378
0.001890997024215071
0.001890848689209537
0.001891565080781017
0.001890988498327553
0.001890846139591901
0.00189084275993247
0.00189083999589857
0.001890823893402542
0.00189079799487511
0.001890840952263493
0.001891611287083815
0.001891778591265855
0.001891016349096676
0.001890844198294845
0.001890875105598935
0.001891628306499141
0.001891779197236114
0.002535534889757483
0.002535503124007095
0.002535511262400019
0.00253564891079758
0.002535698345886869
0.002535570699482887
0.002535660567415516
0.002535698090638199
0.002535562114647622
0.002535507050608209
0.002535650914280548
0.002535694431672486
0.002535684802889964
0.002535675749201231
0.002535688992047984
0.00253570644762038
0.002535715477015405
0.002535710537140348
0.00253571117602786
0.002535699904262453
0.0025356961177171
0.002535679713659895
0.002535695621715825
0.002535708913915675
0.002535686092918044
0.002535681192398946
0.002535688414450748
0.002535549768263377
0.002535506747314729
0.002535638116252992
0.002535552182943334
0.002535507302088158
0.002535507226040022
0.002535493185989159
0.002535496492133367
0.002535490690487611
0.002535488333368615
0.002535634844365713
0.002535692802279527
0.002535556660610401
0.002535503783180452
0.00253551060479859
0.002535647216484004
0.002535697319138122
0.003261724901384531
0.003261718495200882
0.003261720133490319
0.003261737760682702
0.003261748544453836
0.00326173105177284
0.003261741723422624
0.003261747616920559
0.003261731174651829
0.003261719207395335
0.003261740851977981
0.003261746625633886
0.003261743627953116
0.003261741279996052
0.003261744561905856
0.003261754057157839
0.003261758245236362
0.003261752342509945
0.003261754760907429
0.00326174898009399
0.003261749713557856
0.003261746846695294
0.003261747812174501
0.003261752725184724
0.003261746788229762
0.003261744683669836
0.00326174507823837
0.003261728581163107
0.003261720994838852
0.003261738584937649
0.003261731101373534
0.003261720930393747
0.003261719842665618
0.003261714121036199
0.003261712494195937
0.003261712808696428
0.003261707930913985
0.003261729880431519
0.003261742063058693
0.00326172430915635
0.003261715405895629
0.003261715825410281
0.003261735149195203
0.003261747306526613
0.003956682051949131
0.003956681427461037
0.003956681713648708
0.003956683321190891
0.003956684704907946
0.003956682308988219
0.003956683750781035
0.003956683427527219
0.003956682761825096
0.003956680930929694
0.003956684019082184
0.00395668487737764
0.003956683239815332
0.003956682365766532
0.003956683787541217
0.00395668780471769
0.003956689470372312
0.003956687741596998
0.003956688407497295
0.003956686558128632
0.003956687800918482
0.003956688346501348
0.003956688186384235
0.003956689343973088
0.003956687153791231
0.003956686653538379
0.003956688071354932
0.003956686896357682
0.003956686074964338
0.003956687509421489
0.003956686669066866
0.003956684784005927
0.003956683758378179
0.003956681680207336
0.003956679326172726
0.003956678255937914
0.003956677042302461
0.003956679051548912
0.003956680061948118
0.003956677695708045
0.003956676746419769
0.003956677955992895
0.003956680941790641
0.003956683457331457
0.00454699184059023
0.004546991991854247
0.004546992041775728
0.004546991813892739
0.004546991328411618
0.004546990578660756
0.004546990970010318
0.004546990162736932
0.004546990428084673
0.004546990688327002
0.004546991127546193
0.004546991655454224
0.004546991351339524
0.004546991055892983
0.004546991814092336
0.00454699323441159
0.004546994030388165
0.004546993754993302
0.004546994679301606
0.004546994266999414
0.004546995363913497
0.004546997004688771
0.004546997003463971
0.004546997194016573
0.004546995977340345
0.004546995656270216
0.004546997266325417
0.004546998557929574
0.00454699838418451
0.004546997990469017
0.004546997076010049
0.00454699578629603
0.00454699523841443
0.004546994311596306
0.004546992644864906
0.004546990606442589
0.004546989977516377
0.004546989474872548
0.004546988711858889
0.004546988127172966
0.00454698789929425
0.004546988799553555
0.004546990317169564
0.004546991126837872
0.005018096786124501
0.005018096963935135
0.005018096824904817
0.005018096436808975
0.005018095503062384
0.005018095046925746
0.005018095094823372
0.005018094423425597
0.005018094594878809
0.005018095165620135
0.005018095284883641
0.005018095739116658
0.005018095987669986
0.005018095974545786
0.005018096518339676
0.005018097012602517
0.005018097503890593
0.005018097656318865
0.005018098745802179
0.00501809887507455
0.005018099857087627
0.005018101862472402
0.00501810206035676
0.005018102105952658
0.005018101445446762
0.005018101089168512
0.00501810217867193
0.00501810375451793
0.005018103788238179
0.005018103460592866
0.005018102535832321
0.005018101458186117
0.00501810084653027
0.005018100363359816
0.005018099228572036
0.005018096702428284
0.005018095812937768
0.005018095160827125
0.005018094318235119
0.005018093992234127
0.005018093930310052
0.005018094483993872
0.005018095725674043
0.005018096133565427
0.00538209462036211
0.005382094755517763
0.00538209448629344
0.005382094082476942
0.005382093099826253
0.005382092755667918
0.005382092645502491
0.005382092192230586
0.005382092265752854
0.005382092802753577
0.005382092961423457
0.005382093299372942
0.005382093753209182
0.005382093846734237
0.005382094320993208
0.005382094562833947
0.005382094933374463
0.005382095258853265
0.005382096305485953
0.005382096619972283
0.005382097526964336
0.005382099469597407
0.005382099850283891
0.005382099907353142
0.005382099589084742
0.005382099309779711
0.005382099885940017
0.005382101142691687
0.005382101239630294
0.005382101102068959
0.005382100432477242
0.005382099607772751
0.005382099055616459
0.005382098678124263
0.005382097780402845
0.005382095379278906
0.005382094162030076
0.005382093516453757
0.005382092802614714
0.005382092598929501
0.005382092580687001
0.005382092988527819
0.005382093976676074
0.005382094246377835
0.005654307792534059
0.005654307871670442
0.00565430755005286
0.005654307166960713
0.005654306290114542
0.005654306016669763
0.005654305872445802
0.005654305578919092
0.005654305613705355
0.005654306084933178
0.005654306278447207
0.005654306586693489
0.005654307076990267
0.005654307220997152
0.005654307668973501
0.005654307864177269
0.005654308200518875
0.005654308647714723
0.005654309527631286
0.005654309925230734
0.005654310732317372
0.005654312373041511
0.005654312861015471
0.005654312958156195
0.00565431287154175
0.005654312675280971
0.005654312937601538
0.005654313737262432
0.005654313796306847
0.005654313744699871
0.005654313333639817
0.005654312738607101
0.005654312312320473
0.00565431196606082
0.005654311181897619
0.005654309142456274
0.005654307828696284
0.005654307162695674
0.005654306544252462
0.005654306396135803
0.005654306405148016
0.00565430671899768
0.005654307441381978
0.005654307594345118
0.005847856626164365
0.005847856643813093
0.005847856325249525
0.005847855988900235
0.005847855285028167
0.005847855079649964
0.005847854940154142
0.00584785479409526
0.005847854814394593
0.005847855225405665
0.005847855439832611
0.005847855770275342
0.005847856244528282
0.005847856425357768
0.005847856872150819
0.00584785707131774
0.005847857427247738
0.00584785791075918
0.00584785863763817
0.00584785906199217
0.005847859744469295
0.00584786100904287
0.005847861515448765
0.005847861654181685
0.00584786167219544
0.005847861560075369
0.005847861648155789
0.005847862047784183
0.005847862023904385
0.005847861973925945
0.005847861722662088
0.005847861290766336
0.005847860978738035
0.005847860650619332
0.005847859938552746
0.005847858340512446
0.005847857112566939
0.005847856446508876
0.005847855890708067
0.005847855762423711
0.005847855769959712
0.005847855991659495
0.005847856472318846
0.005847856537935812
0.005973830510180946
0.005973830481413992
0.005973830212208465
0.005973829941192423
0.005973829422118947
0.005973829294035596
0.005973829191253367
0.00597382911625207
0.005973829168952499
0.005973829538066222
0.005973829778863037
0.005973830149228837
0.005973830593550796
0.005973830820453364
0.00597383127430838
0.00597383149189029
0.00597383188213131
0.005973832346655237
0.005973832949715943
0.00597383336762043
0.005973833908568184
0.005973834817103656
0.005973835264815277
0.005973835410358734
0.005973835474364512
0.005973835400410279
0.005973835405069776
0.005973835486908006
0.005973835393488662
0.005973835303271042
0.005973835130048337
0.005973834793445561
0.005973834558181966
0.005973834231829299
0.00597383359831995
0.005973832405110949
0.005973831370954788
0.00597383075948861
0.005973830246977741
0.005973830121140672
0.005973830113388562
0.005973830246179998
0.005973830522474235
0.00597383052314581
0.006042028187115854
0.006042028108844931
0.006042027901641358
0.006042027701023145
0.00604202735215697
0.00604202729634143
0.006042027239352742
0.006042027217855692
0.006042027318315958
0.00604202764857385
0.006042027924082177
0.006042028327506273
0.006042028741277992
0.006042029034202064
0.006042029472892362
0.006042029731763156
0.006042030147508952
0.006042030573261053
0.006042031078934315
0.006042031455561514
0.006042031880672216
0.006042032472233615
0.006042032816265701
0.006042032945153325
0.006042033006133864
0.006042032930689246
0.006042032872256327
0.006042032759369987
0.006042032593207159
0.006042032451688164
0.006042032318838143
0.006042032029436767
0.006042031834854496
0.006042031491739072
0.006042030949069383
0.006042030087718486
0.006042029272980757
0.006042028756786157
0.006042028318269461
0.006042028151114344
0.00604202813993351
0.006042028208685079
0.006042028328520417
0.006042028268312289
0.006061590976068043
0.006061590857223332
0.006061590712020071
0.006061590581448823
0.006061590368680311
0.006061590379033047
0.006061590361872234
0.006061590394135778
0.006061590537196473
0.00606159082945768
0.006061591138501565
0.006061591559507905
0.006061591952949567
0.006061592308935995
0.006061592731500546
0.006061593034661829
0.006061593464657706
0.006061593848204261
0.006061594278263078
0.006061594594213672
0.006061594925223397
0.006061595270120257
0.006061595483960117
0.006061595574607375
0.006061595603230333
0.00606159552275384
0.006061595402738967
0.006061595153746522
0.006061594948433452
0.006061594767140209
0.006061594649776149
0.006061594380337086
0.006061594197638109
0.006061593839196316
0.006061593381045533
0.006061592772540352
0.006061592173198103
0.006061591769909455
0.006061591414087544
0.00606159125868058
0.006061591201277666
0.00606159122286174
0.006061591245625629
0.006061591127978605
0.006041580268972622
0.006041580120396117
0.006041580019753405
0.006041579948107588
0.006041579835827358
0.00604157989421062
0.006041579906134903
0.006041579988310611
0.0060415801634969
0.006041580422507127
0.00604158075405239
0.006041581183454644
0.006041581558532944
0.006041581964074145
0.006041582373987231
0.006041582713755924
0.006041583148641138
0.00604158349321765
0.006041583865511728
0.006041584117126666
0.006041584369564788
0.006041584542417236
0.006041584626669366
0.006041584664352876
0.006041584663186276
0.006041584565416993
0.006041584396817332
0.006041584058834592
0.006041583827738098
0.006041583621790913
0.006041583509732126
0.00604158325185818
0.006041583065971151
0.006041582706836337
0.006041582320989954
0.00604158189496845
0.006041581480943987
0.006041581191554556
0.006041580917041077
0.006041580785218728
0.006041580704820873
0.006041580684421384
0.006041580644042233
0.006041580464128916
0.005991607122130952
0.005991606961571304
0.005991606889172276
0.005991606857024267
0.005991606800683184
0.005991606891196804
0.0059916069219755
0.005991607038347471
0.005991607231828087
0.005991607460812432
0.005991607795310605
0.005991608224546359
0.005991608579774052
0.005991609011921651
0.005991609411923128
0.005991609770932386
0.00599161020550761
0.005991610517582418
0.005991610846475798
0.005991611045065267
0.00599161122772833
0.005991611293730581
0.00599161126690509
0.005991611262751783
0.005991611220413701
0.005991611104554683
0.005991610915880055
0.005991610527053251
0.00599161028140057
0.005991610060424118
0.005991609955260524
0.005991609713660064
0.005991609525986489
0.005991609186757159
0.005991608860416262
0.005991608564223314
0.005991608292405038
0.005991608102515033
0.005991607903603854
0.005991607801585952
0.005991607712076408
0.005991607666912686
0.005991607579569443
0.005991607354932807
0.00592271533277587
0.005922715162007462
0.005922715098030631
0.005922715078382709
0.00592271504033149
0.005922715146620731
0.005922715183620504
0.005922715309513245
0.005922715505257917
0.005922715703842661
0.005922716020621247
0.005922716439044617
0.005922716764170504
0.005922717198600196
0.005922717584348408
0.005922717939243992
0.005922718369139345
0.00592271865120447
0.005922718949226687
0.005922719112492307
0.005922719238897287
0.005922719256147852
0.005922719152774519
0.005922719110125695
0.005922719039873138
0.005922718916440564
0.005922718735218434
0.005922718325274324
0.005922718082750705
0.005922717855391433
0.005922717762934079
0.005922717548352511
0.005922717378738258
0.005922717077318932
0.005922716804177281
0.005922716601417828
0.005922716430019901
0.005922716317256323
0.005922716179707775
0.005922716102157017
0.00592271601486957
0.005922715955906543
0.00592271584473983
0.005922715590277238
0.005849330601670932
0.00584933041000178
0.005849330335738645
0.005849330314040206
0.005849330249445143
0.005849330354879852
0.005849330370157679
0.005849330483911868
0.005849330659513752
0.005849330823050286
0.005849331104112325
0.005849331493442159
0.005849331770187679
0.005849332179815908
0.0058493325359218
0.005849332857419588
0.005849333272311404
0.005849333515626122
0.005849333788778901
0.005849333930152617
0.005849334021783299
0.005849334031731613
0.005849333882683748
0.005849333835036843
0.005849333762930625
0.005849333646756318
0.005849333492270172
0.005849333092704784
0.005849332886754633
0.005849332675067909
0.005849332609121015
0.005849332439044521
0.005849332319025896
0.005849332082162849
0.005849331867206321
0.005849331740110667
0.005849331635368841
0.005849331574644193
0.005849331472528909
0.005849331412063165
0.005849331319689715
0.005849331255884771
0.005849331134394788
0.005849330864838471
0.00580587296616951
0.005805872795231426
0.005805872691195817
0.005805872563933305
0.005805872449530743
0.005805872403483112
0.005805872374110511
0.005805872387240977
0.005805872439035266
0.005805872555974861
0.005805872727351248
0.005805872973375792
0.005805873210966972
0.005805873457304473
0.005805873697841905
0.005805873920729991
0.005805874124330425
0.005805874322922721
0.005805874494475688
0.00580587460586406
0.005805874676173203
0.005805874739225516
0.00580587474776145
0.005805874749784307
0.005805874711921784
0.005805874632031276
0.005805874539213333
0.005805874427437916
0.005805874370573282
0.005805874351653376
0.005805874353190326
0.005805874331690982
0.005805874344840655
0.005805874293838408
0.005805874245750515
0.005805874201094473
0.005805874114967348
0.005805874053386938
0.005805873932652784
0.005805873835348601
0.005805873668262995
0.005805873562297209
0.005805873390761078
0.00580587321111049
0.005849410828715309
0.005849410660981002
0.005849410524564127
0.005849410277282244
0.005849410127737494
0.005849409890525083
0.005849409818507252
0.005849409726185553
0.005849409669428635
0.005849409727300505
0.005849409802030879
0.005849409913465881
0.005849410109573881
0.005849410202375342
0.005849410334959975
0.005849410458931757
0.00584941048105703
0.005849410627446828
0.005849410714059235
0.005849410809494526
0.005849410865879103
0.005849410967004553
0.005849411155404926
0.005849411219685303
0.005849411226190955
0.005849411196559254
0.005849411187597472
0.005849411289536489
0.005849411376585734
0.005849411539932963
0.005849411635983164
0.00584941175224388
0.005849411912516045
0.005849412018992945
0.005849412133928628
0.005849412160376344
0.005849412093114518
0.005849412026194508
0.005849411878387076
0.00584941174888179
0.005849411515945534
0.005849411385641339
0.005849411158797248
0.005849411059208698
0.005922826146645116
0.005922825964882319
0.005922825812260763
0.005922825555658539
0.005922825377804608
0.005922825123538347
0.005922825014519082
0.005922824906728283
0.005922824831268608
0.005922824859014136
0.005922824907838673
0.005922824986413618
0.00592282514198317
0.005922825215235831
0.005922825316223425
0.005922825410748178
0.005922825419798734
0.00592282551950022
0.005922825585068936
0.00592282567281123
0.00592282570828213
0.005922825791174705
0.005922825955049844
0.005922826029011415
0.005922826044367164
0.005922826036120238
0.005922826038865031
0.005922826145033938
0.005922826260101048
0.00592282645929693
0.005922826598480176
0.005922826756675442
0.005922826979397141
0.005922827141141613
0.005922827319992923
0.005922827393184673
0.005922827363779639
0.005922827320851119
0.005922827189749255
0.005922827081242665
0.005922826846642084
0.005922826719731974
0.005922826491979516
0.005922826385360096
0.005991737654994023
0.005991737446658023
0.005991737293133147
0.005991737034510798
0.005991736848884597
0.005991736599623986
0.005991736462313243
0.005991736345213762
0.005991736255765305
0.005991736268749972
0.00599173630104014
0.005991736363794456
0.005991736492456992
0.005991736566263083
0.005991736654021094
0.005991736735874771
0.005991736742371668
0.00599173681304519
0.005991736859947234
0.00599173693495099
0.005991736949721898
0.005991737003618865
0.00599173711728747
0.005991737178710596
0.005991737188888589
0.005991737188055477
0.005991737191542979
0.005991737288414643
0.00599173740518021
0.005991737622907656
0.005991737794545074
0.005991737973178574
0.005991738232273386
0.0059917384262144
0.00599173865186703
0.005991738772346524
0.005991738773873345
0.005991738761229954
0.005991738658203436
0.005991738578802244
0.005991738365939108
0.00599173824230579
0.005991738019959576
0.005991737900297832
0.006041723102704042
0.006041722863286845
0.006041722723249612
0.006041722470274061
0.006041722290858955
0.006041722063601303
0.006041721894525073
0.006041721773821227
0.006041721664988054
0.006041721669487473
0.006041721690493876
0.006041721747593118
0.006041721858625652
0.006041721943879579
0.006041722029484317
0.006041722109827077
0.00604172211299398
0.00604172215908116
0.006041722192587251
0.006041722245360035
0.006041722242524113
0.006041722263149885
0.006041722307584229
0.006041722341898961
0.006041722340039028
0.006041722338639796
0.006041722338023589
0.006041722419473186
0.006041722528978412
0.006041722756211625
0.006041722956454532
0.006041723145329322
0.006041723418828158
0.006041723636153346
0.006041723888281448
0.006041724055871898
0.006041724093345624
0.006041724106652645
0.006041724042758815
0.006041723989314507
0.006041723809891357
0.006041723690997424
0.006041723481212294
0.006041723341779658
0.006061740362214813
0.006061740101362267
0.006061739988218421
0.006061739757427404
0.00606173959111382
0.006061739398644297
0.006061739184791638
0.006061739064259854
0.006061738928119818
0.006061738925894572
0.006061738938210545
0.006061738992190513
0.006061739089071149
0.006061739193043263
0.006061739284901345
0.006061739371115957
0.006061739367862224
0.006061739395425889
0.00606173941805797
0.006061739442741027
0.006061739418283983
0.006061739404740606
0.006061739367760372
0.006061739372800881
0.006061739351266279
0.006061739346036326
0.006061739338987518
0.006061739404053382
0.006061739507577778
0.006061739742144175
0.006061739967477233
0.006061740162227562
0.006061740430697736
0.006061740671372979
0.006061740925528086
0.006061741138410679
0.006061741210516012
0.006061741253938709
0.006061741222385506
0.006061741191405027
0.006061741049917838
0.006061740940521068
0.006061740748570892
0.006061740580044047
0.006042179459753693
0.00604217919727627
0.006042179122090771
0.006042178940672402
0.006042178782053649
0.006042178632223834
0.006042178355818902
0.006042178233644596
0.006042178058011383
0.006042178042161623
0.006042178048338732
0.006042178099814336
0.00604217818063591
0.006042178311429026
0.006042178411705517
0.006042178515485637
0.006042178502734051
0.0060421785113784
0.006042178525642271
0.006042178532589104
0.006042178478396077
0.00604217843576026
0.006042178307697338
0.006042178290752584
0.006042178240121071
0.006042178234707547
0.006042178220886586
0.006042178276690648
0.00604217837839439
0.00604217862543908
0.006042178875782254
0.006042179071029859
0.006042179314646079
0.006042179582282604
0.006042179813011787
0.00604218006622011
0.006042180164700897
0.006042180241273144
0.006042180231971001
0.00604218022025002
0.006042180108286953
0.006042180011821626
0.006042179845938717
0.006042179641710681
0.00597397977582332
0.005973979547631246
0.005973979521846582
0.005973979401437197
0.005973979251138433
0.005973979135070966
0.005973978779841492
0.005973978649849196
0.005973978424243115
0.005973978390260815
0.005973978380877788
0.005973978431062133
0.00597397849252872
0.005973978652956023
0.005973978767561678
0.005973978897813736
0.005973978871706461
0.005973978877624565
0.005973978884714767
0.005973978879315714
0.005973978798338222
0.005973978729695887
0.005973978506875992
0.005973978476153169
0.005973978406244793
0.005973978405627118
0.005973978391900741
0.005973978444101492
0.005973978550634232
0.005973978818055045
0.005973979086830313
0.005973979279832756
0.005973979483412512
0.005973979783902696
0.00597397996022826
0.005973980245032011
0.005973980354062712
0.005973980464026456
0.00597398047134802
0.005973980471236052
0.005973980375832026
0.00597398029629601
0.00597398016024287
0.005973979916137078
0.005848000537122919
0.005848000380108897
0.005848000403946331
0.005848000342364056
0.005848000205736711
0.005848000101705265
0.005847999653957428
0.005847999498780006
0.005847999210300529
0.005847999152517393
0.005847999123590413
0.005847999171755679
0.005847999217395589
0.005847999396636741
0.005847999535379241
0.005847999714116911
0.005847999676786966
0.005847999695348848
0.005847999702202824
0.005847999692976187
0.005847999604059561
0.005847999512362896
0.005847999194210682
0.005847999164272718
0.005847999092081279
0.005847999106041146
0.005847999096359675
0.005847999153731735
0.005847999268488507
0.00584799956732686
0.005847999852256959
0.005848000026783656
0.005848000187867011
0.00584800051434646
0.005848000626060055
0.005848000907491054
0.0058480010112228
0.005848001151779886
0.005848001169365137
0.005848001175436706
0.005848001083592956
0.005848001023048823
0.005848000912447407
0.005848000636100798
0.005654443444253427
0.005654443370136365
0.005654443485455657
0.005654443455094854
0.005654443326210444
0.005654443183525915
0.005654442603361379
0.005654442412605641
0.005654442065468589
0.005654441969659406
0.005654441921493732
0.005654441967963839
0.005654442005187964
0.005654442210984157
0.005654442387440894
0.005654442643545711
0.005654442596885657
0.005654442656722818
0.005654442672660631
0.005654442664699968
0.005654442590791353
0.005654442479098308
0.00565444207516833
0.005654442056264119
0.005654442003482443
0.005654442054460293
0.005654442055090178
0.005654442115409841
0.005654442239795322
0.005654442577361854
0.005654442865000152
0.005654443003683458
0.005654443145403009
0.005654443475333958
0.005654443520305097
0.005654443764309547
0.005654443836377559
0.005654444002821358
0.005654444022783593
0.005654444028554406
0.00565444392868187
0.005654443889296129
0.005654443790981285
0.005654443496182054
0.005382219353410066
0.005382219350615144
0.005382219583108107
0.005382219562533792
0.005382219415584629
0.005382219187484999
0.005382218393273212
0.005382218167961123
0.005382217788403761
0.005382217626622561
0.005382217582795299
0.005382217632130664
0.005382217679960621
0.005382217948884379
0.005382218166971434
0.005382218565088537
0.005382218513491052
0.005382218639746431
0.005382218661861018
0.005382218667513092
0.00538221861726565
0.005382218495265394
0.00538221799674336
0.005382218016334998