/*--------------------------------*- C++ -*----------------------------------*\
| =========                 |                                                 |
| \\      /  F ield         | OpenFOAM: The Open Source CFD Toolbox           |
|  \\    /   O peration     | Version:  v1812                                 |
|   \\  /    A nd           | Web:      www.OpenFOAM.com                      |
|    \\/     M anipulation  |                                                 |
\*---------------------------------------------------------------------------*/
FoamFile
{
    version     2.0;
    format      ascii;
    class       volScalarField;
    location    "3000";
    object      nuTilda_0;
}
// * * * * * * * * * * * * * * * * * * * * * * * * * * * * * * * * * * * * * //

dimensions      [0 2 -1 0 0 0 0];


internalField   nonuniform List<scalar> 
1892
(
0.0005025392223517297
0.0005025412507079106
0.0005025202681725726
0.0004985325015746142
0.0004984623125360299
0.0005024138352576461
0.0004985311059638756
0.0004984622897068604
0.0005024702714819324
0.0005025414582542191
0.000498533578166802
0.0004984613256131625
0.00049847578283762
0.0004984685070401168
0.0004984789867456434
0.0004984392920672593
0.0004984555764922669
0.0004984777090666391
0.0004984592631536493
0.0004984343033531591
0.0004984434561864682
0.0004984508050181599
0.0004984476782873451
0.0004984740932606361
0.0004984727106571195
0.0004984688347308634
0.0004984789241480491
0.0005024710511647861
0.0005025414111748182
0.0004985883368438163
0.0005024728043163831
0.0005025405900784587
0.0005025190925121339
0.0005025402359711972
0.0005025305383902699
0.0005025400936707809
0.0005025312561374749
0.0004985329755623891
0.000498462318743129
0.0005024702815934442
0.0005025405522074861
0.0005025202957573583
0.0004985325038220061
0.0004984622682424846
0.0005125764657929199
0.0005136391292892166
0.0005132219950805815
0.0004633060767741732
0.0004622988386830766
0.0005111445651469205
0.0004632701350329629
0.0004622987110668063
0.0005119066934503875
0.0005136097324595138
0.0004633260058628789
0.0004622847344293445
0.0004625091046252049
0.0004624995664343635
0.0004625330371994178
0.0004621160835894241
0.0004622516128876653
0.0004624944570589022
0.0004624671702723345
0.0004621186742645359
0.0004620802760765813
0.0004620354106143493
0.0004620344293231062
0.0004623439521518758
0.0004625027011677107
0.0004623689553403897
0.0004624700044000358
0.0005119284191074946
0.0005136092852101467
0.0004637987229634817
0.0005119834709843031
0.0005136255200606655
0.0005132243231270234
0.0005135969340551653
0.0005134108442323897
0.0005135300502740765
0.0005133815738374562
0.0004633126061979168
0.0004622992194412748
0.0005119077555508412
0.0005136240739008795
0.000513221937333174
0.0004633063106169757
0.0004622991538360183
0.0007738328769134016
0.0007748103727362096
0.0007744340846265483
0.0007487849521413153
0.0007469614301707279
0.0007725102085131905
0.0007486956505548038
0.0007469600461529051
0.0007731877603864983
0.0007747708560191931
0.0007488454994120047
0.000746913485795164
0.0007472921221561915
0.0007472545490606946
0.0007472655314830271
0.0007465916914441026
0.0007466207573870659
0.0007470091582837926
0.0007468553197961643
0.0007466424024259102
0.0007465118651715769
0.0007465735789309666
0.0007469706326732507
0.0007472129024996284
0.0007471005939190057
0.0007468226183513971
0.0007471603975610783
0.0007732212091586366
0.000774773024615928
0.000749635540315744
0.0007733233745109021
0.0007747923173369139
0.0007744258999473593
0.0007749127026582648
0.0007747748464321659
0.0007747467257761895
0.0007746054227927917
0.0007488048649235301
0.0007469636007827032
0.0007731896238083675
0.0007747886823598151
0.0007744319406791477
0.0007487867836932314
0.0007469631922093322
0.001067447194145308
0.001067976877245425
0.001067759183052429
0.001058245360251259
0.001057298395132654
0.001066649807120893
0.0010581861564187
0.001057296800590634
0.001067040604425038
0.001067946345628949
0.001058288813825994
0.001057275863524153
0.001057477374941075
0.001057460857300183
0.00105731925038213
0.001056955114037428
0.001057139500953025
0.00105736500143368
0.001057282169091872
0.001057237069639131
0.001057051468219075
0.001056943415222572
0.001057280922066934
0.001057327226523012
0.001057304099807998
0.001057131392749314
0.001057349956790709
0.001067059841268239
0.00106794928941301
0.00105871419304032
0.001067140596211449
0.001067962954613702
0.001067750949601912
0.001067908246741075
0.001067872926193979
0.00106785924764745
0.001067807570269552
0.001058256999496323
0.001057300880660559
0.001067042339805429
0.00106795880223393
0.001067756634077765
0.001058247094892369
0.001057299374270124
0.001413229044502596
0.001413451695989448
0.001413357364349787
0.001410386154001046
0.001409984369427552
0.001412859429649502
0.001410354503057035
0.001409982806695132
0.001413031383118164
0.001413435901431009
0.00141041447416024
0.001409970843869334
0.001410057268811568
0.001410050054539335
0.001409972517999626
0.001409827917494471
0.001409970766266424
0.001410048082502681
0.001409949223376134
0.001409960877474514
0.001409918656884675
0.001409770526924583
0.001409948446399027
0.00141003438265946
0.001410000612000751
0.001409859340620243
0.001409976581878893
0.001413036044599974
0.001413439176385652
0.001410596042040812
0.001413088521289707
0.001413444534879526
0.001413349054589331
0.001413366566495521
0.001413362424133852
0.001413347492268354
0.001413345658896925
0.001410388697904259
0.001409986366908989
0.001413032280267738
0.00141343990528404
0.001413354813152195
0.001410387455455908
0.001409984535722174
0.001891698843656241
0.001891786718988847
0.00189175544985177
0.00189100416098476
0.001890846906950092
0.001891561376736341
0.001890987844947191
0.001890845340716316
0.001891618331525529
0.00189178051953563
0.001891024773777066
0.001890833184707322
0.001890869140376645
0.001890852123526119
0.001890858425002212
0.001890838997294892
0.001890878366960159
0.001890885376490228
0.001890832777568583
0.001890796210932257
0.001890825315005052
0.001890766262855083
0.001890826514229114
0.001890870846244595
0.001890822583292533
0.00189078349391528
0.00189084138021486
0.001891613889830426
0.001891783323719918
0.001891079621405484
0.001891651775633268
0.001891783881697283
0.00189174770168228
0.001891732619619968
0.001891733983805095
0.001891720011271065
0.001891722264244052
0.001890996489033509
0.00189084591388007
0.001891616791214368
0.001891779250626003
0.001891752568834429
0.001891004907390887
0.00189084679937964
0.002535669907860886
0.002535700183046066
0.002535693718872959
0.00253555628248383
0.002535506209453282
0.002535635365629402
0.002535550274069586
0.002535504722690013
0.00253564674336404
0.002535698171945681
0.002535568043194971
0.002535499501307307
0.002535505269102693
0.002535494985082719
0.002535510715022558
0.002535511709733505
0.002535518466959075
0.002535517209728631
0.002535508453882597
0.002535490106506965
0.002535502447021547
0.002535483240506434
0.002535501444767096
0.002535511994951931
0.002535479975409473
0.002535482173801611
0.002535500225849243
0.002535640983595213
0.002535700131725568
0.002535573383204787
0.002535662759430991
0.002535699380063608
0.002535689183287276
0.002535678284682414
0.002535679221224645
0.002535676397791514
0.002535673666730651
0.002535545971990837
0.002535501189684032
0.002535641536972133
0.002535694801105731
0.002535690533447671
0.002535555715536529
0.002535505822658609
0.003261742816312266
0.003261748914066955
0.003261748641765111
0.003261729034365394
0.003261719087993176
0.003261735586153793
0.00326172806325414
0.003261717768191487
0.003261738359370619
0.003261748224931957
0.003261733947135344
0.003261716995684251
0.003261715092017322
0.003261712803329847
0.00326172083234798
0.003261725678267611
0.003261726437188594
0.003261722178276647
0.003261722007813643
0.003261716963946132
0.003261721709345098
0.003261718677252202
0.003261720801282425
0.003261721694500121
0.003261717011818301
0.003261715536653129
0.003261716667816827
0.003261737538497463
0.003261751197977598
0.003261733914885193
0.003261744732148101
0.003261749807271237
0.003261747648575137
0.003261741584344825
0.00326174145901569
0.003261741491691854
0.003261736878221563
0.003261720770902963
0.003261712949065433
0.003261731763837576
0.00326174423302788
0.003261744286611706
0.003261727340681487
0.003261718591073747
0.00395668471683088
0.003956685122491546
0.003956685554756791
0.003956682399626826
0.003956680897857175
0.003956682227530743
0.003956681903909989
0.003956679877961876
0.003956683674974048
0.003956684312028706
0.003956683443292834
0.003956681000278878
0.003956679440506738
0.003956678933955188
0.003956682021492751
0.00395668468488831
0.003956684732138214
0.003956683516171008
0.003956684260796912
0.003956682657608646
0.003956685139120251
0.003956685333523086
0.003956685233638222
0.00395668503742713
0.003956683605864225
0.003956684142055004
0.00395668580686186
0.003956688116255304
0.003956690195102967
0.00395668730593936
0.00395668816851104
0.003956687765599379
0.003956687421248116
0.003956684469996929
0.00395668286279989
0.003956682269235501
0.003956680323963906
0.003956677771134333
0.003956676580194164
0.003956678561851044
0.003956680758322767
0.003956681757534637
0.003956680529484843
0.003956680886605076
0.004546992704873866
0.004546992398582249
0.004546992473796843
0.004546991261810687
0.004546990691210702
0.004546990472052486
0.00454699036994049
0.004546989791508809
0.004546990768113954
0.004546990932362513
0.004546990844181163
0.004546991217300892
0.00454699089173146
0.004546990830890285
0.004546992075879259
0.004546993025716189
0.004546993193502789
0.00454699315510173
0.004546994362617682
0.004546994008111731
0.004546995792507726
0.00454699716881968
0.004546996858078892
0.004546996469130514
0.004546995727198055
0.004546995784402221
0.004546998101517491
0.004546998929014293
0.004546999079893813
0.004546997677442752
0.004546997080673761
0.004546995935718032
0.004546995389562509
0.00454699430265
0.004546992708870535
0.004546990581886273
0.004546989795742383
0.004546988690213728
0.004546988418842418
0.004546988646842306
0.004546988716656162
0.004546989577053862
0.004546990554371231
0.004546991442397679
0.00501809730281931
0.005018097023674136
0.005018096783550105
0.005018095916122107
0.005018095215414315
0.005018094903826902
0.005018094725488488
0.005018094454260539
0.005018094902030722
0.005018095115866384
0.005018095078512635
0.005018095740156372
0.005018095954176949
0.00501809603657369
0.005018096726433406
0.005018097090918135
0.005018097363119847
0.005018097671231062
0.005018098879010338
0.00501809902554927
0.005018100565787889
0.005018102315691543
0.005018102254957312
0.005018101902459813
0.005018101413503377
0.005018101346175884
0.005018102940745842
0.00501810390809729
0.005018103968353844
0.005018103147573104
0.005018102352133638
0.005018101296303731
0.005018100684942696
0.005018100101225092
0.005018098727982846
0.005018096030931762
0.005018095139857752
0.005018094457635437
0.005018094345841835
0.005018094450891431
0.005018094304146901
0.005018094872002829
0.005018095982121723
0.005018096622598659
0.00538209497911295
0.005382094759541264
0.005382094359718264
0.005382093621436474
0.005382092879149395
0.005382092608822441
0.005382092382882763
0.005382092268858244
0.005382092542476649
0.005382092810437366
0.005382092830225789
0.00538209338570537
0.005382093811371929
0.005382093940991796
0.005382094444242408
0.005382094684739932
0.005382094975542694
0.005382095467838871
0.005382096479714008
0.005382096836619676
0.005382098164445181
0.005382099883598575
0.005382100016412668
0.005382099835809095
0.005382099548865847
0.005382099462855876
0.005382100341831343
0.005382101180300213
0.005382101258855699
0.005382100852467531
0.005382100244165885
0.005382099430539941
0.005382098902366802
0.005382098420847221
0.005382097193480315
0.005382094606702051
0.005382093471565605
0.005382092912255313
0.005382092832804302
0.005382092959648922
0.00538209283493935
0.005382093282530568
0.00538209416765691
0.005382094624964702
0.005654308054565917
0.005654307856528515
0.005654307422175217
0.005654306783289297
0.005654306117597795
0.005654305890872117
0.005654305706651541
0.005654305653137264
0.00565430585932106
0.005654306154702588
0.005654306239270705
0.005654306715000132
0.005654307182915081
0.005654307336921729
0.005654307783638029
0.005654308009673908
0.00565430832729602
0.005654308903712933
0.005654309725426465
0.005654310161201742
0.005654311252842171
0.005654312737430587
0.00565431300574558
0.005654312958750652
0.005654312832075621
0.005654312732377867
0.005654313172595671
0.005654313699782321
0.005654313746135976
0.005654313555691108
0.005654313171383883
0.005654312580942905
0.00565431217394632
0.005654311723500279
0.005654310622546071
0.005654308439704431
0.005654307219052679
0.005654306657722306
0.005654306557046012
0.005654306662436248
0.005654306591928878
0.0056543069418082
0.005654307546350274
0.005654307825843143
0.005847856832103014
0.005847856609653796
0.005847856222416823
0.005847855693732696
0.0058478551656484
0.005847854985098613
0.005847854848430424
0.005847854849642314
0.005847855034764626
0.005847855340879065
0.005847855480470474
0.005847855930705423
0.005847856388481322
0.005847856570986936
0.005847857008975604
0.005847857242735637
0.005847857612150223
0.005847858168267705
0.005847858844730835
0.005847859298340169
0.005847860141640075
0.005847861306223807
0.005847861644529879
0.005847861673172946
0.005847861651524415
0.005847861543686125
0.00584786173577593
0.0058478619529792
0.005847861941841149
0.005847861822730791
0.005847861578338202
0.005847861149327425
0.005847860840336096
0.005847860415526129
0.005847859455612924
0.005847857747759195
0.005847856605650218
0.005847856026590477
0.005847855895884387
0.005847855957735822
0.00584785590146821
0.005847856137164765
0.005847856504469983
0.00584785666554687
0.005973830648655211
0.005973830439711315
0.005973830137998896
0.005973829731193234
0.005973829355395697
0.005973829238791547
0.005973829151769612
0.005973829185809155
0.00597382938031725
0.005973829685569188
0.00597382987863833
0.005973830331108425
0.005973830767018741
0.005973830996794671
0.005973831439536248
0.005973831689105123
0.005973832103157798
0.005973832592207212
0.005973833154557863
0.005973833584402882
0.005973834200390118
0.005973835040626477
0.005973835375001853
0.005973835433472493
0.005973835453446472
0.005973835340250204
0.005973835388578822
0.005973835369582375
0.005973835296172038
0.005973835173979958
0.005973834995568817
0.005973834661596109
0.005973834414170033
0.00597383399958942
0.005973833207014953
0.005973831928862585
0.00597383096695446
0.005973830414513825
0.005973830241456031
0.005973830269126254
0.00597383020476776
0.005973830318830655
0.005973830494642922
0.0059738305666973
0.006042028252756819
0.0060420280624849
0.006042027857580672
0.006042027564567046
0.006042027330960501
0.006042027270707447
0.006042027233372612
0.00604202730071008
0.006042027523194592
0.0060420278146296
0.006042028066082429
0.006042028520899018
0.006042028938146714
0.006042029237303751
0.006042029660614338
0.006042029952208552
0.006042030384095281
0.006042030802170549
0.006042031271627966
0.00604203164375334
0.006042032085322607
0.006042032620878404
0.006042032896142757
0.00604203296324265
0.00604203297493725
0.006042032834416276
0.006042032791974862
0.006042032610462936
0.006042032481647505
0.006042032333751965
0.006042032187799533
0.006042031899724558
0.006042031681352878
0.006042031268332822
0.006042030637195162
0.006042029717257315
0.006042028966968269
0.006042028484859754
0.00604202828798773
0.006042028273064957
0.006042028204333721
0.006042028227433684
0.006042028253976611
0.00604202825991113
0.006061590998013753
0.006061590819451636
0.006061590693465951
0.006061590503626377
0.006061590383129182
0.006061590383997448
0.006061590370817935
0.006061590491145209
0.006061590729596262
0.006061591004098898
0.006061591305898539
0.006061591759922593
0.006061592165307708
0.006061592529638377
0.006061592935917412
0.006061593271521871
0.00606159370356017
0.006061594059791509
0.006061594451867312
0.00606159475043901
0.006061595059873355
0.006061595351122578
0.006061595524305785
0.006061595570826462
0.006061595560610066
0.006061595401923405
0.006061595271167682
0.006061594984760085
0.00606159482470872
0.006061594656478497
0.00606159452180876
0.006061594251366874
0.006061594036887667
0.006061593626437043
0.006061593135179471
0.006061592491116309
0.006061591950707051
0.006061591562732714
0.0060615913854749
0.006061591320024075
0.00606159122877188
0.006061591199577057
0.006061591145979761
0.006061591065678655
0.006041580254786016
0.006041580090837122
0.006041580018849581
0.006041579912604368
0.006041579867581626
0.006041579918585616
0.006041579935990114
0.006041580097312233
0.006041580340776991
0.006041580597640357
0.006041580935775184
0.006041581385184228
0.00604158177967364
0.006041582194030922
0.006041582587452718
0.006041582957341172
0.006041583382135668
0.006041583687923032
0.006041584018291641
0.006041584241668685
0.006041584450251849
0.006041584568876255
0.006041584628900067
0.006041584639352362
0.006041584594398165
0.006041584424803834
0.006041584229861743
0.006041583878399541
0.006041583694307155
0.006041583515742271
0.006041583385626499
0.006041583125405315
0.006041582901152008
0.006041582510110366
0.006041582127974459
0.006041581685681773
0.006041581326290423
0.006041581038912511
0.006041580894691241
0.006041580823423989
0.00604158070608729
0.006041580638586903
0.006041580523524295
0.006041580358838198
0.005991607082470926
0.005991606936549049
0.005991606899309945
0.005991606848214129
0.005991606836065609
0.005991606928317986
0.005991606968340473
0.005991607149427524
0.005991607393031605
0.005991607628557785
0.005991607979729819
0.005991608420110281
0.005991608799754166
0.005991609241718081
0.005991609626769693
0.005991610013247245
0.005991610428922167
0.005991610697657024
0.005991610979413743
0.005991611141905575
0.005991611268605321
0.005991611283301682
0.005991611232974047
0.005991611220338151
0.005991611134485632
0.005991610956990799
0.005991610729968392
0.005991610341686791
0.005991610141620366
0.005991609958699843
0.005991609838670506
0.00599160959411431
0.005991609365737626
0.005991609010760894
0.005991608708904556
0.005991608409607388
0.005991608189158006
0.005991607993681592
0.005991607889509479
0.005991607829362226
0.005991607696029996
0.005991607608872613
0.005991607440577235
0.005991607219574511
0.005922715273045944
0.005922715138163785
0.005922715111236309
0.005922715075743935
0.0059227150713902
0.005922715185188794
0.005922715232765788
0.005922715413517143
0.005922715648719996
0.005922715856385888
0.00592271619640595
0.005922716620793516
0.005922716972817542
0.005922717419920225
0.005922717790417175
0.005922718171571672
0.00592271857914474
0.005922718818127345
0.005922719068085752
0.005922719188167375
0.00592271925763164
0.005922719236886424
0.005922719092417297
0.005922719053280486
0.005922718947704272
0.005922718773518656
0.005922718547497553
0.005922718142912133
0.005922717942016226
0.005922717757947753
0.005922717657413828
0.005922717442071389
0.005922717232787313
0.005922716924450096
0.005922716685864519
0.005922716487324496
0.005922716362254498
0.00592271624085431
0.005922716173968345
0.005922716130596462
0.005922715987213885
0.005922715891341153
0.005922715696520113
0.005922715435936339
0.00584933053153805
0.005849330372289779
0.005849330338161731
0.005849330299829846
0.005849330272701811
0.005849330380449183
0.005849330408711102
0.005849330571858801
0.005849330780552922
0.00584933095207291
0.005849331256335373
0.005849331649568677
0.005849331955736856
0.005849332382674032
0.005849332721730992
0.00584933307113473
0.00584933346346545
0.005849333667452751
0.005849333898220013
0.005849333993738532
0.005849334037664192
0.005849334012567794
0.005849333815812022
0.005849333779829009
0.005849333677848537
0.00584933352100407
0.005849333322435419
0.005849332927710948
0.005849332760755312
0.005849332587856551
0.005849332521777903
0.005849332354880663
0.005849332201754258
0.005849331956925021
0.005849331780238175
0.005849331656262897
0.005849331588927677
0.00584933151182264
0.005849331472457236
0.00584933144527409
0.005849331286480345
0.005849331188344542
0.005849330981701161
0.005849330701386418
0.005805872893717548
0.005805872759710647
0.005805872661891768
0.005805872519900088
0.005805872418893245
0.005805872369795098
0.005805872365486593
0.005805872413246658
0.005805872509884887
0.005805872643762167
0.005805872825853266
0.00580587308356937
0.005805873332799959
0.005805873586645582
0.005805873819222299
0.005805874046284312
0.005805874252312902
0.005805874435194058
0.005805874572165293
0.005805874652674594
0.005805874702356499
0.005805874751414198
0.005805874740628097
0.005805874728312577
0.005805874663914143
0.005805874562441886
0.005805874461979964
0.005805874372263852
0.005805874329618865
0.005805874322513441
0.005805874323417893
0.005805874324970693
0.005805874312132794
0.005805874259076017
0.005805874210789055
0.00580587414337626
0.005805874063532148
0.005805873980940991
0.005805873900315909
0.005805873809429104
0.005805873609085586
0.005805873483142619
0.005805873260712613
0.005805873071330562
0.00584941075300867
0.005849410625497276
0.00584941046113134
0.00584941019825974
0.005849410039557113
0.005849409791402135
0.005849409762535419
0.005849409696632976
0.005849409696415872
0.005849409773424192
0.005849409846158556
0.005849409978703355
0.005849410170733316
0.00584941026529987
0.005849410398448389
0.005849410507434698
0.005849410557079616
0.005849410705887581
0.005849410767004518
0.005849410843395789
0.005849410898971143
0.005849411026624116
0.005849411201047153
0.005849411236513057
0.005849411224793101
0.005849411188535093
0.005849411194327379
0.005849411331324091
0.005849411411827207
0.005849411574368598
0.005849411657514732
0.005849411827007355
0.00584941195952877
0.005849412069469042
0.005849412145179789
0.005849412128457478
0.005849412039391737
0.005849411944298759
0.005849411820052726
0.00584941167964956
0.005849411435791547
0.005849411296265099
0.005849411048942116
0.005849410945455006
0.00592282606218854
0.005922825921984837
0.005922825740805556
0.005922825465605242
0.005922825275586262
0.005922825004490099
0.005922824943543531
0.005922824864851392
0.005922824845918652
0.005922824884827664
0.005922824931489422
0.005922825031142228
0.005922825186017122
0.005922825262850223
0.005922825360355048
0.005922825439793111
0.00592282547765152
0.005922825581378317
0.005922825632971929
0.005922825702089863
0.005922825737462831
0.005922825849389129
0.005922826004522633
0.005922826052753771
0.005922826054772121
0.005922826043180117
0.005922826059365153
0.005922826201932118
0.005922826312286376
0.005922826510610119
0.005922826637965492
0.005922826854319242
0.005922827052881505
0.005922827218887366
0.005922827355777876
0.00592282737148687
0.005922827324654218
0.005922827247273651
0.005922827139243967
0.005922827017750528
0.005922826766017712
0.005922826632926714
0.005922826381586958
0.005922826266830594
0.005991737556434043
0.005991737398197578
0.005991737217154497
0.005991736939308281
0.005991736742122916
0.005991736468419389
0.005991736379976319
0.005991736291877801
0.00599173626374263
0.005991736281567346
0.005991736312995172
0.005991736398589473
0.005991736529014213
0.005991736608260919
0.005991736689199856
0.005991736753895941
0.005991736790157121
0.005991736864604674
0.005991736901097162
0.005991736958106091
0.005991736972371465
0.005991737048518172
0.005991737159162461
0.00599173720081521
0.005991737201119106
0.00599173720000959
0.005991737215264412
0.005991737349342368
0.005991737464198153
0.005991737686183458
0.005991737845459246
0.005991738085426941
0.00599173832147472
0.005991738519773514
0.005991738707955062
0.005991738763039572
0.005991738750393816
0.005991738704602674
0.005991738618347652
0.005991738530305601
0.005991738283040778
0.005991738159906695
0.00599173791230211
0.005991737780351005
0.006041722990339815
0.006041722812344808
0.006041722648639791
0.006041722374522523
0.006041722187440398
0.006041721922373017
0.006041721800575218
0.006041721710228622
0.006041721672065726
0.006041721676248444
0.006041721697647959
0.0060417217791014
0.006041721894815942
0.006041721987043933
0.006041722062906675
0.00604172211655236
0.006041722149654477
0.006041722205828835
0.006041722229610315
0.006041722265329416
0.006041722257352851
0.006041722287866488
0.006041722333929122
0.006041722357516133
0.006041722348091866
0.006041722348787723
0.006041722359012033
0.006041722474216723
0.006041722584844861
0.006041722827542438
0.00604172301164849
0.006041723266118086
0.006041723517594411
0.006041723737861092
0.006041723960513044
0.006041724066767202
0.006041724083929854
0.006041724070858731
0.006041724012608722
0.006041723959057202
0.006041723731873647
0.00604172361518988
0.006041723376894216
0.006041723218668447
0.006061740240798443
0.006061740051232991
0.006061739918727112
0.006061739663936424
0.006061739495472612
0.006061739249942112
0.00606173907861448
0.006061738991009644
0.006061738931593743
0.006061738927102455
0.006061738941681938
0.006061739023552611
0.006061739129668696
0.006061739241636834
0.006061739321600923
0.00606173937027517
0.006061739400619822
0.006061739439398383
0.00606173944768747
0.006061739455464041
0.006061739423102244
0.006061739409268704
0.006061739374637476
0.00606173937587859
0.006061739348201321
0.006061739348740019
0.006061739353174538
0.006061739449958673
0.006061739555791618
0.006061739819182775
0.006061740024259995
0.006061740285480936
0.006061740532992605
0.006061740772353393
0.006061741008290174
0.006061741167418311
0.006061741222282341
0.006061741233889613
0.006061741203880357
0.006061741178080175
0.006061740983553614
0.00606174087338796
0.006061740647812246
0.006061740457899662
0.006042179331005984
0.006042179154523614
0.006042179066449037
0.006042178856605493
0.006042178699809561
0.00604217847701276
0.006042178235652022
0.006042178148900021
0.006042178063102744
0.006042178048069798
0.006042178051704413
0.006042178134416111
0.006042178229457357
0.006042178369354416
0.006042178457711418
0.006042178503700283
0.006042178527751432
0.006042178564313023
0.00604217855413973
0.00604217853890386
0.006042178473380298
0.006042178422364384
0.006042178289102072
0.006042178272704236
0.006042178223394447
0.006042178226084818
0.006042178226314619
0.006042178310105665
0.006042178416477075
0.00604217870343021
0.006042178928398457
0.006042179192200901
0.006042179417011902
0.006042179674281316
0.006042179898372298
0.006042180109168876
0.00604218019386746
0.006042180236001718
0.00604218022322022
0.006042180217588788
0.006042180053513578
0.006042179956275989
0.006042179748003438
0.006042179517326805
0.005973979650160732
0.005973979518491927
0.005973979479041006
0.005973979330336676
0.005973979182094449
0.005973978981552628
0.005973978647330986
0.005973978552611644
0.005973978427320079
0.005973978399913805
0.005973978388254911
0.005973978470237086
0.005973978549964622
0.005973978724903625
0.005973978825955678
0.005973978881194293
0.005973978896681606
0.005973978931042397
0.005973978908045185
0.005973978875727544
0.005973978784369415
0.005973978699421006
0.005973978461379106
0.005973978437191239
0.00597397837582231
0.005973978384221926
0.005973978385158515
0.005973978465261371
0.005973978579194131
0.005973978895874061
0.005973979139972349
0.005973979395470439
0.005973979574337227
0.005973979859696549
0.005973980037128064
0.005973980298775005
0.005973980397860607
0.005973980469278374
0.005973980465630502
0.005973980468826561
0.005973980330827803
0.005973980253190927
0.005973980064420097
0.005973979792598618
0.005848000411759784
0.005848000374870929
0.005848000378088965
0.005848000284514062
0.005848000153046045
0.005847999943376108
0.005847999510594708
0.005847999385404079
0.005847999213236602
0.005847999167953459
0.005847999141090609
0.005847999218824876
0.005847999282292289
0.005847999485158034
0.005847999616486331
0.005847999690813769
0.005847999699469599
0.005847999754822597
0.005847999722436057
0.005847999682506965
0.005847999583456108
0.005847999466607795
0.005847999125787881
0.005847999107083591
0.005847999048881484
0.005847999073123411
0.005847999079522223
0.005847999162851412
0.005847999290853422
0.005847999646998247
0.005847999902342985
0.005848000139920417
0.005848000261311329
0.005848000568751278
0.005848000678381132
0.005848000967747835
0.005848001065735049
0.005848001164282425
0.005848001159647274
0.005848001167213773
0.005848001044321622
0.005848000993702411
0.00584800081925122
0.005848000514993947
0.005654443331128003
0.005654443367100801
0.005654443468539432
0.005654443413600624
0.005654443283150956
0.005654443031744858
0.005654442440723161
0.005654442283715568
0.005654442058297077
0.005654441984717709
0.005654441950253835
0.005654442025687577
0.005654442075993378
0.005654442311779397
0.0056544424939459
0.005654442623550505
0.005654442634135337
0.005654442709459508
0.005654442680795603
0.00565444264984902
0.005654442568507651
0.005654442419979155
0.005654441984850133
0.00565444199200598
0.005654441952505496
0.005654442012238674
0.005654442025613749
0.005654442118791634
0.005654442260538309
0.005654442666757143
0.005654442927183914
0.005654443119213978
0.005654443189528251
0.005654443493233558
0.005654443541934449
0.005654443814795032
0.005654443891379632
0.00565444401514811
0.005654444002374297
0.005654444009091528
0.005654443892753847
0.005654443875911756
0.005654443698831922
0.005654443391330993
0.005382219213525929
0.005382219372143476
0.005382219578558221
0.005382219543407904
0.005382219387563775
0.005382219024644114
0.00538221820324017
0.005382218020292392
0.005382217766596172
0.005382217648596752
0.005382217620778235
0.005382217702977712
0.005382217758064735
0.00538221805544344
0.005382218312042175
0.00538221853997029
0.005382218553665532
0.005382218693553962
0.005382218656010422
0.005382218643517914
0.005382218607856297
0.005382218422262311
0.005382217892499912
0.005382217959616262