/*--------------------------------*- C++ -*----------------------------------*\
| =========                 |                                                 |
| \\      /  F ield         | OpenFOAM: The Open Source CFD Toolbox           |
|  \\    /   O peration     | Version:  v1812                                 |
|   \\  /    A nd           | Web:      www.OpenFOAM.com                      |
|    \\/     M anipulation  |                                                 |
\*---------------------------------------------------------------------------*/
FoamFile
{
    version     2.0;
    format      ascii;
    class       volScalarField;
    location    "3000";
    object      p;
}
// * * * * * * * * * * * * * * * * * * * * * * * * * * * * * * * * * * * * * //

dimensions      [0 2 -2 0 0 0 0];


internalField   nonuniform List<scalar> 
1892
(
3.209447125793242e-08
-1.713121592491771e-07
-4.540403482676225e-07
-4.134254086366623e-07
6.643335263008441e-08
5.074965308515533e-08
-2.421486824169661e-07
2.227320636843637e-08
2.299537016343139e-07
-4.253879479148118e-07
-4.348089731717525e-07
-4.567588065009418e-07
-5.889369048669751e-07
-3.129511656776015e-07
-2.382416473118524e-07
-3.469523521941874e-08
8.242525547632731e-08
-3.040920211092234e-08
-4.469968527103199e-07
-4.446181373937229e-07
-2.099385010009465e-07
-9.263927218583068e-09
-3.510690492695101e-07
-2.834750190963874e-07
4.587995666286615e-07
-2.364362990018472e-07
-6.564654634657457e-07
-1.428606593718553e-07
-4.023054499141903e-07
-1.087845608497387e-07
5.30640203977048e-07
-8.617957272075839e-08
-2.876254418431252e-07
-2.457672343284722e-07
-9.536545852637981e-08
-6.090174683921783e-07
-1.067640479474017e-06
-4.823621766437961e-07
2.772755682602151e-07
5.517587027314936e-07
1.190042772031506e-07
-5.038527243991637e-07
-4.261694079479319e-07
1.067938525842977e-07
1.309216706315584e-08
-1.725277484981487e-07
-4.168709715483183e-07
-3.63523476850815e-07
2.740875180533693e-08
4.131733744523268e-08
-1.929250252023945e-07
-1.489207929344722e-08
1.802450673995933e-07
-3.881230854022402e-07
-3.868588744332649e-07
-4.501290910768456e-07
-5.923871249824551e-07
-3.146255979382405e-07
-2.340499544523438e-07
-2.874324995705195e-08
8.22392660600114e-08
-2.834531922529761e-08
-4.463465776817047e-07
-4.478121559922311e-07
-2.139730039213873e-07
-1.306989085272635e-08
-3.484434411875039e-07
-2.821621074763597e-07
4.601022471215669e-07
-2.309018387296461e-07
-7.029583847416107e-07
-1.90920317780785e-07
-3.689423932206983e-07
-1.085214858475771e-07
4.931078560488017e-07
-8.645122069982519e-08
-2.885171639146027e-07
-2.440396843570318e-07
-9.291252283451665e-08
-6.102275054103083e-07
-1.030463436318711e-06
-4.346500748262387e-07
2.385724170982492e-07
5.035432394318505e-07
1.164755411403585e-07
-4.654635309817146e-07
-3.762871409201203e-07
6.972804778945985e-08
-6.23148261742108e-08
-1.826876598007818e-07
-3.358636112188489e-07
-2.623330143691025e-07
-4.418765271847903e-08
2.719832625236226e-08
-1.053449271212725e-07
-8.516879099106647e-08
7.815866071933899e-08
-3.178843868434024e-07
-2.924017274382327e-07
-4.42246895980084e-07
-5.95440357442519e-07
-3.174549082598695e-07
-2.246753297641813e-07
-1.62994693718196e-08
8.164805533753096e-08
-2.656353402571052e-08
-4.463648019102561e-07
-4.526468077644726e-07
-2.184957942577174e-07
-2.42684676310903e-08
-3.479250353064433e-07
-2.733520420233121e-07
4.626769357314898e-07
-2.242617551435567e-07
-7.852976996635149e-07
-2.906014527721129e-07
-3.007133198209807e-07
-9.598847178851969e-08
4.083521299437965e-07
-9.525632170509586e-08
-2.901715873272635e-07
-2.434060888554417e-07
-9.263428309356429e-08
-6.14834600215343e-07
-9.460736253243501e-07
-3.342770537989161e-07
1.663521704586794e-07
4.060296762511203e-07
1.010854544177856e-07
-3.833886755367796e-07
-2.750992508694162e-07
-3.643467047314931e-09
-1.655678668178971e-07
-2.015276244988163e-07
-2.357047083345298e-07
-1.345937849481684e-07
-1.216159664983945e-07
9.006730428346622e-09
-6.795477856059128e-09
-1.629543694421825e-07
-5.196282786462489e-08
-2.395913318323548e-07
-1.816811114940604e-07
-4.334364340712388e-07
-5.945057545175012e-07
-3.215412280481206e-07
-2.052205532849632e-07
1.090092823952869e-09
7.153983485546976e-08
-2.628489890773924e-08
-4.331407969483487e-07
-4.521780618443933e-07
-2.280954648586128e-07
-4.922357339986197e-08
-3.524120823627551e-07
-2.557053004682682e-07
4.607262679293752e-07
-2.167742004725172e-07
-8.713264243008879e-07
-4.138947382064785e-07
-2.234448683645957e-07
-7.067551061421955e-08
2.979966853060601e-07
-1.13406260048539e-07
-2.946958669274846e-07
-2.436545647638212e-07
-9.591411881537604e-08
-6.251697709648074e-07
-8.347041798498627e-07
-2.027197516462648e-07
8.692441131058098e-08
2.824341945385968e-07
7.085253462452749e-08
-2.810672524679191e-07
-1.472677162561155e-07
-8.804397339803513e-08
-2.444818678075658e-07
-2.173561525650009e-07
-1.653815925780436e-07
-3.434764600654865e-08
-1.71134417189623e-07
-1.195582912032015e-08
6.593429333496587e-08
-2.129985007836064e-07
-1.543282744741124e-07
-1.862845308187549e-07
-1.093069787819631e-07
-4.253258550260772e-07
-5.842422692428397e-07
-3.227644057352825e-07
-1.784218198301221e-07
1.74764759520403e-08
4.550759761829965e-08
-3.160985139572801e-08
-4.008797794711693e-07
-4.376888391194114e-07
-2.409691128767031e-07
-8.59880544578279e-08
-3.623290946701567e-07
-2.370972690218651e-07
4.45986268799931e-07
-2.106406208633148e-07
-9.204057026167561e-07
-5.035438435256742e-07
-1.734926431416607e-07
-5.080227650262331e-08
2.127984143510939e-07
-1.289501779107206e-07
-3.016959560432092e-07
-2.421641791372413e-07
-1.01319801659046e-07
-6.389604048660192e-07
-7.45759972258307e-07
-9.424004843157731e-08
3.50196613618872e-08
1.841720111327045e-07
4.303864048787092e-08
-2.074953245420696e-07
-4.773817557855699e-08
-1.446434765009302e-07
-2.809011755681623e-07
-2.230182515311122e-07
-1.343373547007869e-07
2.057377564311756e-08
-1.86582764601769e-07
-3.034398530368719e-08
9.980501754120638e-08
-2.298830410584866e-07
-2.109972588591984e-07
-1.623650693327939e-07
-8.946426665636056e-08
-4.243319800155691e-07
-5.599546501118145e-07
-3.148907677077165e-07
-1.488321930959863e-07
2.972163880032076e-08
5.215516945425594e-09
-4.579624512402922e-08
-3.627338908324409e-07
-4.108298128161876e-07
-2.48534380946981e-07
-1.215835048989464e-07
-3.730465618084335e-07
-2.309278082496437e-07
4.126799096252274e-07
-2.046500164347051e-07
-9.21287232753165e-07
-5.382703261491923e-07
-1.551507587974841e-07
-4.206966662773402e-08
1.59060356379262e-07
-1.405495326891282e-07
-3.087069718116856e-07
-2.408616625805145e-07
-1.085798799128161e-07
-6.500477013038872e-07
-6.905280580129275e-07
-2.638511611297813e-08
1.628468485261901e-08
1.254700217101385e-07
2.423433565785436e-08
-1.706920206197513e-07
5.490825504460748e-09
-1.676901425705303e-07
-2.761412370492112e-07
-2.140861468851497e-07
-1.330622434738293e-07
2.938556504870419e-08
-1.749406445267011e-07
-4.244838741065135e-08
9.514175135051784e-08
-2.218852847327037e-07
-2.215151896932206e-07
-1.617392404745058e-07
-1.068404675252156e-07
-4.275805785321492e-07
-5.319014196269308e-07
-3.012877729634504e-07
-1.282527948282612e-07
3.495838706996854e-08
-3.107650868285718e-08
-6.400898009308115e-08
-3.382092061077882e-07
-3.861051973983781e-07
-2.519709899522346e-07
-1.405755581608333e-07
-3.690359745404501e-07
-2.433673513479852e-07
3.644013960941753e-07
-1.906008580498449e-07
-8.839863470785031e-07
-5.260652627918717e-07
-1.59536393821493e-07
-4.738584787525991e-08
1.281283553066166e-07
-1.467486946529066e-07
-3.087445430620952e-07
-2.479845321488763e-07
-1.20005354907842e-07
-6.388651663939975e-07
-6.630449781875898e-07
-8.226806639448276e-09
1.759525899628222e-08
1.018130209669689e-07
1.888244440003004e-08
-1.6055459506081e-07
1.121656538303841e-08
-1.663572983110575e-07
-2.523662548932597e-07
-1.940359156515795e-07
-1.400503733762645e-07
1.469706923072556e-08
-1.535015695585058e-07
-5.259156722104584e-08
7.112807239284141e-08
-2.057359447411406e-07
-2.09016016487624e-07
-1.715523978329111e-07
-1.337929182533182e-07
-4.18839897135338e-07
-5.05064020611555e-07
-2.936660873288979e-07
-1.275226400573961e-07
2.805067495778441e-08
-5.164528294089352e-08
-7.876822911339531e-08
-3.212435615186292e-07
-3.600051393687252e-07
-2.60781687701612e-07
-1.512404590916613e-07
-3.385468901126948e-07
-2.611636414873083e-07
2.9801252075525e-07
-1.721307668082336e-07
-8.263423730092609e-07
-4.973321103756141e-07
-1.720122103290461e-07
-6.37944348262888e-08
1.003657479334369e-07
-1.476057581177927e-07
-2.960947834501554e-07
-2.625704720053515e-07
-1.366583173365057e-07
-5.965416099306556e-07
-6.408187506201803e-07
-2.749610625097529e-08
1.55163947751628e-08
8.853323300471616e-08
2.174511807871704e-08
-1.57387423244316e-07
-7.757962430771764e-09
-1.570292733999292e-07
-2.273838641549192e-07
-1.715866833600011e-07
-1.436352149363579e-07
-3.700369421414696e-09
-1.327140427573396e-07
-6.368681329489096e-08
4.355248669390374e-08
-1.905458822904779e-07
-1.940626778648629e-07
-1.824513771389531e-07
-1.601037141481307e-07
-3.998849709749658e-07
-4.735605742540843e-07
-2.872132319539213e-07
-1.362739560604493e-07
9.971462646808108e-09
-6.927707205496573e-08
-9.127594046939707e-08
-3.05658774815401e-07
-3.323008074828895e-07
-2.670556059494763e-07
-1.597607643130925e-07
-2.923981621693038e-07
-2.753094641531e-07
2.122864233327702e-07
-1.621688520215214e-07
-7.570417644164328e-07
-4.65759936846027e-07
-1.825269039453312e-07
-8.344066415068361e-08
6.798735850372034e-08
-1.493410565113418e-07
-2.777578244039083e-07
-2.743569156272297e-07
-1.562579103154739e-07
-5.390151862528479e-07
-6.099652831353e-07
-6.064594654678244e-08
5.694479270818709e-09
7.233060021112804e-08
2.349711504842581e-08
-1.528663839553318e-07
-3.082848700674676e-08
-1.477038681857128e-07
-2.06212427613503e-07
-1.51730667092589e-07
-1.429801551481602e-07
-1.957876586176085e-08
-1.158097878786068e-07
-7.423096472878434e-08
1.814971816444374e-08
-1.786218689161694e-07
-1.826713064159891e-07
-1.912834957894618e-07
-1.820885937116672e-07
-3.79334988601881e-07
-4.41103312557468e-07
-2.796071965620145e-07
-1.464018483517737e-07
-1.201929825660913e-08
-8.706104507277778e-08
-1.028437412198727e-07
-2.899266776216259e-07
-3.075536113014851e-07
-2.668402397159516e-07
-1.667895705946378e-07
-2.488246977388504e-07
-2.869514062057456e-07
1.233107400918118e-07
-1.592833007482792e-07
-6.84258831793957e-07
-4.348856280069174e-07
-1.898954014725848e-07
-1.02596352099778e-07
3.445627139822085e-08
-1.532549629551147e-07
-2.607250002132248e-07
-2.811802683803574e-07
-1.744528049647362e-07
-4.812941691437389e-07
-5.741868899381692e-07
-9.364011852186382e-08
-7.077597941464441e-09
5.414506449354064e-08
2.15140727389217e-08
-1.469360335211814e-07
-5.103160441327939e-08
-1.401208315857856e-07
-1.892529748468992e-07
-1.355133030188436e-07
-1.394615494723067e-07
-3.204118956215992e-08
-1.030330986312966e-07
-8.324263385782792e-08
-3.83147189216206e-09
-1.700295803000753e-07
-1.75129704478432e-07
-1.97607780549651e-07
-1.990383290920022e-07
-3.60440837484435e-07
-4.111198629411717e-07
-2.715780140872614e-07
-1.553240809786799e-07
-3.374053101174597e-08
-1.033199162796308e-07
-1.13230316934118e-07
-2.747435308439525e-07
-2.867676238730266e-07
-2.613627474086851e-07
-1.743787698209772e-07
-2.1499090993132e-07
-2.941163817482292e-07
4.330431374609171e-08
-1.618157727938531e-07
-6.159701740313605e-07
-4.0716808302681e-07
-1.954785252601857e-07
-1.198191036070745e-07
2.735791986992054e-09
-1.582709994238904e-07
-2.469857679806683e-07
-2.828215718372637e-07
-1.894273334602983e-07
-4.309702088542379e-07
-5.37489964160003e-07
-1.212716574116564e-07
-2.015513347527232e-08
3.587593508623928e-08
1.651597115443953e-08
-1.406066106647401e-07
-6.724723618765846e-08
-1.34391276113586e-07
-1.759150249245529e-07
-1.225974561242685e-07
-1.341335387862642e-07
-4.139749478823666e-08
-9.36967997470968e-08
-9.061500617623843e-08
-2.263672835254754e-08
-1.642087845139354e-07
-1.706647793579497e-07
-2.01819461629398e-07
-2.115036813993292e-07
-3.437404777809176e-07
-3.845001494895311e-07
-2.640523073315595e-07
-1.628384626533102e-07
-5.350791792369067e-08
-1.17066423873184e-07
-1.225611816074585e-07
-2.605321427599674e-07
-2.696410271717233e-07
-2.530014478375422e-07
-1.829605272695643e-07
-1.908426081938152e-07
-2.960641416445758e-07
-2.432823274563167e-08
-1.684514542586414e-07
-5.558528269766286e-07
-3.834457078239621e-07
-1.998630670951765e-07
-1.346276013284379e-07
-2.60240091854635e-08
-1.634524125706917e-07
-2.361426126893949e-07
-2.804066705857556e-07
-2.016183178807797e-07
-3.887639430319276e-07
-5.007147277419683e-07
-1.428075395256268e-07
-3.308002570808737e-08
1.789577357332266e-08
9.253755649481328e-09
-1.345583077338317e-07
-7.997450432115972e-08
-1.302345393951069e-07
-1.6545384584871e-07
-1.124050807961239e-07
-1.277897999175584e-07
-4.819912769017987e-08
-8.698521746371954e-08
-9.646575465918827e-08
-3.883491828880455e-08
-1.605631330766252e-07
-1.684009055026404e-07
-2.044304503802352e-07
-2.203791123480207e-07
-3.29085838554655e-07
-3.612129235988797e-07
-2.574579593184962e-07
-1.690989031940223e-07
-7.095505823420981e-08
-1.282135952715883e-07
-1.309534123961209e-07
-2.473852594889857e-07
-2.556774036175196e-07
-2.435373618603292e-07
-1.916152928915001e-07
-1.747423513190562e-07
-2.938886285015016e-07
-7.995348554433369e-08
-1.781169640224636e-07
-5.047562121410528e-07
-3.63255890305096e-07
-2.03312640554755e-07
-1.470296890685766e-07
-5.157183392469423e-08
-1.682516887585575e-07
-2.27600410037396e-07
-2.753361933822061e-07
-2.111959453895461e-07
-3.534728647996568e-07
-4.645319826740213e-07
-1.590717058315373e-07
-4.574299824871392e-08
4.634429528835685e-10
3.932879791486509e-10
-1.291623728476347e-07
-8.997532180382917e-08
-1.273948912680571e-07
-1.572466555950624e-07
-1.044229158403101e-07
-1.209946675680429e-07
-5.291965115339344e-08
-8.221603232221669e-08
-1.009690292561654e-07
-5.293435980297942e-08
-1.585671016282537e-07
-1.676433885373105e-07
-2.058845054104933e-07
-2.264369218592131e-07
-3.16255510998562e-07
-3.410196938705643e-07
-2.518677730503022e-07
-1.742482912583762e-07
-8.622588289388106e-08
-1.369563710969565e-07
-1.383933810961191e-07
-2.35286527387183e-07
-2.442955336607849e-07
-2.340158798873213e-07
-1.993974563461445e-07
-1.651865212114131e-07
-2.892307877003538e-07
-1.250596757468487e-07
-1.897915523222313e-07
-4.622566565431825e-07
-3.459298729111047e-07
-2.060124223817892e-07
-1.572038562710287e-07
-7.391021557394959e-08
-1.723950613170055e-07
-2.209062541689832e-07
-2.686032366676391e-07
-2.181473375940442e-07
-3.239736460516252e-07
-4.297078019084977e-07
-1.71011788612938e-07
-5.796281579511178e-08
-1.612198629855319e-08
-9.490459117465403e-09
-1.246275526965002e-07
-9.791446079244055e-08
-1.256336475337186e-07
-1.50813651084775e-07
-9.822509077950232e-08
-1.141571995157746e-07
-5.594956378905235e-08
-7.885164043568195e-08
-1.042976921649e-07
-6.535127123946976e-08
-1.578147768684243e-07
-1.678618907201568e-07
-2.065284997553575e-07
-2.303228346352125e-07
-3.050763900186442e-07
-3.236532031583049e-07
-2.472348437976061e-07
-1.784293550373834e-07
-9.960403671250309e-08
-1.43575118916402e-07
-1.448056392319302e-07
-2.242030224677369e-07
-2.348480099811166e-07
-2.250480235791159e-07
-2.057064044073897e-07
-1.609104048044993e-07
-2.836601283893182e-07
-1.612677755690038e-07
-2.023650866237439e-07
-4.274273574952332e-07
-3.310360250138631e-07
-2.082217784671612e-07
-1.654267098572549e-07
-9.316009864213137e-08
-1.757649294970489e-07
-2.1563938804791e-07
-2.608959129694433e-07
-2.225727594780092e-07
-2.994207187764191e-07
-3.969304545104279e-07
-1.794442859227108e-07
-6.949293159229987e-08
-3.156153981008251e-08
-1.988692336362892e-08
-1.210368114684928e-07
-1.043466911622267e-07
-1.247815703790678e-07
-1.45819808433309e-07
-9.348897751979118e-08
-1.07543830405803e-07
-5.758437061385419e-08
-7.648705395574287e-08
-1.066148238539362e-07
-7.641121057176347e-08
-1.579976354772479e-07
-1.686596459289658e-07
-2.066085861925265e-07
-2.325545035836942e-07
-2.953942708259858e-07
-3.08820586567569e-07
-2.434894652772144e-07
-1.817891075132718e-07
-1.113606531102639e-07
-1.483514607698351e-07
-1.501047488140223e-07
-2.140413285014527e-07
-2.26711844493009e-07
-2.169788748003438e-07
-2.103607703821486e-07
-1.608598597410487e-07
-2.783061454567996e-07
-1.900733823864377e-07
-2.149804580491733e-07
-3.993031591007978e-07
-3.183469779377603e-07
-2.101408008294079e-07
-1.719231032090562e-07
-1.094643545183009e-07
-1.782957787806837e-07
-2.114155782883063e-07
-2.526881153601021e-07
-2.247031189767046e-07
-2.790970816639112e-07
-3.666092600679534e-07
-1.850169073282787e-07
-8.015296398952489e-08
-4.566633299073854e-08
-3.039984632220099e-08
-1.183957256476466e-07
-1.096893410840593e-07
-1.246934405206551e-07
-1.420254395592075e-07
-8.995940317389443e-08
-1.013178599655115e-07
-5.804839885387288e-08
-7.481050810408183e-08
-1.080624803748568e-07
-8.637945913197939e-08
-1.589112359219589e-07
-1.69744260030789e-07
-2.062998151392459e-07
-2.335564691064132e-07
-2.870779511967894e-07
-2.962511268850284e-07
-2.405851498682055e-07
-1.844550670406364e-07
-1.217147616333537e-07
-1.515902567985404e-07
-1.542319390040834e-07
-2.046963905970256e-07
-2.193565541034046e-07
-2.100046782691572e-07
-2.133993486869601e-07
-1.640479245588067e-07
-2.739103099832811e-07
-2.12849568515858e-07
-2.270447346715277e-07
-3.769227633137781e-07
-3.077266629617081e-07
-2.119183650726096e-07
-1.769202897365087e-07
-1.230366823161047e-07
-1.799840693706814e-07
-2.079175743071353e-07
-2.443676243988193e-07
-2.248306861480848e-07
-2.62339004756928e-07
-3.389759942252757e-07
-1.883143222398214e-07
-8.984346921033178e-08
-5.832391188532345e-08
-4.070499321699649e-08
-1.166357769721041e-07
-1.142528094921114e-07
-1.252768280824899e-07
-1.392748940711439e-07
-8.745315549588653e-08
-9.55587020465597e-08
-5.750966726165208e-08
-7.358864229029461e-08
-1.087634308785505e-07
-9.547527571367149e-08
-1.604052939957726e-07
-1.708897139266357e-07
-2.057085921294753e-07
-2.336591956993567e-07
-2.800053870398575e-07
-2.856940199094083e-07
-2.384855783496652e-07
-1.865387793514972e-07
-1.308270267073653e-07
-1.535456243952601e-07
-1.571499707881143e-07
-1.960289587561682e-07
-2.123729022074734e-07
-2.041948525768123e-07
-2.150054648747466e-07
-1.696622200750717e-07
-2.709065406861696e-07
-2.308407313307202e-07
-2.382714501263052e-07
-3.594036909850522e-07
-2.990424334443701e-07
-2.136168715300758e-07
-1.805889595632598e-07
-1.34085760659515e-07
-1.808422378023577e-07
-2.04907499045817e-07
-2.361945855410678e-07
-2.232367589385727e-07
-2.485373255631854e-07
-3.140853218824936e-07
-1.898294989201416e-07
-9.854733236943959e-08
-6.950821220758519e-08
-5.05659119462006e-08
-1.156563029545083e-07
-1.182512098743176e-07
-1.264504322102802e-07
-1.374505130034521e-07
-8.581710087190369e-08
-9.028523886340901e-08
-5.609367794521756e-08
-7.263782309766262e-08
-1.088155473162685e-07
-1.03895500782635e-07
-1.623993075839246e-07
-1.719334902744157e-07
-2.048964725938914e-07
-2.331275439782777e-07
-2.740733650984836e-07
-2.769398933210553e-07
-2.371706469426088e-07
-1.881323534194865e-07
-1.388179992736538e-07
-1.544688540293485e-07
-1.588750293835861e-07
-1.879059337355393e-07
-2.054667635282444e-07
-1.995120144822966e-07
-2.153792953177001e-07
-1.769915901734807e-07
-2.695135911787169e-07
-2.451462782184726e-07
-2.485677328342745e-07
-3.459111090809426e-07
-2.921422530875677e-07
-2.152820839231877e-07
-1.831016673386913e-07
-1.428539451026955e-07
-1.809348098846263e-07
-2.022177086575427e-07
-2.283658879657512e-07
-2.202011997801437e-07
-2.371452913157838e-07
-2.919049295769572e-07
-1.900174807482371e-07
-1.063038206350943e-07
-7.92412347435365e-08
-5.979853990084303e-08
-1.153254969243304e-07
-1.218365206668295e-07
-1.281619946857869e-07
-1.364930792471616e-07
-8.495052888404174e-08
-8.546871655030874e-08
-5.389543598975851e-08
-7.181512288673852e-08
-1.082966379988023e-07
-1.118181270426504e-07
-1.648336863584875e-07
-1.72739879467659e-07
-2.038722437293588e-07
-2.321623406652942e-07
-2.691966185460384e-07
-2.698087516421317e-07
-2.366181147877434e-07
-1.893108531406631e-07
-1.457744123822382e-07
-1.545313944641288e-07
-1.594357645930678e-07
-1.801743844687139e-07
-1.984387695288514e-07
-1.958577214075334e-07
-2.147522486407575e-07
-1.85529549413874e-07
-2.698192186651587e-07
-2.567002338056388e-07
-2.580000636965784e-07
-3.357305045368899e-07
-2.868712928612963e-07
-2.1691564971209e-07
-1.845750682509228e-07
-1.495526080497207e-07
-1.803194909987409e-07
-1.997393159931027e-07
-2.209798447157404e-07
-2.159653323395507e-07
-2.276891434810708e-07
-2.723029288656125e-07
-1.892486947795434e-07
-1.131953541840564e-07
-8.759182341813922e-08
-6.82823768920228e-08
-1.155061574619199e-07
-1.250968779641798e-07
-1.3036550930742e-07
-1.363504798065913e-07
-8.476393335371929e-08
-8.104064041130518e-08
-5.097641632713653e-08
-7.099575947543907e-08
-1.072603775374093e-07
-1.194173004169251e-07
-1.676926139525609e-07
-1.732206771192409e-07
-2.026241644001676e-07
-2.309219158957071e-07
-2.653033339764078e-07
-2.64153570855305e-07
-2.368164526840626e-07
-1.901374120599367e-07
-1.517751589674005e-07
-1.538918375329826e-07
-1.589060569694291e-07
-1.726933048439467e-07
-1.911716002409374e-07
-1.930856312589335e-07
-2.133112813748713e-07
-1.948750611399566e-07
-2.718056751594171e-07
-2.662461362837087e-07
-2.667131174282329e-07
-3.282476759734659e-07
-2.830728898310425e-07
-2.185198803879133e-07
-1.851170238184758e-07
-1.544061121674172e-07
-1.790925896746366e-07
-1.974196344835731e-07
-2.141012380220848e-07
-2.107665836699105e-07
-2.197685638793809e-07
-2.551026541017701e-07
-1.878543346604527e-07
-1.193246382701202e-07
-9.46493278390304e-08
-7.593932990377556e-08
-1.160611418557785e-07
-1.28092534990147e-07
-1.330311140797746e-07
-1.370221678772043e-07
-8.519841722542466e-08
-7.689350258962545e-08
-4.737354252599112e-08
-7.006669688663203e-08
-1.057448645470253e-07
-1.268702828104054e-07
-1.709659455336214e-07
-1.73289323403126e-07
-2.010977542712589e-07
-2.295295652052302e-07
-2.623408845590878e-07
-2.598611104797541e-07
-2.377537704407024e-07
-1.906477324421154e-07
-1.56886192395834e-07
-1.526331987861849e-07
-1.57337110888308e-07
-1.653054988201085e-07
-1.836169712067181e-07
-1.91063288607268e-07
-2.112420540997941e-07
-2.048023752871225e-07
-2.754124426946311e-07
-2.743742323244299e-07
-2.749270551694958e-07
-3.229846961339354e-07
-2.805971069741965e-07
-2.200517599116861e-07
-1.84776317810229e-07
-1.575985761733344e-07
-1.773351777051575e-07
-1.952448182763416e-07
-2.077203596292425e-07
-2.047923414690531e-07
-2.130415873175381e-07
-2.400658055262986e-07
-1.860809133215677e-07
-1.248016445743999e-07
-1.005230047141545e-07
-8.274030797117416e-08
-1.16861643486752e-07
-1.308442406887626e-07
-1.361432226059254e-07
-1.385030499301902e-07
-8.61875797660965e-08
-7.289592748153971e-08
-4.309867814754115e-08
-6.890873609335046e-08
-1.037681023600628e-07
-1.343610121295477e-07
-1.746719399594745e-07
-1.728928058285744e-07
-1.992291925830912e-07
-2.280742001456529e-07
-2.602515426004338e-07
-2.568373374060913e-07
-2.394342139377491e-07
-1.908621820034155e-07
-1.611811850797646e-07
-1.508422431502149e-07
-1.548039084574369e-07
-1.578581788132011e-07
-1.757808821669641e-07
-1.896516564694073e-07
-2.086656592023871e-07
-2.151562947650706e-07
-2.805249290847429e-07
-2.815132198067446e-07
-2.828806694152831e-07
-3.195813572043973e-07
-2.793126890756139e-07
-2.214822165922245e-07
-1.835882210086664e-07
-1.593011695177481e-07
-1.751595909004808e-07
-1.932405381403333e-07
-2.018070545127669e-07
-1.982118356556719e-07
-2.072183974774395e-07
-2.269358059970847e-07
-1.841455534278069e-07
-1.297368587129996e-07
-1.053247989595385e-07
-8.868228988470023e-08
-1.177873330472758e-07
-1.333793103655374e-07
-1.396955348164286e-07
-1.408662374356922e-07
-8.771246325133175e-08
-6.891838482293777e-08
-3.817318588951032e-08
-6.739574418027821e-08
-1.013375816270397e-07
-1.42074230539118e-07
-1.788137383066751e-07
-1.719475764745228e-07
-1.969005584704242e-07
-2.26621761251477e-07
-2.589954540858279e-07
-2.550228468971833e-07
-2.418511049884143e-07
-1.907492347473307e-07
-1.647228770485151e-07
-1.485482897700972e-07
-1.513470352879661e-07
-1.501856303091138e-07
-1.677062675260861e-07
-1.887473315945357e-07
-2.056925459339319e-07
-2.258898149385643e-07
-2.869988911000437e-07
-2.87977343265656e-07
-2.908098797785913e-07
-3.177869943562676e-07
-2.791434945134633e-07
-2.227618916079775e-07
-1.815527276953767e-07
-1.596468156173286e-07
-1.726449009991876e-07
-1.914528379479663e-07
-1.962848050277466e-07
-1.911422946200574e-07
-2.020553720523938e-07
-2.154541153901329e-07
-1.822395953057128e-07
-1.342484262252569e-07
-1.09165948599201e-07
-9.377256256996815e-08
-1.187064323009772e-07
-1.35702214456093e-07
-1.437124201541671e-07
-1.441603382463246e-07
-8.975508993238544e-08
-6.483871575391942e-08
-3.260774241519389e-08
-6.539588871339714e-08
-9.843588676161151e-08
-1.5021197324236e-07
-1.834211791905951e-07
-1.703990985246725e-07
-1.94022741394417e-07
-2.252310116139998e-07
-2.585374270113014e-07
-2.543920663854806e-07
-2.450146135774041e-07
-1.902624998042333e-07
-1.6757344260373e-07
-1.457996468086087e-07
-1.470554079789195e-07
-1.42140709108863e-07
-1.594686694058364e-07
-1.882279674080309e-07
-2.023411164099495e-07
-2.369896034970228e-07
-2.94667753545173e-07
-2.939414793252824e-07
-2.988885355575956e-07
-3.174075748496723e-07
-2.800356509007236e-07
-2.238510017482133e-07
-1.786528189481573e-07
-1.58740616297541e-07
-1.698901735747193e-07
-1.899788830265107e-07
-1.910801516576279e-07
-1.836971971314791e-07
-1.973832093604982e-07
-2.05408124099932e-07
-1.805784342473769e-07
-1.384523884600878e-07
-1.121411034029243e-07
-9.801336599293587e-08
-1.194929832243777e-07
-1.378382593469324e-07
-1.482227194179197e-07
-1.485055403729836e-07
-9.231823914847128e-08
-6.052634340096591e-08
-2.639758153501575e-08
-6.275113324686768e-08
-9.50396069098526e-08
-1.589902751743588e-07
-1.885258338135969e-07
-1.681503639832523e-07
-1.904551533201496e-07
-2.239731212808367e-07
-2.588740906241699e-07
-2.549643864688902e-07
-2.489211471269275e-07
-1.892823048786045e-07
-1.697927701126248e-07
-1.426306228012471e-07
-1.419669329365823e-07
-1.335660958901009e-07
-1.511640281817969e-07
-1.880241862986143e-07
-1.986105268584688e-07
-2.485330914348323e-07
-3.03390680146707e-07
-2.995368994924758e-07
-3.073066029931439e-07
-3.183137105046532e-07
-2.819598437415792e-07
-2.246632630920815e-07
-1.748254625948221e-07
-1.566569277052393e-07
-1.669691255466226e-07
-1.889194731276293e-07
-1.860822536970767e-07
-1.759430857320399e-07
-1.930746206484301e-07
-1.966190402594959e-07
-1.793505970043463e-07
-1.424524524068809e-07
-1.143357214786572e-07
-1.013979159810969e-07
-1.200142888112157e-07
-1.397868042044954e-07
-1.533078759670892e-07
-1.539796879071944e-07
-9.53991081272048e-08
-5.58605872020621e-08
-1.951971618862951e-08
-5.928884340108792e-08
-9.109738492090232e-08
-1.686473947692863e-07
-1.941793738414586e-07
-1.651359501431777e-07
-1.861079692224042e-07
-2.229065007670091e-07
-2.599890144770365e-07
-2.567712855876018e-07
-2.535878165617068e-07
-1.876991512332196e-07
-1.714394718390266e-07
-1.390985232837316e-07
-1.361607338506778e-07
-1.243228014387191e-07
-1.429040627933954e-07
-1.880478254379651e-07
-1.944215594615279e-07
-2.606277583566444e-07
-3.130320832647177e-07
-3.048006499733832e-07
-3.16204172281519e-07
-3.204105498899792e-07
-2.848977327060742e-07
-2.251336611231235e-07
-1.699896243776664e-07
-1.534281678464758e-07
-1.63983812660843e-07
-1.884266687405168e-07
-1.811862899919986e-07
-1.67936523128709e-07
-1.89046550118389e-07
-1.889451370020232e-07
-1.7876044380777e-07
-1.46341553088592e-07
-1.158201829408619e-07
-1.039077039104544e-07
-1.201474490605496e-07
-1.415746403606288e-07
-1.590277703591584e-07
-1.607701264340831e-07
-9.899047435420762e-08
-5.071057194184882e-08
-1.193639026300402e-08
-5.478652310955706e-08
-8.657425372334267e-08
-1.794395901837441e-07
-2.004311517333602e-07
-1.612312118977685e-07
-1.808102405315662e-07
-2.221041373853588e-07
-2.618926048133229e-07
-2.598824498540161e-07
-2.590121284278367e-07
-1.853201464494564e-07
-1.72595756015415e-07
-1.352905431649545e-07
-1.29631045323395e-07
-1.142403895087574e-07
-1.348128133607491e-07
-1.882672228577615e-07
-1.896907789893769e-07
-2.734372828429789e-07
-3.23460942240577e-07
-3.097689897356354e-07
-3.257460451993132e-07
-3.236273114072891e-07
-2.888748352494606e-07
-2.251623749542323e-07
-1.640286083309217e-07
-1.490789920802078e-07
-1.610193000939918e-07
-1.886309411307498e-07
-1.762573252300337e-07
-1.596930027120389e-07
-1.852190949535648e-07
-1.822966241290721e-07
-1.789977869065371e-07
-1.501909358998458e-07
-1.166607473045048e-07
-1.054898890735645e-07
-1.197478882453357e-07
-1.431892061043351e-07
-1.655252291780631e-07
-1.689997989555591e-07
-1.030687339916335e-07
-4.495199511839289e-08
-3.592812480925644e-09
-4.900821786941852e-08
-8.139943283638466e-08
-1.91647450658934e-07
-2.073378447159335e-07
-1.563493743402783e-07
-1.744538886059902e-07
-2.216199695084913e-07
-2.645710909458863e-07
-2.643678085586576e-07
-2.652065204374496e-07
-1.819952194453984e-07
-1.733301290598418e-07
-1.313137630740304e-07
-1.224274843154517e-07
-1.03159003936073e-07
-1.270335328932848e-07
-1.886101516277867e-07
-1.842727463205776e-07
-2.871477188421568e-07
-3.345429921020236e-07
-3.144019688333203e-07
-3.360350196458297e-07
-3.27909118928034e-07
-2.939366639820917e-07
-2.246860417124818e-07
-1.568078092807889e-07
-1.435703809922818e-07
-1.5820567063891e-07
-1.897376512928079e-07
-1.711614861007272e-07
-1.512226585446748e-07
-1.81529702802449e-07
-1.766183509100154e-07
-1.8028291720406e-07
-1.540572443242834e-07
-1.169086202657764e-07
-1.060692678226669e-07
-1.186772356412974e-07
-1.446529093176759e-07
-1.72917448220379e-07
-1.790124478631058e-07