/*--------------------------------*- C++ -*----------------------------------*\
| =========                 |                                                 |
| \\      /  F ield         | OpenFOAM: The Open Source CFD Toolbox           |
|  \\    /   O peration     | Version:  v1812                                 |
|   \\  /    A nd           | Web:      www.OpenFOAM.com                      |
|    \\/     M anipulation  |                                                 |
\*---------------------------------------------------------------------------*/
FoamFile
{
    version     2.0;
    format      ascii;
    class       surfaceScalarField;
    location    "3000";
    object      phi;
}
// * * * * * * * * * * * * * * * * * * * * * * * * * * * * * * * * * * * * * //

dimensions      [0 3 -1 0 0 0 0];
oriented        oriented;


internalField   nonuniform List<scalar> 
3697
(
8.300120902537929e-05
-1.658800239522044e-08
8.300036965235212e-05
-1.089862732030074e-09
8.302401574549103e-05
-1.821439519352077e-08
8.304774289601275e-05
-2.090546469745338e-08
8.302777355111234e-05
1.768589596552531e-08
8.302702804421975e-05
5.479499232281795e-12
8.304834647404601e-05
-1.910355168410227e-08
8.302724008261366e-05
1.844996659118632e-08
8.300326856553983e-05
2.094664031650322e-08
8.302390608833824e-05
-1.823916477771686e-08
8.30477295265307e-05
-2.072699815342814e-08
8.30489758387183e-05
-2.561834534179191e-10
8.304933217781895e-05
-2.087972348935554e-10
8.304956871854018e-05
-1.935994970850084e-11
8.305019606146845e-05
-1.004787153610452e-09
8.305098173501608e-05
-6.738515747542237e-10
8.305094837566062e-05
2.054144559307373e-10
8.3050962746483e-05
2.449834867353793e-10
8.305058190130743e-05
7.225087637855564e-10
8.305027390642553e-05
3.40009431537227e-10
8.305063798876586e-05
-7.60872804624721e-10
8.30502002118934e-05
5.704936249864717e-10
8.304911642011926e-05
7.949596587807191e-10
8.305010434860549e-05
-1.081945091891505e-09
8.305099037720406e-05
-8.924416728015981e-10
8.304878093717998e-05
2.253061405024594e-09
8.302589403619798e-05
2.079292792304529e-08
8.300183886653196e-05
1.641937489905313e-08
8.302286714637549e-05
-1.457170059004227e-08
8.302494079688415e-05
-1.890153564052037e-09
8.300327458715017e-05
1.916123741435974e-08
8.300079165554019e-05
1.679209129966714e-09
8.300009471383473e-05
4.911543987571215e-10
8.300011487701458e-05
-3.278130802607371e-10
8.299970119217067e-05
8.106563271271517e-10
8.299853194704781e-05
1.019591459969925e-09
8.302204654571005e-05
-2.086737010519823e-08
8.304704057126308e-05
-2.083702852556228e-08
8.302707771036159e-05
1.853461345621688e-08
8.300321799045624e-05
1.987659979527341e-08
8.300111925987933e-05
1.264191834445447e-09
8.30239031882926e-05
-1.945582674774623e-08
8.30478219590261e-05
-2.082199195821376e-08
1.918316866548844e-08
0.0002454191984355297
2.205742357896003e-08
0.0002454131878259056
2.386626776089445e-09
0.0002454518864920913
-4.634249770698765e-08
0.0002454941191105952
-5.159874958267288e-08
0.0002454643898324317
4.032067057250598e-08
0.0002454614605899715
3.980900235796075e-10
0.0002454955504485113
-4.394043016630074e-08
0.0002454644425212878
4.219123281500314e-08
0.0002454211420420537
5.238849938716865e-08
0.0002454515308764359
-4.180297756298879e-08
0.0002454918459217343
-4.961630548476222e-08
0.000245493773673058
4.806949132539611e-10
0.0002454949181622981
-1.583267766789955e-09
0.0002454957235065762
-6.866254694528343e-10
0.0002454977326266666
-2.970793793241232e-09
0.0002454996823356603
-1.9877193942277e-09
0.0002454995399368113
8.858991935787968e-10
0.0002454990840116115
1.268552204107176e-09
0.0002454986712417564
2.001233535866636e-09
0.0002454982143204051
5.593747951681111e-10
0.0002454985529368286
-2.717736675903271e-09
0.0002454972289465241
1.571261935829114e-09
0.000245495189585572
2.871340672486149e-09
0.0002454983152912237
-3.983072720953019e-09
0.0002454988434108809
-1.413837313978488e-09
0.0002454945800069504
7.066888325824445e-09
0.0002454603867576537
4.643769908691321e-08
0.0002454182557161686
4.402230256631246e-08
0.0002454509343149941
-3.761824048498768e-08
0.0002454599637154648
-9.303110749230732e-09
0.0002454226826997862
4.751327658238379e-08
0.0002454156074944827
6.785489039531752e-09
0.0002454137507086404
1.683584954306289e-09
0.0002454130941612872
-4.22491113111064e-11
0.000245411790571815
2.592404347132053e-09
0.0002454075220419899
4.584424042567398e-09
0.0002454470603328375
-5.140885591501813e-08
0.0002454925213272646
-5.318006390293271e-08
0.0002454639535444862
4.104198826872085e-08
0.0002454229267106932
4.862502474406772e-08
0.0002454144215762094
6.746652839465676e-09
0.0002454517208784094
-4.733006912453539e-08
0.0002454944587323267
-5.151798997767949e-08
4.423668580652257e-08
0.0004056732604473619
4.093209173534809e-08
0.0004056676106464407
6.758072523242457e-09
0.0004056774766925946
-5.376516996054221e-08
0.0004056901548501977
-6.531452517440932e-08
0.0004056877812949676
4.342174648029147e-08
0.000405685949706928
2.176417158675294e-09
0.0004056916335722515
-5.058366693846338e-08
0.0004056881264454393
4.607006509957353e-08
0.0004056744715342811
6.695999386470973e-08
0.0004056775667358602
-4.536323183315084e-08
0.0004056871546780782
-5.989223964305843e-08
0.0004056874787818563
1.908242170627525e-10
0.0004056892699340265
-3.129197388418152e-09
0.0004056910715860536
-2.265781377723131e-09
0.0004056938144550085
-6.165386279235392e-09
0.0004056946273056215
-2.879542344475595e-09
0.0004056930575371268
2.466022865370436e-09
0.0004056919312927258
2.51760868481421e-09
0.0004056940418519768
-3.650937262519354e-11
0.0004056951145681729
-3.573681327934019e-10
0.0004056942086766486
-1.735032124510219e-09
0.0004056925721114149
3.405108256880583e-09
0.000405691272010001
3.817601512267776e-09
0.0004056947456613741
-7.631712609172627e-09
0.0004056929135586013
3.925603529786391e-10
0.0004056873403568335
1.247691298420877e-08
0.0004056826745773533
5.203575944466872e-08
0.0004056709149929823
5.218203058662725e-08
0.000405676899101464
-3.970932986693545e-08
0.0004056849805334147
-1.773920583447068e-08
0.0004056756839914498
5.727371253432697e-08
0.0004056696121777039
1.275322376857382e-08
0.0004056671868719103
4.068729613500362e-09
0.0004056670441056318
-1.388023790734905e-10
0.0004056655956871577
4.348738960236349e-09
0.0004056601987351627
9.981893962105824e-09
0.0004056715451087183
-6.311486051222932e-08
0.0004056879650470069
-7.069225619931443e-08
0.0004056874446298355
4.239795286789343e-08
0.000405676477596366
6.057217227671469e-08
0.0004056687571598979
1.452194195212025e-08
0.0004056772032964789
-5.625819061204015e-08
0.0004056903636296918
-6.556174921294722e-08
4.909806178256419e-08
0.00058655921772042
2.402127833638913e-08
0.0005865592856585337
6.106226068662254e-09
0.0005865411540086987
-3.268846739771946e-08
0.0005865206689047445
-4.284970094718935e-08
0.000586539599140935
2.369355619328695e-08
0.0005865411082974668
-6.287295378765374e-11
0.0005865210953366787
-2.901492644832442e-08
0.0005865394416059781
2.670904813439487e-08
0.0005865595087760387
4.466354874376049e-08
0.0005865416927290883
-2.673637149546e-08
0.0005865192242182625
-3.529597769044753e-08
0.0005865166562148181
3.571154718295171e-09
0.0005865186393134347
-4.965974105248945e-09
0.0005865207036626953
-4.262554006297865e-09
0.0005865228578354756
-8.456017423470309e-09
0.0005865221421623606
-2.140884387832008e-09
0.0005865193628239421
5.266726988319413e-09
0.0005865173524568394
4.873407738667396e-09
0.0005865203160025634
-2.508394972314583e-09
0.0005865237123654402
-3.622407355514063e-09
0.0005865235052279258
-2.097063285403946e-09
0.0005865225032654652
4.505157084691438e-09
0.0005865217649866244
4.26010553962873e-09
0.000586523355039186
-9.452043171467223e-09
0.0005865201393042092
3.599605911850824e-09
0.0005865144343479831
1.838231073434924e-08
0.0005865345647321742
3.068141436067165e-08
0.0005865560486125597
2.669471862679649e-08
0.0005865400996220413
-2.060725003622319e-08
0.000586540326751511
-1.797155678471646e-08
0.0005865591904322981
3.66475790048666e-08
0.0005865588224936924
1.255314407541644e-08
0.0005865572119077845
5.432822758749631e-09
0.0005865584036027437
-1.428578254835134e-09
0.0005865576050692136
5.418420263116896e-09
0.0005865540018258735
1.328413976118432e-08
0.0005865365643346911
-4.401754028518365e-08
0.000586518593370414
-5.05393599318346e-08
0.0005865390053692823
2.13615445102386e-08
0.0005865599385710062
3.76707421315159e-08
0.0005865600455615774
1.356782775182402e-08
0.0005865409032831212
-3.563846723071326e-08
0.0005865205253786786
-4.28170302979309e-08
2.948107331883038e-08
0.0009312099803994535
1.521909053723693e-09
0.0009312133667569271
2.302602434469523e-09
0.0009311912139876334
-9.79091562353771e-09
0.0009311627734365953
-1.606870448140525e-08
0.0009311827398755356
5.104032730139857e-09
0.0009311860894085428
-3.265196234849438e-09
0.0009311622002141474
-6.559785992881898e-09
0.000931181856029305
8.169507587147056e-09
0.0009312099092559589
1.822898947587985e-08
0.000931191065247574
-9.033130424231727e-09
0.0009311629126494853
-8.570884315631059e-09
0.0009311594827596366
6.756102305837262e-09
0.0009311612667615157
-6.547821037107743e-09
0.0009311625960396276
-5.455945148296844e-09
0.0009311626373627201
-8.799627338873753e-09
0.0009311609833482037
-6.006932169587474e-10
0.0009311596683504325
6.542606548777113e-09
0.0009311583425596103
6.270036090575487e-09
0.0009311579249261237
-2.084009662995396e-09
0.0009311598820397819
-5.425481451018957e-09
0.0009311617254327329
-3.783767322426955e-09
0.0009311638486632768
2.515482113794338e-09
0.0009311636521545837
4.191383236953016e-09
0.0009311624288261397
-8.396708210306641e-09
0.0009311604288783232
5.575540922294546e-09
0.0009311568409622711
2.180236783074195e-08
0.0009311790829710768
9.829101999669221e-09
0.0009312068149945434
-2.04558916923557e-09
0.0009311900375006887
-2.225764168498255e-09
0.0009311858905980387
-1.424117130206534e-08
0.000931208854390489
1.470051462441609e-08
0.0009312115649002725
9.963360197829736e-09
0.0009312115548362829
5.44073598512276e-09
0.0009312124456060982
-2.439609903170419e-09
0.0009312119776372755
6.05527091277803e-09
0.0009312118672602835
1.342580552097641e-08
0.0009311890810088652
-2.22323950311977e-08
0.0009311614715979569
-2.524559530722631e-08
0.0009311820758993696
1.897877501426689e-09
0.0009312096403578912
1.226672533722843e-08
0.0009312140535487716
9.430355288719505e-09
0.0009311908714760949
-1.38861605224947e-08
0.0009311624028911273
-1.593678836816832e-08
1.010782320051385e-08
0.001748334725174655
-1.094696161251942e-08
0.001748338104464636
-1.067181733356006e-09
0.001748326696819842
1.740008184059245e-09
0.001748308391195252
6.67087871298977e-10
0.001748318400627849
-3.656989055471882e-09
0.001748320825977579
-5.564618068586281e-09
0.001748307176674983
5.826208508648834e-09
0.001748316826175985
-3.513155015578803e-10
0.001748334588470679
1.980693824953051e-09
0.001748324874595021
-4.445734956606187e-10
0.001748309105358078
5.765542729409099e-09
0.001748308665660247
6.964403475749342e-09
0.001748308608056521
-6.257785435928819e-09
0.001748307214642153
-3.970361858965307e-09
0.001748304018987993
-5.859168123901008e-09
0.001748302026424075
1.21607392195166e-09
0.001748304386022128
4.089237076517929e-09
0.001748305854851714
4.880651050907114e-09
0.001748304090021654
-2.610898646612093e-10
0.001748302577464206
-3.718485729672629e-09
0.001748302829734061
-3.871290088971461e-09
0.001748306832182312
-1.322554716873887e-09
0.001748308268792206
2.496431809284464e-09
0.001748306068612644
-6.451431029858739e-09
0.001748306032907159
5.57110917561733e-09
0.001748306080009794
2.17118995562589e-08
0.001748317952629439
-6.599026753791058e-10
0.001748332458007726
-1.661227631014056e-08
0.001748325686408933
5.310429771905154e-09
0.001748320970914702
-9.944831387052741e-09
0.001748333606093421
2.991529472778602e-09
0.001748336837484249
6.847160865639827e-09
0.001748338545227183
3.729793553236618e-09
0.001748338354977257
-2.304178054030712e-09
0.001748337937854498
6.60366411176935e-09
0.001748341459035895
9.882076627263795e-09
0.00174832865270428
-1.052042486515756e-08
0.001748309381010955
-8.108418279045424e-09
0.001748318554291253
-6.157702200874133e-09
0.00174833510896449
-2.218589966507743e-09
0.001748339515442682
5.279070049988318e-09
0.001748326405493885
-2.204876515712479e-09
0.001748308027432497
9.738363236121039e-10
8.679399965192617e-10
0.003115539870133251
-1.144026168654444e-08
0.003115540746024277
-1.926780687099852e-09
0.003115539583788276
2.935517137610302e-09
0.003115534426226098
4.318590144666022e-09
0.003115536308722941
-4.381758981418514e-09
0.003115536188292785
-5.279059883967453e-09
0.003115533275691331
7.511137358172103e-09
0.003115534953919224
-9.694882888564623e-10
0.003115539709674363
-1.247881547526776e-09
0.003115537247674417
9.796954867452046e-10
0.003115533493718743
8.082511114374836e-09
0.003115535961040123
4.170417471273633e-09
0.003115535266009945
-5.392417538117397e-09
0.003115532243953474
-8.582659462691122e-10
0.003115528321035033
-2.16312315785979e-09
0.003115526946842775
2.456669231767768e-09
0.003115530097330367
8.920618511892583e-10
0.003115532328181601
2.675571353275918e-09
0.003115533008189655
-9.624848478258981e-10
0.003115532002002328
-2.560381367372246e-09
0.003115530294998965
-1.941112814081911e-09
0.00311553173396922
-2.666088621251252e-09
0.003115532611793598
1.426891962900744e-09
0.003115531674334526
-5.679701658548811e-09
0.003115531905725067
5.302514289359816e-09
0.00311553349423445
2.005346853074215e-08
0.003115537298130991
-3.151230011311594e-09
0.003115537959901917
-1.720946802456965e-08
0.003115539304047418
4.536356799768038e-09
0.003115536510363683
-7.472898027212178e-09
0.003115539169128816
1.275482268291824e-09
0.003115541287086596
4.901246943014317e-09
0.003115543156424347
1.87758832328453e-09
0.003115543226628218
-2.435396819066536e-09
0.003115543246224447
6.679810197484657e-09
0.003115546262847521
6.859687428562682e-09
0.003115543727626088
-9.079889348027796e-09
0.003115537355511519
-3.881840622400262e-09
0.003115538127711206
-5.905935961418446e-09
0.003115542310268928
-4.32232684601398e-09
0.003115543616605504
4.303531423867677e-09
0.003115539512866485
5.016925008892358e-10
0.00311553409890583
4.883747032767853e-09
-2.330194143027224e-10
0.004497727501897752
-8.316543178336716e-09
0.004497727006039265
-1.37290974571021e-09
0.004497728407379506
1.506331316712561e-09
0.004497728101815005
3.243122427301329e-09
0.004497727966195977
-3.204194875073607e-09
0.00449772687983342
-4.05128801379343e-09
0.004497727414379125
5.86252198530138e-09
0.004497727324530213
1.127431314491202e-10
0.004497727485843159
2.383354407271676e-11
0.004497727011386322
4.961023713284465e-10
0.004497726606311246
7.121231954144135e-09
0.00449772798948012
2.440891198656326e-09
0.004497727618137696
-4.868252376238592e-09
0.00449772618279752
6.680595567758078e-10
0.004497724323813357
-5.150454374215796e-10
0.004497723870964952
2.793541787930441e-09
0.004497725006188681
-2.693910629260619e-10
0.004497725770687365
1.909386830371869e-09
0.00449772646713606
-1.705682091175088e-09
0.004497726045324905
-1.988221533480622e-09
0.004497724874451911
-5.238221709272847e-10
0.004497725479689098
-3.211546080997731e-09
0.004497725455885583
1.303726554712061e-09
0.004497724513402115
-4.873543170615221e-09
0.00449772464029107
5.123242204579205e-09
0.004497725949875912
1.869265008584485e-08
0.004497726944607798
-2.911990160140623e-09
0.00449772415202796
-1.426301932906367e-08
0.004497727489484173
1.630682904878959e-09
0.004497726416499775
-6.662121790522773e-09
0.004497726918074519
1.640739881965701e-09
0.004497728254060805
3.737131563481558e-09
0.004497729085448324
1.060492385425241e-09
0.00449772931962914
-2.729808112585888e-09
0.004497730339220178
5.742177203046047e-09
0.00449773150319807
5.679089165665296e-09
0.004497731060494406
-9.702786247322979e-09
0.00449772996125508
-4.801368059957499e-09
0.004497729648695196
-4.625842560273539e-09
0.004497730395969578
-3.078423947142393e-09
0.004497730337438468
4.69279235584571e-09
0.004497728564998845
9.46565137856992e-10
0.004497727814826376
4.219053596844748e-09
5.705238106062159e-10
0.005383596446724055
-5.547167444446749e-09
0.005383595929122627
-8.019604799237518e-10
0.005383597062784503
4.005388755905656e-10
0.005383597439451028
1.770213106177703e-09
0.005383597224210551
-2.155905626215522e-09
0.005383596208006344
-2.941826882271575e-09
0.005383597028320335
4.150170780315412e-09
0.005383596970904313
9.682933618863126e-10
0.005383596758243141
1.418359553545253e-09
0.005383596408566606
8.002671737695367e-11
0.005383596588239697
5.811022052344845e-09
0.005383596828736875
1.879206672711803e-09
0.005383596126960921
-4.058268954508261e-09
0.005383595665500417
1.208807398833637e-09
0.005383595151631504
-1.751608738760546e-10
0.005383595313481915
2.560649591757401e-09
0.005383595388348913
-3.339623276515054e-10
0.005383595483326211
1.798494690356515e-09
0.005383595381355156
-1.664850400774904e-09
0.005383594916592713
-1.399708324797821e-09
0.005383594200912191
4.089367952552757e-10
0.005383594589081363
-3.583014059294513e-09
0.005383594491181496
1.298247876189292e-09
0.005383593323736073
-3.786928132644762e-09
0.005383593780991918
4.618444257356207e-09
0.005383595336928513
1.709430146611613e-08
0.005383595242304199
-1.80925465182372e-09
0.005383592587167836
-1.152924346970953e-08
0.005383595187366292
-6.067783963109099e-10
0.005383594696544821
-6.343144050168164e-09
0.005383595512587006
1.517256324074172e-09
0.005383596662979048
2.73921240086696e-09
0.005383596966415557
7.651934031924324e-10
0.005383596885465126
-2.708033962534623e-09
0.005383598576037076
4.117054162764386e-09
0.005383599402021147
4.818854576931857e-09
0.00538359833167933
-9.515637345711856e-09
0.005383597739695104
-5.895677510844607e-09
0.005383597647551056
-3.73090394641548e-09
0.005383598229678794
-1.972872492332834e-09
0.005383598363509164
4.853687667573367e-09
0.005383597068591947
1.147194872457798e-09
0.005383597019593287
3.092822626748434e-09
1.216067523335286e-09
0.005828334458509477
-3.644210960404532e-09
0.005828334185625565
-4.889381072045582e-10
0.005828334878684084
-1.829194527408181e-10
0.005828335170726665
6.916957044839088e-10
0.005828335051699444
-1.422043837765473e-09
0.005828334263748416
-2.115283552072117e-09
0.005828334852493611
2.911083946241615e-09
0.005828334899191347
1.50625429621889e-09
0.005828334974744838
2.230171273659196e-09
0.005828334559752544
-6.406908406745997e-11
0.005828334847267428
4.68060540363666e-09
0.005828334777236818
1.684388950711515e-09
0.005828333976874784
-3.186788725290983e-09
0.005828333829154439
1.424568757942224e-09
0.005828333676332812
-1.557299657670546e-10
0.005828333935957826
2.27709873519389e-09
0.005828333698394428
-5.440337827174932e-11
0.005828333764458525
1.709757380673639e-09
0.005828333289968622
-1.2540076543217e-09
0.005828332885939471
-8.994165368299689e-10
0.005828332470347328
9.920469090916992e-10
0.005828332550252877
-3.683006721838752e-09
0.005828332501810387
1.288914398503666e-09
0.005828331362779063
-2.677006890746142e-09
0.005828331938087647
3.996215190400296e-09
0.005828333789682782
1.519716466841371e-08
0.005828333461432466
-7.367861576906389e-10
0.005828331318385605
-9.409255223019848e-09
0.005828332840234246
-1.809776032423726e-09
0.005828332363103934
-5.967367903887715e-09
0.005828333269713644
1.09571905381369e-09
0.005828334267236615
1.855572419625752e-09
0.005828334514263974
5.126753063232048e-10
0.005828334295382677
-2.54338302265884e-09
0.005828335970193194
2.49525445677449e-09
0.005828336900528274
3.850096558096821e-09
0.005828335566389314
-8.828744985022058e-09
0.005828334719423838
-6.351628463201888e-09
0.005828334622159549
-3.017929349920297e-09
0.005828335169398168
-1.197888238587599e-09
0.00582833556948609
4.689560268338151e-09
0.005828334626562727
1.266346674408206e-09
0.005828334614546753
2.215418054045265e-09
1.545034528280073e-09
0.006083011347876898
-2.377623741203438e-09
0.00608301123305051
-3.358896602202553e-10
0.006083011641563848
-4.455830183385203e-10
0.006083011793293417
-6.266012608162954e-12
0.006083011728582111
-9.127864399292715e-10
0.006083011121936608
-1.511593843880007e-09
0.006083011494216718
2.074862766864195e-09
0.006083011583525974
1.826111287027281e-09
0.00608301187336766
2.595321585385994e-09
0.006083011454610465
-3.613911637714858e-11
0.006083011723816283
3.793728679251884e-09
0.006083011637214504
1.556845279423765e-09
0.006083010920587573
-2.430661877784469e-09
0.006083010868357473
1.528838847678477e-09
0.006083010741979999
-1.264705310056535e-10
0.006083010944360169
2.086665925642928e-09
0.006083010664506771
2.87316341072412e-10
0.006083010787160377
1.565689131575562e-09
0.006083010247337076
-7.733160570798294e-10
0.006083009976921344
-5.582908097278799e-10
0.00608300975983322
1.326361405165195e-09
0.006083009628150999
-3.588694668540214e-09
0.006083009608385863
1.275372081888947e-09
0.006083008614318173
-1.679055299484786e-09
0.006083009138739691
3.43429137048082e-09
0.006083011065205101
1.322502689011515e-08
0.006083010847516363
1.018352132439642e-11
0.006083009164324411
-7.791563081157923e-09
0.006083009945101639
-2.3342998225931e-09
0.006083009406592695
-5.478615892367905e-09
0.006083010179630991
6.522187730467508e-10
0.006083010975851657
1.144176525333345e-09
0.006083011251857143
2.246151965915289e-10
0.006083011037321475
-2.374636245892941e-09
0.006083012426493652
1.149089909539995e-09
0.006083013348823533
2.882782687937629e-09
0.006083012063380563
-8.004077754359698e-09
0.006083011095570916
-6.366435537543603e-09
0.006083010972742988
-2.428588015028843e-09
0.006083011432885442
-6.47729551432023e-10
0.006083011938861576
4.370285656398943e-09
0.006083011280133354
1.327145192603045e-09
0.006083011235690389
1.591729298289623e-09
1.651601484619228e-09
0.006273077106445065
-1.532207697550275e-09
0.006273077065831535
-2.555768081447765e-10
0.006273077293630944
-5.075303213152784e-10
0.006273077329323614
-4.115422980686429e-10
0.006273077284132738
-5.529174520688064e-10
0.006273076799497611
-1.06138082467573e-09
0.006273077026542681
1.520263278455511e-09
0.006273077127076543
2.002036193114128e-09
0.006273077518910933
2.682789870310736e-09
0.0062730771474561
7.139114513362336e-11
0.006273077368898313
3.127888229253161e-09
0.006273077311806313
1.447320616903603e-09
0.006273076713114952
-1.812486539480034e-09
0.006273076693498534
1.587757270780119e-09
0.006273076535590422
-3.729971752103923e-11
0.006273076680625982
1.979848318173435e-09
0.006273076440213333
6.030333159899449e-10
0.006273076588373226
1.399134930421712e-09
0.006273076093934382
-3.299364630425906e-10
0.006273075951778689
-3.656210951250927e-10
0.00627307585991947
1.494480100679284e-09
0.006273075622506234
-3.398882930709693e-09
0.006273075636032058
1.245132085697034e-09
0.006273074820513323
-8.36718428054592e-10
0.006273075263411891
2.960557308804057e-09
0.006273077092165221
1.134647459515398e-08
0.006273077016360285
4.505570127734992e-10
0.006273075698065739
-6.5612165319106e-09
0.006273076056218765
-2.491776760938341e-09
0.006273075506208608
-4.947072115173494e-09
0.006273076114720048
2.555512840554969e-10
0.006273076726155306
5.916482707597052e-10
0.006273077012836484
-8.147391522739593e-11
0.006273076831600127
-2.228155116219106e-09
0.006273077905896147
1.118000023241335e-10
0.006273078717225645
2.026082009861359e-09
0.006273077558336844
-7.158369648033135e-09
0.006273076596020334
-6.130331888877029e-09
0.006273076481262986
-1.961832661975943e-09
0.006273076876678783
-2.852760445287266e-10
0.006273077410120915
3.982017256425161e-09
0.006273076962671507
1.352120004407026e-09
0.006273076887359444
1.166158387331948e-09
1.634197641916106e-09
0.006431267712855343
-9.439771557173094e-10
0.006431267698428288
-1.92621537421514e-10
0.006431267802356607
-4.480517206755158e-10
0.006431267750890706
-6.116067419031976e-10
0.006431267710714937
-2.875167325751482e-10
0.006431267303576098
-7.080018378385653e-10
0.006431267439201302
1.149419594998933e-09
0.006431267540129614
2.082113193763453e-09
0.006431267962491849
2.619752641576791e-09
0.006431267654989678
2.058812541940054e-10
0.006431267829478135
2.624494046482425e-09
0.006431267794458282
1.347071523373792e-09
0.006431267300423003
-1.314763044406032e-09
0.006431267293531704
1.621982357977279e-09
0.006431267112325913
9.712985940271615e-11
0.006431267223529516
1.922227489340085e-09
0.006431267040903488
8.665813959756864e-10
0.006431267192237113
1.235102203962448e-09
0.006431266775408713
4.370349397178402e-11
0.006431266730217433
-2.84523851040561e-10
0.00643126671800382
1.551160701614741e-09
0.00643126643589014
-3.164768326929931e-09
0.006431266497467231
1.173212469820889e-09
0.00643126586589442
-1.706623748690692e-10
0.006431266239196104
2.564778311551838e-09
0.006431267888822778
9.648174735871295e-09
0.006431267908275657
6.796892659260875e-10
0.006431266861304467
-5.596499622169051e-09
0.006431266987610136
-2.469778330576435e-09
0.006431266472837392
-4.432448549746732e-09
0.006431266947644167
-8.377700217881417e-11
0.00643126741797699
1.663460448775443e-10
0.006431267695479961
-3.791614186286853e-10
0.006431267538719206
-2.096461040196305e-09
0.006431268337794743
-6.549032393563281e-10
0.006431269008326716
1.307125348215551e-09
0.006431267978716614
-6.345154182206917e-09
0.006431267073595976
-5.768277326145462e-09
0.006431266982202286
-1.599162102250222e-09
0.006431267335866419
-6.401168536471161e-11
0.00643126786486987
3.571316125714889e-09
0.006431267571832932
1.348942317908278e-09
0.006431267474169582
8.731391074749469e-10
1.545910832531556e-09
0.006566061623843933
-5.163900211289882e-10
0.006566061614511253
-1.276206387223404e-10
0.006566061632743177
-3.101737037774875e-10
0.006566061518233657
-6.654178486291396e-10
0.006566061477369449
-8.462020827008154e-11
0.006566061120345488
-4.178113072823249e-10
0.006566061200006862
8.992827177124001e-10
0.006566061296294953
2.102379482098854e-09
0.006566061709105237
2.479122341651731e-09
0.006566061466463214
3.374269917178854e-10
0.006566061605198454
2.241176285643049e-09
0.006566061580181962
1.262328947493913e-09
0.006566061170375624
-9.096274769104752e-10
0.006566061167545067
1.644030991120849e-09
0.006566060977477466
2.545162322513099e-10
0.006566061072333806
1.889175321670355e-09
0.006566060946063808
1.07749755134267e-09
0.006566061091808908
1.082179176658401e-09
0.006566060758600424
3.424234108614478e-10
0.006566060778106127
-2.78461918899632e-10
0.0065660608212548
1.52997644600681e-09
0.006566060528700824
-2.918955404977156e-09
0.006566060642601343
1.050826779555879e-09
0.006566060182304819
3.266095978775354e-10
0.006566060504587105
2.226631118882509e-09
0.006566061952663052
8.151627540173837e-09
0.006566062019733837
7.786226411376857e-10
0.006566061167172306
-4.817281685805814e-09
0.006566061164627927
-2.361184134203899e-09
0.006566060703845484
-3.963708228972617e-09
0.006566061077922532
-3.769431188465291e-10
0.006566061449328186
-1.697419988600419e-10
0.006566061708935946
-6.613123113969238e-10
0.006566061569696526
-1.9715169269406e-09
0.006566062148142471
-1.203145471692152e-09
0.00656606268551803
7.211735459429798e-10
0.006566061776355814
-5.581914920516677e-09
0.006566060943621725
-5.344024927691564e-09
0.006566060873674762
-1.316401625733591e-09
0.006566061193162683
5.709785604097805e-11
0.006566061701001675
3.159784934568768e-09
0.00656606152255265
1.319246203419819e-09
0.006566061411125745
6.742099230426465e-10
1.42677957960965e-09
0.006681326824401725
-1.859112735129072e-10
0.006681326811348687
-4.955246172593013e-11
0.006681326770469807
-1.2672967005972e-10
0.006681326613932506
-6.199231095434438e-10
0.006681326571342633
7.786114856289758e-11
0.006681326249356555
-1.698213124806084e-10
0.006681326295153863
7.282261496472731e-10
0.006681326383846519
2.084490385643451e-09
0.006681326768289296
2.304392978085572e-09
0.00668132658438415
4.531147627047476e-10
0.006681326697295737
1.940728475262955e-09
0.006681326674562153
1.190368125451258e-09
0.006681326332959581
-5.805245546631015e-10
0.006681326331173999
1.657860043622578e-09
0.006681326143791277
4.202327649154772e-10
0.006681326230275898
1.867396062635894e-09
0.006681326153085605
1.238294724757364e-09
0.006681326291444193
9.430614211167827e-10
0.006681326038074479
5.684044655647484e-10
0.006681326096901616
-3.188621626631063e-10
0.006681326181854122
1.450313584698288e-09
0.006681325896997755
-2.675969909859184e-09
0.006681326057941422
8.813971304202663e-10
0.006681325747927232
6.69643119750415e-10
0.006681326031717602
1.932381510820077e-09
0.006681327282014397
6.856806251489504e-09
0.006681327368233114
8.00640814476353e-10
0.006681326657964838
-4.164462713298193e-09
0.006681326580807642
-2.212135391234553e-09
0.00668132617583937
-3.547571718454754e-09
0.006681326472345763
-6.282168677527302e-10
0.006681326774378876
-4.393303330942498e-10
0.006681327011378055
-9.187239114326123e-10
0.00668132688629604
-1.852832773521664e-09
0.006681327295179128
-1.584163607119346e-09
0.006681327718809252
2.468221874709933e-10
0.006681326921235024
-4.886384305200939e-09
0.006681326162576897
-4.900753972320901e-09
0.006681326107343708
-1.090831706126484e-09
0.00668132639354115
1.167445094850054e-10
0.0066813268693518
2.766277990261944e-09
0.006681326775144465
1.267601607910482e-09
0.006681326655221809
5.391618159801054e-10
1.293034689012317e-09
0.006779396830268443
8.330973758641495e-11
0.006779396811180187
4.131537960847589e-11
0.006779396731374042
8.370509477029195e-11
0.006779396549614933
-5.081433005316699e-10
0.006779396505488546
2.115090436896702e-10
0.006779396211345694
4.579628910656065e-11
0.006779396237642103
6.073915435282285e-10
0.006779396317537716
2.045802899200535e-09
0.006779396666243552
2.120211532401157e-09
0.006779396533608693
5.458187194883741e-10
0.006779396629980935
1.699223676548868e-09
0.006779396606482568
1.132667804658336e-09
0.006779396321499396
-3.118717420142519e-10
0.006779396319158291
1.667882517672481e-09
0.006779396141888722