/*--------------------------------*- C++ -*----------------------------------*\
| =========                 |                                                 |
| \\      /  F ield         | OpenFOAM: The Open Source CFD Toolbox           |
|  \\    /   O peration     | Version:  v1812                                 |
|   \\  /    A nd           | Web:      www.OpenFOAM.com                      |
|    \\/     M anipulation  |                                                 |
\*---------------------------------------------------------------------------*/
FoamFile
{
    version     2.0;
    format      ascii;
    class       volVectorField;
    location    "3000";
    object      U;
}
// * * * * * * * * * * * * * * * * * * * * * * * * * * * * * * * * * * * * * //

dimensions      [0 1 -1 0 0 0 0];


internalField   nonuniform List<vector> 
1892
(
(0.06907513767184321 -3.546877977122076e-07 1.468102104936457e-05)
(0.06907405927150884 -3.108260394007444e-08 1.468016334210413e-05)
(0.0690736743378368 3.330224450796592e-07 1.467966819061161e-05)
(0.06911343641376166 3.630387404803007e-07 1.468751296344155e-05)
(0.0691159706014617 -2.878753445376468e-07 1.468749932015563e-05)
(0.06907739099803048 -2.97250392541396e-08 1.467831489170773e-05)
(0.06911383723738221 3.226127716676317e-07 1.468560161568687e-05)
(0.06911633920832573 -2.927285179200895e-07 1.468511725569797e-05)
(0.06907749142051857 -3.698067744800465e-07 1.467617081561896e-05)
(0.06907335420847381 2.877182289319444e-07 1.467431144811492e-05)
(0.06911370691422757 3.773444971581221e-07 1.468249593238861e-05)
(0.06911446145907964 3.335630510232855e-08 1.468163928294422e-05)
(0.06911502461661148 -1.093840471446259e-08 1.468139431808623e-05)
(0.06911504495919031 -4.33411636081844e-09 1.4680539148592e-05)
(0.0691151848827975 -2.154315961240486e-08 1.468033992888974e-05)
(0.06911628464174382 1.450502892172529e-08 1.467981479969348e-05)
(0.06911638061908118 1.982367019983197e-08 1.467977499394517e-05)
(0.0691160981490139 1.322731474169955e-10 1.467909262299099e-05)
(0.06911633028428087 2.241000001687575e-08 1.467931112000063e-05)
(0.06911582371781537 -4.023704079907126e-09 1.467879532991503e-05)
(0.06911585681405397 -3.834481659747595e-08 1.467930859967061e-05)
(0.06911611695301652 1.436852395259528e-08 1.467913701099163e-05)
(0.06911503503424349 1.891855235612822e-08 1.467950087480022e-05)
(0.06911454645127557 -7.336201417123925e-09 1.467938242310863e-05)
(0.0691169145142501 -7.201761865614439e-09 1.468084921459545e-05)
(0.06911528796571931 1.682603916621843e-08 1.468031424818974e-05)
(0.06911464069557274 -3.243630128304232e-07 1.468134523426285e-05)
(0.06907636502954344 -3.713989955760592e-07 1.467336571565637e-05)
(0.06907313685469442 2.908644247927195e-07 1.467388817599761e-05)
(0.06911302562893161 3.574872905195821e-08 1.468271803473755e-05)
(0.06907770560368229 -3.321508986018671e-07 1.467638580512689e-05)
(0.0690743731085167 -2.753642582669496e-08 1.467569157815675e-05)
(0.06907457908968316 -5.583627086250436e-09 1.467714542959728e-05)
(0.06907327962595898 -2.342990147764019e-09 1.46769355224674e-05)
(0.06907477119920989 4.367522157944642e-09 1.467857745775782e-05)
(0.0690724213719834 -1.535047833490182e-09 1.46777883378732e-05)
(0.06907164840276377 3.305510531401465e-07 1.467906622891085e-05)
(0.06911253566715785 3.591407822881238e-07 1.468763539888217e-05)
(0.06911587024444717 -2.916170640506789e-07 1.468952353947303e-05)
(0.06907759606525316 -3.661661611655383e-07 1.468052100015051e-05)
(0.06907441974886516 -4.153100132197437e-08 1.468094042071854e-05)
(0.06907370628715737 3.351781031883701e-07 1.46797361302701e-05)
(0.06911339047023357 3.66040956647601e-07 1.468955020259945e-05)
(0.06911626554804103 -2.953691015225384e-07 1.468854121161635e-05)
(0.2041419015378732 -2.200579344139842e-06 4.372289996268105e-05)
(0.2041339598387571 -2.630998900206033e-07 4.371971340731888e-05)
(0.2041319426054167 1.751746901583259e-06 4.371807880046832e-05)
(0.204198230683976 2.27170067261649e-06 4.373041203858044e-05)
(0.2042053611794091 -1.653271457556122e-06 4.373038698083886e-05)
(0.2041457070238206 -4.101226685285272e-07 4.371479466084215e-05)
(0.204199423508498 2.071163517186106e-06 4.372490380708479e-05)
(0.2042062687700932 -1.561818276485604e-06 4.372339052538057e-05)
(0.2041464301085 -2.272724265015708e-06 4.370861606104941e-05)
(0.2041306971278712 1.532627878883091e-06 4.370230172325323e-05)
(0.2041990465247282 2.230284202812867e-06 4.371567196059488e-05)
(0.2041993996808193 3.362287346967818e-07 4.371273769681244e-05)
(0.2042014594279855 -6.884108038098782e-08 4.371199866574918e-05)
(0.2042013099353011 -1.809248135240664e-08 4.370932069711489e-05)
(0.2042024974459408 -8.3852350208459e-08 4.370883825712696e-05)
(0.2042049100371521 5.179697732754014e-08 4.370702787143748e-05)
(0.2042055840197919 8.370411387417383e-08 4.370694013870249e-05)
(0.2042045090343632 4.287716806696229e-08 4.370482417811274e-05)
(0.2042047325985131 9.235288437776225e-08 4.37053104819089e-05)
(0.20420427570108 -4.563689165081711e-08 4.370385124329657e-05)
(0.204204025745071 -1.967695399420708e-07 4.370514931131032e-05)
(0.2042044462202302 1.089093046855194e-08 4.370453139096266e-05)
(0.2042017060232846 1.215605755776646e-07 4.370570219694529e-05)
(0.2042013434804211 -4.919576169016378e-08 4.370535868304995e-05)
(0.2042072094158245 -2.047594093840999e-08 4.370946182573985e-05)
(0.2042012958716439 2.450471997186755e-07 4.370778201931117e-05)
(0.2042017076987237 -1.854893476979398e-06 4.371114520661476e-05)
(0.2041435244608235 -2.328878276814145e-06 4.36990955991211e-05)
(0.2041301209628242 1.619983891521449e-06 4.369982134403251e-05)
(0.2041995146156703 2.227302348214227e-07 4.37155746016836e-05)
(0.2041465143386297 -1.831022189558711e-06 4.370789498812486e-05)
(0.2041345474981372 -1.261964254936461e-07 4.37054550061642e-05)
(0.2041358634132119 -1.996226470194278e-08 4.370988378651925e-05)
(0.2041315433750947 -4.260755077842877e-08 4.370913314390276e-05)
(0.2041349750876373 7.037902240918174e-08 4.371393939249934e-05)
(0.2041291396027632 -1.471202496651864e-08 4.371195202158778e-05)
(0.2041265633843326 1.716531009830197e-06 4.371556305666659e-05)
(0.204196021182518 2.214691330844988e-06 4.372996736382507e-05)
(0.2042051407613666 -1.584304397316139e-06 4.373561319413696e-05)
(0.2041466433441073 -2.18237923803369e-06 4.372073611671055e-05)
(0.204134864178549 -3.045918822052953e-07 4.372161881212303e-05)
(0.2041319998244542 1.756990424590028e-06 4.371788559470191e-05)
(0.2041981156914502 2.28026683309394e-06 4.373609051542057e-05)
(0.2042061922028088 -1.582771715035914e-06 4.373312885151015e-05)
(0.3349620080446707 -3.147562636926437e-06 7.216200780905167e-05)
(0.3349547157576553 -5.129301593251698e-07 7.215849971033943e-05)
(0.3349528198335556 2.367622566304657e-06 7.215625330032878e-05)
(0.334970666637141 3.38827051583633e-06 7.215689910197814e-05)
(0.3349757976901283 -2.15203922373689e-06 7.215560950804732e-05)
(0.3349649366989055 -8.024799206788166e-07 7.214893896895096e-05)
(0.3349719941059737 2.96629818059104e-06 7.214804122242134e-05)
(0.3349767174696794 -1.993384454526029e-06 7.21442529963657e-05)
(0.3349656046264759 -3.377948185157447e-06 7.213886600071803e-05)
(0.3349517908923275 1.925700395982137e-06 7.213103889905641e-05)
(0.334971987812013 3.326162084566363e-06 7.213302390566866e-05)
(0.3349686477166264 6.698131852804238e-07 7.212733576488803e-05)
(0.3349721273020128 -1.966601219728181e-07 7.212600605818041e-05)
(0.3349716478524025 -4.708642379226612e-08 7.212139755967512e-05)
(0.3349748311710358 -1.296302289028299e-07 7.212072543792985e-05)
(0.334976417770033 1.360023424389722e-07 7.211709370130416e-05)
(0.3349760089988222 2.413636013543234e-07 7.211645892510431e-05)
(0.3349736857609458 1.395592420867404e-07 7.211270397423947e-05)
(0.3349740670178589 7.812987669849291e-08 7.211335668418737e-05)
(0.3349775648800467 -1.802255386016076e-07 7.211166381098673e-05)
(0.334975896270168 -3.837041475533999e-07 7.211323074071113e-05)
(0.3349757257245454 -2.050941638772887e-08 7.21118560806886e-05)
(0.334973099399518 2.719241795840252e-07 7.211412369603315e-05)
(0.334973824124496 -6.971766385576053e-08 7.211355703856946e-05)
(0.3349790986313737 -4.355677525860976e-10 7.211918300326176e-05)
(0.3349700027157793 5.358200647042154e-07 7.211666674465124e-05)
(0.334970955339506 -2.580539485126417e-06 7.212201103011341e-05)
(0.334961769596538 -3.541014204143714e-06 7.212071888225599e-05)
(0.3349509358675523 2.08209689223515e-06 7.212429845164953e-05)
(0.3349722074518359 3.984403569784231e-07 7.213000056490232e-05)
(0.3349653557296534 -2.529632016544937e-06 7.213484987086322e-05)
(0.3349549096216347 -2.236836239481481e-07 7.213293652816098e-05)
(0.3349560351653205 -3.319594350007754e-08 7.213998336316203e-05)
(0.3349509678087389 -1.263859558059517e-07 7.213918816961346e-05)
(0.3349559923792104 1.765092409198146e-07 7.214713394794102e-05)
(0.3349483221669002 6.766979626807323e-08 7.214450534465979e-05)
(0.3349462731242513 2.281431118550217e-06 7.215085910978568e-05)
(0.3349677997460732 3.23017364859971e-06 7.21545049198323e-05)
(0.3349752783425056 -2.068516633236725e-06 7.216243375661756e-05)
(0.3349658701030702 -3.217091885127906e-06 7.215703409978022e-05)
(0.3349557351413133 -5.926593241755943e-07 7.216070426898962e-05)
(0.3349527306173934 2.37513376671253e-06 7.215510764398395e-05)
(0.3349704963278439 3.397682665797983e-06 7.216541024056679e-05)
(0.3349764555108485 -2.038618264484861e-06 7.215929836804563e-05)
(0.4565304426919136 -2.374053151790323e-06 9.885644289342693e-05)
(0.4565305834973659 -4.572784207523821e-07 9.885464570003975e-05)
(0.4565307791333343 1.525819222305471e-06 9.88524784440908e-05)
(0.4565017904441447 2.619024152470471e-06 9.884180724014563e-05)
(0.4564998595880542 -1.399024752901993e-06 9.883839091418392e-05)
(0.4565305928910592 -8.66512430277692e-07 9.883957205673027e-05)
(0.4565017472053394 2.265511964708639e-06 9.88299499478301e-05)
(0.4565004774681338 -1.225741464788176e-06 9.882328911792386e-05)
(0.45653025441608 -2.562702455192775e-06 9.882593323593565e-05)
(0.456530455137737 1.122314685950897e-06 9.881941233238334e-05)
(0.4565030942143255 2.625450528307727e-06 9.880990902548972e-05)
(0.4564958862051208 7.931096285014603e-07 9.88015206193863e-05)
(0.4564990675104302 -3.501488460452505e-07 9.879918006445684e-05)
(0.4564990801472429 -9.536859696552596e-08 9.879284174991991e-05)
(0.4565020295334965 -1.566085534478052e-07 9.879134916560588e-05)
(0.4565026609827417 1.715225860410225e-07 9.878583606480176e-05)
(0.4565007324830153 3.657081574580407e-07 9.878436411730556e-05)
(0.456498213154737 2.372523114147178e-07 9.877909361286718e-05)
(0.4564975348012804 1.071480946026711e-07 9.877941164962994e-05)
(0.4565031605259233 -2.829176930817738e-07 9.877699797521358e-05)
(0.4565028916281941 -5.527870974926001e-07 9.877910815542113e-05)
(0.4565025440372436 -7.850251081861824e-08 9.877685966821685e-05)
(0.4565012652972882 3.786874394803734e-07 9.878025206337945e-05)
(0.4565015955829037 -8.211932920479406e-08 9.877900162065882e-05)
(0.4565039541821769 4.480788794710945e-08 9.878521645076557e-05)
(0.4564959112739059 7.605297881270114e-07 9.878276027671103e-05)
(0.4564956460411443 -1.874537248247855e-06 9.878938247691089e-05)
(0.4565270225763697 -2.851169466657851e-06 9.879707496492105e-05)
(0.4565293907104001 1.254841025122703e-06 9.880558666964213e-05)
(0.4565017547923608 2.192060935300636e-07 9.880071690516604e-05)
(0.4565304914163799 -1.673545790953391e-06 9.881577805769859e-05)
(0.4565301057760259 -9.811546706709446e-08 9.881635851367739e-05)
(0.4565302597626797 -1.617693473386859e-08 9.882566010805892e-05)
(0.4565276385416857 -1.405920856337055e-07 9.882558644616671e-05)
(0.4565323082314503 2.526088334350929e-07 9.883610840262666e-05)
(0.4565260947079889 1.988683110592692e-07 9.883382456883951e-05)
(0.4565263810816628 1.384180189067147e-06 9.884319788465783e-05)
(0.4564993805867282 2.357492948568889e-06 9.883585702059133e-05)
(0.456499282133189 -1.377958703702772e-06 9.884471307059343e-05)
(0.4565307839958164 -2.456372272976781e-06 9.884763914554173e-05)
(0.456531001881005 -5.178122954003029e-07 9.885600531012139e-05)
(0.4565306793227427 1.535750225629311e-06 9.884966270211035e-05)
(0.456501671502804 2.627710352374572e-06 9.885194927241997e-05)
(0.4564998949421271 -1.25221711866333e-06 9.88421536301447e-05)
(0.5705862064442696 -1.10100314463908e-06 0.0001241396082734265)
(0.570589043577267 -2.242383436906227e-07 0.0001241397136422771)
(0.5705906851967365 4.951153199345157e-07 0.0001241379173950413)
(0.5705611264711403 1.25479086863473e-06 0.000124126360211948)
(0.5705560792638129 -5.056744854062136e-07 0.0001241219415777294)
(0.5705856562766766 -6.163043766639866e-07 0.0001241219725200176)
(0.5705599720368242 1.101642783128695e-06 0.0001241123116820301)
(0.5705565329423116 -3.682426442374901e-07 0.0001241038705436984)
(0.57058434013398 -1.160572386348699e-06 0.0001241053249362418)
(0.5705903739834689 2.569705086544192e-07 0.000124098516519029)
(0.5705614104214614 1.353293497329403e-06 0.0001240875503218109)
(0.5705558328870856 6.707043349209204e-07 0.0001240777696976917)
(0.5705574229368446 -4.098090986127461e-07 0.0001240740687413158)
(0.5705582215815221 -1.711400312914684e-07 0.0001240661145892615)
(0.5705587896478813 -1.525361480576727e-07 0.000124063151988016)
(0.5705585054816106 1.748858754457874e-07 0.0001240557319392349)
(0.5705565299945927 3.748989868677903e-07 0.0001240535294810857)
(0.5705567791929488 2.586002294358735e-07 0.0001240472986819945)
(0.5705548574396662 9.842954765458022e-08 0.0001240469409491232)
(0.5705565672641362 -2.480199103896004e-07 0.0001240423786812973)
(0.5705573410719265 -5.104899115709016e-07 0.000124044620397509)
(0.570558552548503 -1.550881704215252e-07 0.0001240416747162649)
(0.5705599140079931 2.919036986564003e-07 0.0001240461430431595)
(0.5705584876141745 -1.009244640029771e-07 0.0001240438134218833)
(0.5705585836690049 1.388437696921303e-07 0.0001240503193291091)
(0.5705553945535382 8.641957284190366e-07 0.0001240486821205066)
(0.5705544594920067 -8.264792286961745e-07 0.0001240563703895764)
(0.5705826047494679 -1.532576065663555e-06 0.0001240633753474209)
(0.5705894589469914 3.212680717403566e-07 0.0001240746074761064)
(0.5705608734359703 -8.493261954659247e-08 0.0001240695593570747)
(0.5705849104546447 -5.82955849099638e-07 0.0001240857446728852)
(0.5705885679206049 9.281265777777511e-08 0.0001240875955427592)
(0.570588356947227 3.934912115088394e-08 0.000124099078492165)
(0.5705885942258823 -1.108647564316604e-07 0.0001240999499598957)
(0.5705896588590095 2.521042938016951e-07 0.0001241121347440931)
(0.5705876295842361 3.039732573615175e-07 0.00012411107980641)
(0.5705895513505908 3.14728065845486e-07 0.0001241232363040764)
(0.5705599806681947 9.405107049523998e-07 0.0001241151648989184)
(0.5705559155095249 -5.899761059234196e-07 0.0001241256145465412)
(0.5705852985973027 -1.181952404291251e-06 0.0001241279304281219)
(0.5705891731395676 -2.508685459619206e-07 0.0001241394553912832)
(0.5705905084018705 5.062767811714099e-07 0.0001241327749018459)
(0.5705610555714455 1.267359819108976e-06 0.0001241368301938331)
(0.5705558489171931 -3.702717647978554e-07 0.0001241250732159628)
(0.6819402377881595 -2.574637945402087e-07 0.0001490962512245225)
(0.6819418340179635 1.342255177008717e-08 0.0001490982029863884)
(0.6819432946122135 -4.932073945426243e-08 0.0001490970876255415)
(0.6819320334920635 3.001606642380463e-07 0.000149089344088634)
(0.6819287735162747 -7.534689630210204e-08 0.0001490852798260525)
(0.681940324632171 -3.162087479059074e-07 0.0001490806899478689)
(0.6819306628257977 3.515467811191774e-07 0.0001490740243763358)
(0.6819292802896357 2.65485725182137e-08 0.0001490649847795835)
(0.6819386367675414 -1.952399339438681e-07 0.0001490616104660796)
(0.6819430555009607 -1.04628670997414e-07 0.0001490530213669576)
(0.6819310113287794 4.542673632503457e-07 0.0001490447213618826)
(0.6819303932920576 4.411895513140439e-07 0.0001490344009153418)
(0.6819310362002089 -3.166718053017419e-07 0.0001490293612672768)
(0.6819306606690738 -1.784607867854726e-07 0.0001490193999804049)
(0.6819296747404477 -1.481960941720973e-07 0.0001490149378400865)
(0.6819284016267029 1.025452863657465e-07 0.0001490055533004866)
(0.681927810401677 2.470325924609285e-07 0.0001490026926337792)
(0.6819301415060881 2.204907782021932e-07 0.0001489952892918043)
(0.6819289373171106 2.958329738761564e-08 0.0001489943531354237)
(0.6819290393203059 -2.01897577824368e-07 0.0001489880644396052)
(0.6819278503398681 -3.189648352586937e-07 0.0001489894399597193)
(0.681928969192156 -7.479621014065067e-08 0.0001489852872584705)
(0.6819309959654798 1.32965756747579e-07 0.0001489899988702224)
(0.6819302555221547 -2.072536545390983e-07 0.0001489870913389314)
(0.681929394909121 2.111282257962163e-07 0.0001489937792141723)
(0.6819295830468941 8.689721747898007e-07 0.0001489925858374443)
(0.6819295187333525 -1.878286807922618e-07 0.0001490013694883991)
(0.6819389199512422 -5.584140144022133e-07 0.0001490041442781218)
(0.6819423469654061 -1.175769361520602e-07 0.0001490160126110498)
(0.6819320027699568 -3.167308167726522e-07 0.0001490151351561565)
(0.6819390445810912 2.423574875393976e-08 0.0001490293602663643)
(0.6819417265150524 2.167026385836234e-07 0.0001490314939822747)
(0.6819415685230027 9.976589414348883e-08 0.0001490450513195099)
(0.68194312020385 -7.986905664155959e-08 0.0001490467397673161)
(0.6819416459699348 2.092005870821907e-07 0.000149060616361155)
(0.6819422935381081 3.321374177859572e-07 0.0001490607743798872)
(0.6819446715835913 -2.62562907126749e-07 0.0001490753734728188)
(0.6819325269140374 -1.593943233303115e-10 0.000149071411871419)
(0.6819293898942401 -2.195380715932297e-07 0.0001490843880051464)
(0.6819400031409962 -3.263706532849476e-07 0.0001490828421398639)
(0.6819419826909038 2.642348763069723e-08 0.0001490961162478463)
(0.6819432832128373 -3.464839205059035e-08 0.0001490894746957807)
(0.6819319894070177 3.204343932393822e-07 0.0001490991558233692)
(0.6819287041249614 4.263227984089005e-08 0.0001490878954083379)
(0.7807692706923983 -3.278001879930648e-08 0.00017160451378488)
(0.7807695227151306 1.155391448707634e-07 0.0001716070918764194)
(0.7807701183267516 -1.277534609525483e-07 0.0001716067038459647)
(0.780768129194563 2.971930588516894e-08 0.0001716012582662693)
(0.7807671500013474 -4.670661942678617e-08 0.000171597798750431)
(0.7807695857309549 -1.711337455007543e-07 0.0001715908447962119)
(0.7807671825540102 1.700645101159086e-07 0.0001715853568525286)
(0.7807676342522716 5.575716127614857e-08 0.0001715759893940458)
(0.7807684361603775 6.93114243459548e-08 0.0001715699672570918)
(0.7807700680682624 -7.92770520547854e-08 0.000171559640650962)
(0.7807671342800219 1.829895485059047e-07 0.0001715523525974446)
(0.780767754322595 2.389043279726693e-07 0.000171541004798186)
(0.7807687394702045 -2.150917949114697e-07 0.0001715348790667487)
(0.7807677510354695 -1.160171839281463e-07 0.0001715233435029912)
(0.780766985757822 -9.12518793558565e-08 0.0001715177125955685)
(0.7807659811415345 5.446472905581442e-08 0.0001715069206606402)
(0.780765955353335 6.637606542485812e-08 0.0001715030988857748)
(0.7807674926269595 1.510368420085548e-07 0.0001714941664558098)
(0.7807670702893933 1.8492206114175e-08 0.0001714924699519273)
(0.7807680704350674 -1.02643066670538e-07 0.000171485249853233)
(0.7807666480907988 -1.672730483078898e-07 0.0001714859295089942)
(0.7807669890519001 -3.521800745688871e-08 0.0001714806488509433)
(0.7807674085083088 3.785580154119952e-08 0.0001714847176792113)
(0.7807675753161548 -2.446307766434689e-07 0.0001714815028106976)
(0.7807670237700831 2.151998273551545e-07 0.000171488315307221)
(0.7807670949966541 7.624498569889202e-07 0.0001714869481972147)
(0.7807678166518541 -6.903313553305143e-08 0.0001714964407713871)
(0.7807691732454579 -2.267809050382135e-07 0.0001714974783913705)
(0.7807695966059068 -1.450611386821825e-07 0.0001715095879557069)
(0.7807683117143387 -3.509015400672042e-07 0.0001715111176867325)
(0.7807684564062835 1.299210818243076e-07 0.0001715250590424328)
(0.7807695844207134 2.06169378759238e-07 0.0001715275251018844)
(0.7807694891913312 9.122632974507895e-08 0.0001715426604051045)
(0.7807705974058504 -5.605857759510491e-08 0.0001715450296053901)
(0.7807697363060557 2.292048978347609e-07 0.0001715607684094091)
(0.7807700961064554 2.711280916944925e-07 0.0001715617542654281)
(0.7807715858502149 -4.000747940452315e-07 0.000171577997670681)
(0.7807690462284266 -2.404699468799951e-07 0.0001715768823540844)
(0.7807680318080157 -1.711860079772413e-07 0.0001715920804101417)
(0.780769776993852 -8.305324337548723e-08 0.0001715892683031338)
(0.7807698862654131 1.650393912083149e-07 0.0001716036451186279)
(0.7807702848070165 -8.904487444922708e-08 0.0001715975305845616)
(0.7807680623464901 6.220786693734887e-08 0.0001716103379974464)
(0.7807672106262017 7.666111548102843e-08 0.0001716010727640873)
(0.8587715316564142 -1.83289559048656e-08 0.0001897740574096093)
(0.8587714755802893 1.15602662705137e-07 0.0001897767747946654)
(0.8587716519180291 -1.091882808370085e-07 0.0001897765132201764)
(0.8587714050944183 1.061327548869381e-08 0.000189771557237818)
(0.8587712347462485 -6.093053704040627e-08 0.0001897681156127989)
(0.858771708282945 -1.296380462972046e-07 0.0001897604713672617)
(0.8587709043013466 1.495106095968177e-07 0.0001897548133021407)
(0.8587715672542008 5.138855199346175e-08 0.0001897449636026544)
(0.8587711830624359 8.506501603705309e-08 0.0001897379008651273)
(0.8587716147101033 -3.656766845745626e-08 0.0001897265211670966)
(0.8587709830543985 1.56453722143101e-07 0.0001897187818482242)
(0.8587711304350875 1.237220925399988e-07 0.0001897064416034723)
(0.8587717956511209 -1.452688822999062e-07 0.0001896991642502755)
(0.8587712900843741 -1.332262497162783e-08 0.0001896867819621472)
(0.858771070987932 -3.029525198942816e-08 0.0001896801870462312)
(0.8587707251554763 4.252991388163097e-08 0.0001896686106383371)
(0.8587705858522807 -4.683329496470556e-08 0.0001896637682746654)
(0.8587711222330692 1.055632023488997e-07 0.000189653809744269)
(0.8587708724149441 -1.296066109588271e-08 0.0001896512986917627)
(0.8587715869987659 -5.737419659851632e-08 0.0001896434016544396)
(0.8587707607395865 -5.472441362532256e-08 0.0001896436002939558)
(0.8587709884142902 -3.846520546228962e-08 0.000189637896190527)
(0.8587710054136878 6.288442496800227e-09 0.0001896415059130193)
(0.8587710936219499 -2.502843861466764e-07 0.0001896381921199052)
(0.8587707353408505 1.947283687350301e-07 0.0001896449760659684)
(0.8587706341417167 6.883751002962065e-07 0.0001896437947153382)
(0.8587711989270307 -7.057555523555381e-08 0.0001896535373898713)
(0.8587712614301414 -1.902042632877658e-07 0.0001896546842515723)
(0.858771180750581 -1.35456899547253e-07 0.0001896672124732931)
(0.8587713924000532 -3.088852322221292e-07 0.0001896697456704969)
(0.8587709640322768 1.107106813358453e-07 0.0001896843290400237)
(0.8587714903485342 1.480735761816942e-07 0.0001896875151617739)
(0.8587714595838275 4.93161658677495e-08 0.0001897036458420511)
(0.85877187005736 -6.68659586272249e-08 0.0001897067801380411)
(0.8587717342398185 2.302692934232512e-07 0.0001897237638205994)
(0.8587718262455786 2.185459585151326e-07 0.0001897256637949588)
(0.8587724355348449 -4.115052291949754e-07 0.0001897428428254822)
(0.8587718784528989 -2.426285958934317e-07 0.0001897430118176936)
(0.858771751769457 -1.456937241388974e-07 0.0001897594533284458)
(0.8587720192775887 -5.201686633033059e-08 0.0001897570577055235)
(0.8587718108581046 1.928363435573963e-07 0.0001897722374263153)
(0.8587718367982349 -3.684960153616387e-08 0.0001897666827833053)
(0.8587713602620136 6.245891444819158e-08 0.0001897805873480406)
(0.8587712960629122 7.485373712355575e-08 0.0001897722477189702)
(0.9187586268619792 -8.746859741449169e-09 0.0002041153826281328)
(0.9187585711139837 9.567112156334533e-08 0.0002041183668422847)
(0.918758654630311 -9.746791818866749e-08 0.0002041176889728934)
(0.9187585390499194 -6.258576912906462e-10 0.000204112501821076)
(0.9187585850161042 -5.29654639503551e-08 0.0002041085675638155)
(0.9187586740086168 -1.032683733584191e-07 0.0002041004425026463)
(0.9187583012370456 1.228645973439742e-07 0.0002040941698552417)
(0.918758748218194 6.173571657058694e-08 0.0002040837579577233)
(0.9187585098366373 9.359450391896114e-08 0.0002040758915183463)
(0.9187585965409524 -2.899096146317639e-08 0.0002040638174264975)
(0.9187584038832028 1.542815367078766e-07 0.0002040552528292169)
(0.9187584450393033 8.707023513483849e-08 0.0002040422701441536)
(0.918758694043831 -1.167066327580643e-07 0.000204033949873619)
(0.918758441617909 3.266356326088773e-08 0.0002040210234357485)
(0.9187584104695475 -1.524579153530404e-08 0.000204013585199589)
(0.9187583723450949 4.029876048747766e-08 0.0002040015766900241)
(0.9187582044074797 -5.899753167556102e-08 0.0002039959497429792)
(0.9187583867144765 9.226656773013026e-08 0.0002039855669746877)
(0.9187582207021525 -2.222969096808257e-08 0.0002039824593534061)
(0.918758517610471 -3.3372813997041e-08 0.0002039743103228519)
(0.9187580800932313 -1.613739326252138e-09 0.0002039741826288594)
(0.9187581854004789 -6.294690847178693e-08 0.0002039685143616864)
(0.9187581984205659 3.953822666760989e-09 0.0002039719196763077)
(0.9187582310434926 -2.305350934566692e-07 0.0002039688803768993)
(0.9187579059376914 1.730868099546554e-07 0.0002039756848684308)
(0.9187579768803111 6.53559120934219e-07 0.0002039750803990797)
(0.9187583799776251 -3.503941622492837e-08 0.0002039850574087041)
(0.9187582241006375 -1.972962552813735e-07 0.0002039868086236498)
(0.9187581551560877 -1.552888057373092e-07 0.0002039997607691934)
(0.9187583257405023 -2.85948887214998e-07 0.0002040030942563235)
(0.9187581326116186 7.946584306115451e-08 0.0002040182940076476)
(0.9187584861232796 1.028333869258303e-07 0.0002040223401529526)
(0.9187585269777331 3.201768588441251e-08 0.0002040391553682652)
(0.9187586287037087 -8.128077637370483e-08 0.0002040430925351758)
(0.9187586575964606 1.831271775273846e-07 0.0002040608172643319)
(0.9187588643991887 1.851388114760286e-07 0.0002040635722480932)
(0.9187591010023695 -3.954867570751542e-07 0.0002040813762361311)
(0.9187587119088145 -2.387228839283263e-07 0.0002040821958832545)
(0.9187587450095674 -1.155706636704299e-07 0.0002040993467378002)
(0.9187588553487699 -4.053315275271025e-08 0.0002040972918233868)
(0.9187587343128724 1.898799260776656e-07 0.0002041131420314679)
(0.918758734090047 5.415502670947136e-10 0.0002041075896518723)
(0.91875849532548 6.897877037603318e-08 0.0002041222203726002)
(0.9187585827035687 8.844289697001959e-08 0.0002041132676074029)
(0.9654879697002666 6.442494243662716e-10 0.0002155740668374789)
(0.9654879340991731 7.531515818518785e-08 0.0002155772353645876)
(0.9654880040763686 -8.489621691879425e-08 0.0002155759232128032)
(0.9654878792867432 -1.43527224453689e-08 0.0002155702772172225)
(0.9654879740001248 -4.237202078295073e-08 0.0002155656291518842)
(0.9654879495538335 -8.101626667281569e-08 0.0002155569616948444)
(0.9654877649818147 9.573027992889289e-08 0.0002155499300935344)
(0.9654880271915722 6.900051456282921e-08 0.0002155389323053939)
(0.9654879471082966 9.994323996544e-08 0.0002155302622179218)
(0.9654879419562605 -2.31026914974207e-08 0.0002155176173102522)
(0.9654878377578783 1.430521246369009e-07 0.0002155082283958328)
(0.9654879076312656 7.938721996226506e-08 0.0002154947698771154)
(0.9654879686823873 -9.145190526718102e-08 0.000215485610899251)
(0.9654878244774883 4.921019922875459e-08 0.0002154723070328203)
(0.9654878263829734 -1.465904451952436e-08 0.0002154641936861015)
(0.9654878543891648 3.75497844394069e-08 0.000215451944282986)
(0.9654876995161112 -4.197827003153479e-08 0.0002154457729696032)
(0.9654877808171017 8.617911793723062e-08 0.0002154352862322526)
(0.9654876970263155 -1.720968378385926e-08 0.0002154318282838879)
(0.9654877600577764 -1.283715850543067e-08 0.0002154237297380882)
(0.9654875603964767 2.65657518417445e-08 0.000215423473155987)
(0.9654875764610502 -8.892906941235024e-08 0.0002154180900855558)
(0.9654875572086493 1.37706804805336e-08 0.0002154214928436232)
(0.9654876066337187 -1.813600325472611e-07 0.0002154189369334431)
(0.96548730024889 1.483909762488203e-07 0.0002154259108966345)
(0.965487475127189 5.947222034162873e-07 0.000215425999408162)
(0.9654878396559418 1.966595084068093e-09 0.0002154363250106561)
(0.9654876398153809 -1.969974458920338e-07 0.0002154387966193824)
(0.9654875658655785 -1.651736526693534e-07 0.0002154521928449301)
(0.9654876095411806 -2.669362973627222e-07 0.0002154562959972401)
(0.9654875173598142 4.573900463448674e-08 0.0002154720391688884)
(0.9654877868644733 6.545589994973922e-08 0.0002154768754049446)
(0.9654878592242034 2.296814156401808e-08 0.0002154942589394981)
(0.9654878871051409 -8.156414847602286e-08 0.0002154988880181802)
(0.9654879211690951 1.220919242391809e-07 0.0002155171667285539)
(0.9654881763723298 1.485857571845455e-07 0.0002155205155417984)
(0.9654883206163364 -3.579107237046996e-07 0.0002155388363089611)
(0.9654879360097292 -2.307422191504707e-07 0.0002155399540358022)
(0.9654879611676813 -9.249747249991878e-08 0.0002155576342699475)
(0.9654880132972437 -3.257845260121317e-08 0.0002155555411316859)
(0.9654879564584368 1.761448638051735e-07 0.0002155719866422134)
(0.9654879839950712 2.452204867930933e-08 0.0002155659434738668)
(0.9654878193498148 6.682247765418789e-08 0.0002155812575421436)
(0.9654879273710015 9.525463317707473e-08 0.0002155710103178348)
(1.002913951835449 6.305217489990222e-09 0.0002249605998887245)
(1.002913925250143 5.733558272949906e-08 0.0002249637954962628)
(1.002913983867979 -7.122256409205638e-08 0.0002249618365915588)
(1.00291386552208 -2.438526355103522e-08 0.0002249556955127972)
(1.002913950917425 -3.328292999565688e-08 0.000224950314861586)
(1.002913893533077 -6.29990849157656e-08 0.0002249410965691363)