/*--------------------------------*- C++ -*----------------------------------*\
| =========                 |                                                 |
| \\      /  F ield         | OpenFOAM: The Open Source CFD Toolbox           |
|  \\    /   O peration     | Version:  v1812                                 |
|   \\  /    A nd           | Web:      www.OpenFOAM.com                      |
|    \\/     M anipulation  |                                                 |
\*---------------------------------------------------------------------------*/
FoamFile
{
    version     2.0;
    format      ascii;
    class       volScalarField;
    location    "10000";
    object      nut;
}
// * * * * * * * * * * * * * * * * * * * * * * * * * * * * * * * * * * * * * //

dimensions      [0 2 -1 0 0 0 0];


internalField   nonuniform List<scalar> 
2838
(
0.0004405730609292824
0.0004405730609292828
0.000440573060929283
0.0004405730609292833
0.0004405730609292832
0.0004405730609292831
0.0004405730609292834
0.0004405730609292829
0.000440573060929283
0.0004405730609292834
0.000440573060929283
0.0004405730609292833
0.0004405730609292828
0.000440573060929283
0.0004405730609292831
0.0004405730609292825
0.0004405730609292833
0.0004405730609292827
0.000440573060929283
0.0004405730609292824
0.0004405730609292829
0.0004405730609292831
0.0004405730609292835
0.0004405730609292827
0.0004405730609292823
0.0004405730609292831
0.0004405730609292825
0.0004405730609292831
0.0004405730609292819
0.0004405730609292833
0.0004405730609292825
0.0004405730609292824
0.000440573060929283
0.0004405730609292824
0.0004405730609292818
0.0004405730609292827
0.0004405730609292837
0.0004405730609292824
0.0004405730609292819
0.0004405730609292822
0.0004405730609292827
0.0004405730609292823
0.0004405730609292828
0.0004405730609292823
0.0004405730609292825
0.0004405730609292821
0.0004405730609292827
0.000440573060929283
0.0004405730609292819
0.0004405730609292821
0.0004405730609292827
0.0004405730609292828
0.0004405730609292827
0.0004405730609292819
0.000440573060929282
0.0004405730609292826
0.0004405730609292821
0.0004405730609292809
0.0004405730609292837
0.0004405730609292817
0.0004405730609292831
0.0004405730609292818
0.0004405730609292831
0.0004405730609292816
0.0004405730609292831
0.0004405730609292826
0.0002943760313823292
0.0002943760313823165
0.0002943760313823092
0.0002943760313823114
0.0002943760313823122
0.0002943760313823085
0.0002943760313823112
0.000294376031382312
0.0002943760313823115
0.0002943760313823102
0.0002943760313823132
0.0002943760313823105
0.0002943760313823094
0.000294376031382309
0.0002943760313823118
0.0002943760313823083
0.0002943760313823082
0.0002943760313823108
0.0002943760313823074
0.0002943760313823073
0.0002943760313823105
0.0002943760313823071
0.0002943760313823096
0.0002943760313823063
0.000294376031382308
0.0002943760313823059
0.0002943760313823086
0.0002943760313823062
0.0002943760313823073
0.0002943760313823077
0.0002943760313823084
0.0002943760313823093
0.0002943760313823108
0.0002943760313823063
0.0002943760313823025
0.0002943760313823038
0.0002943760313823099
0.0002943760313823078
0.0002943760313823097
0.0002943760313823055
0.0002943760313823085
0.0002943760313823046
0.0002943760313823076
0.0002943760313823062
0.0002943760313823094
0.000294376031382304
0.0002943760313823108
0.0002943760313823028
0.0002943760313823104
0.0002943760313823062
0.0002943760313823052
0.000294376031382301
0.0002943760313823077
0.0002943760313822995
0.0002943760313823068
0.000294376031382301
0.000294376031382307
0.0002943760313822992
0.0002943760313823085
0.0002943760313822954
0.0002943760313823017
0.0002943760313822946
0.000294376031382306
0.0002943760313822954
0.0002943760313823104
0.0002943760313822906
0.0006034259866957062
0.0006034259866956855
0.0006034259866956733
0.0006034259866956814
0.0006034259866956793
0.0006034259866956787
0.0006034259866956875
0.0006034259866956817
0.0006034259866956816
0.0006034259866956813
0.0006034259866956751
0.0006034259866956845
0.0006034259866956784
0.0006034259866956752
0.0006034259866956824
0.0006034259866956755
0.0006034259866956723
0.00060342598669568
0.0006034259866956739
0.0006034259866956733
0.0006034259866956807
0.0006034259866956753
0.0006034259866956757
0.0006034259866956828
0.0006034259866956807
0.0006034259866956752
0.0006034259866956812
0.0006034259866956789
0.0006034259866956785
0.0006034259866956856
0.0006034259866956846
0.0006034259866956892
0.0006034259866956859
0.0006034259866956782
0.0006034259866956749
0.0006034259866956764
0.000603425986695681
0.000603425986695687
0.0006034259866956814
0.0006034259866956763
0.0006034259866956787
0.0006034259866956824
0.0006034259866956784
0.0006034259866956887
0.0006034259866956836
0.0006034259866956791
0.0006034259866956897
0.0006034259866956856
0.0006034259866956928
0.0006034259866956901
0.0006034259866956723
0.0006034259866956756
0.0006034259866956777
0.0006034259866956731
0.0006034259866956703
0.000603425986695674
0.0006034259866956782
0.0006034259866956755
0.0006034259866956774
0.000603425986695661
0.0006034259866956602
0.0006034259866956632
0.0006034259866956687
0.0006034259866956685
0.0006034259866956719
0.0006034259866956617
0.0008534893637343298
0.0008534893637343196
0.0008534893637343055
0.0008534893637343178
0.0008534893637343154
0.0008534893637343077
0.0008534893637343168
0.000853489363734315
0.0008534893637343194
0.0008534893637343092
0.0008534893637343071
0.000853489363734316
0.0008534893637343096
0.0008534893637342999
0.0008534893637343095
0.0008534893637343006
0.0008534893637342969
0.0008534893637343064
0.0008534893637342984
0.000853489363734297
0.0008534893637343064
0.0008534893637343005
0.0008534893637342995
0.0008534893637343121
0.0008534893637343071
0.0008534893637343014
0.0008534893637343104
0.0008534893637343113
0.0008534893637343098
0.00085348936373432
0.0008534893637343156
0.0008534893637343235
0.0008534893637343197
0.0008534893637343168
0.0008534893637343211
0.0008534893637343135
0.0008534893637343211
0.000853489363734322
0.000853489363734316
0.0008534893637343248
0.0008534893637343175
0.0008534893637343248
0.0008534893637343216
0.0008534893637343308
0.0008534893637343303
0.0008534893637343153
0.0008534893637343229
0.0008534893637343219
0.0008534893637343328
0.0008534893637343315
0.000853489363734307
0.0008534893637343129
0.0008534893637343073
0.0008534893637342995
0.0008534893637342968
0.0008534893637343075
0.000853489363734306
0.0008534893637343139
0.0008534893637343058
0.0008534893637342914
0.0008534893637342782
0.0008534893637342982
0.0008534893637342957
0.0008534893637343079
0.0008534893637342952
0.0008534893637342769
0.001127146806149565
0.001127146806149571
0.001127146806149558
0.00112714680614957
0.001127146806149586
0.001127146806149548
0.001127146806149559
0.001127146806149558
0.001127146806149571
0.001127146806149572
0.001127146806149537
0.001127146806149568
0.001127146806149557
0.001127146806149539
0.001127146806149553
0.001127146806149545
0.001127146806149523
0.001127146806149545
0.00112714680614954
0.001127146806149521
0.001127146806149546
0.001127146806149557
0.001127146806149525
0.001127146806149561
0.001127146806149552
0.001127146806149541
0.001127146806149566
0.001127146806149558
0.001127146806149553
0.001127146806149571
0.001127146806149562
0.001127146806149578
0.00112714680614959
0.00112714680614956
0.001127146806149576
0.001127146806149572
0.001127146806149585
0.001127146806149585
0.00112714680614956
0.00112714680614959
0.001127146806149572
0.001127146806149584
0.001127146806149579
0.001127146806149598
0.001127146806149591
0.001127146806149576
0.001127146806149588
0.001127146806149567
0.001127146806149597
0.001127146806149591
0.001127146806149565
0.001127146806149561
0.001127146806149549
0.001127146806149552
0.001127146806149547
0.001127146806149556
0.001127146806149548
0.001127146806149566
0.001127146806149552
0.001127146806149552
0.001127146806149512
0.001127146806149544
0.001127146806149533
0.001127146806149553
0.00112714680614955
0.00112714680614951
0.001493397945891372
0.001493397945891382
0.001493397945891368
0.001493397945891402
0.001493397945891388
0.001493397945891353
0.001493397945891353
0.001493397945891348
0.001493397945891372
0.001493397945891406
0.001493397945891317
0.001493397945891357
0.001493397945891395
0.001493397945891311
0.001493397945891339
0.001493397945891373
0.001493397945891288
0.00149339794589133
0.001493397945891369
0.001493397945891292
0.001493397945891332
0.001493397945891373
0.001493397945891298
0.001493397945891347
0.001493397945891388
0.001493397945891319
0.001493397945891363
0.001493397945891397
0.001493397945891333
0.001493397945891372
0.001493397945891363
0.001493397945891414
0.001493397945891394
0.001493397945891374
0.001493397945891384
0.001493397945891387
0.001493397945891428
0.001493397945891401
0.001493397945891369
0.001493397945891416
0.001493397945891387
0.001493397945891408
0.001493397945891392
0.001493397945891449
0.001493397945891417
0.001493397945891392
0.001493397945891404
0.001493397945891388
0.001493397945891413
0.001493397945891444
0.001493397945891418
0.00149339794589138
0.001493397945891323
0.001493397945891345
0.001493397945891339
0.001493397945891349
0.001493397945891339
0.0014933979458914
0.001493397945891349
0.00149339794589137
0.001493397945891302
0.001493397945891339
0.00149339794589131
0.00149339794589137
0.001493397945891328
0.0014933979458913
0.002004847424957154
0.00200484742495708
0.002004847424957059
0.002004847424957122
0.002004847424957082
0.002004847424957035
0.002004847424957002
0.002004847424956991
0.002004847424957086
0.002004847424957059
0.002004847424956987
0.002004847424957071
0.002004847424957036
0.002004847424956968
0.002004847424957041
0.002004847424956992
0.002004847424956931
0.002004847424957035
0.002004847424956996
0.00200484742495694
0.002004847424957041
0.002004847424956998
0.002004847424956952
0.002004847424957057
0.002004847424957037
0.00200484742495699
0.002004847424957093
0.002004847424957028
0.002004847424957012
0.002004847424957053
0.002004847424957048
0.002004847424957161
0.002004847424957092
0.002004847424957061
0.002004847424957074
0.002004847424957083
0.002004847424957105
0.002004847424957181
0.002004847424957035
0.002004847424957126
0.002004847424957111
0.002004847424957148
0.002004847424957094
0.002004847424957157
0.002004847424957227
0.002004847424957067
0.00200484742495712
0.002004847424957074
0.002004847424957163
0.00200484742495712
0.002004847424957208
0.002004847424957145
0.002004847424956992
0.002004847424957012
0.002004847424956987
0.002004847424957002
0.002004847424956998
0.002004847424957061
0.002004847424957103
0.002004847424956948
0.002004847424956994
0.00200484742495709
0.002004847424956905
0.002004847424957045
0.002004847424956984
0.002004847424956939
0.002612164727953873
0.002612164727953868
0.002612164727953647
0.00261216472795368
0.002612164727953698
0.002612164727953797
0.002612164727953523
0.002612164727953511
0.002612164727953692
0.002612164727953657
0.00261216472795355
0.002612164727953699
0.002612164727953616
0.002612164727953516
0.002612164727953602
0.002612164727953547
0.002612164727953466
0.002612164727953557
0.002612164727953716
0.002612164727953443
0.002612164727953563
0.002612164727953714
0.002612164727953467
0.002612164727953683
0.002612164727953649
0.00261216472795358
0.002612164727953768
0.002612164727953687
0.002612164727953622
0.002612164727953688
0.002612164727953701
0.002612164727953778
0.002612164727953873
0.002612164727953649
0.002612164727953707
0.002612164727953852
0.002612164727953629
0.002612164727953703
0.00261216472795369
0.002612164727953766
0.002612164727953785
0.002612164727953795
0.002612164727953751
0.002612164727953838
0.002612164727953987
0.002612164727953707
0.00261216472795374
0.002612164727953716
0.00261216472795374
0.002612164727953744
0.002612164727953897
0.002612164727953681
0.002612164727953801
0.002612164727953786
0.002612164727953517
0.002612164727953568
0.002612164727953577
0.002612164727953637
0.002612164727953734
0.002612164727953455
0.002612164727953556
0.002612164727953728
0.00261216472795342
0.002612164727953632
0.002612164727953562
0.002612164727953481
0.003202256415568278
0.003202256415568431
0.003202256415568036
0.003202256415568339
0.003202256415568162
0.003202256415568049
0.003202256415568018
0.003202256415567967
0.003202256415568177
0.003202256415568097
0.003202256415567933
0.003202256415568155
0.003202256415567996
0.00320225641556787
0.003202256415568103
0.003202256415567991
0.003202256415567852
0.003202256415567958
0.003202256415568215
0.003202256415567815
0.003202256415567977
0.003202256415568241
0.003202256415567866
0.00320225641556818
0.00320225641556813
0.003202256415568034
0.003202256415568183
0.003202256415568395
0.003202256415568042
0.003202256415568456
0.003202256415568292
0.003202256415568267
0.003202256415568211
0.003202256415568182
0.003202256415568257
0.003202256415568204
0.003202256415568143
0.003202256415568149
0.003202256415568181
0.003202256415568596
0.003202256415568402
0.003202256415568574
0.00320225641556822
0.003202256415568522
0.003202256415568399
0.003202256415568281
0.003202256415568236
0.003202256415568423
0.003202256415568042
0.003202256415568224
0.003202256415568415
0.003202256415568045
0.003202256415568196
0.003202256415568188
0.003202256415567966
0.003202256415568217
0.003202256415568007
0.003202256415568006
0.003202256415568125
0.00320225641556777
0.003202256415568083
0.003202256415567956
0.003202256415567786
0.003202256415568033
0.003202256415567939
0.003202256415567822
0.003703168894282995
0.003703168894282926
0.003703168894282855
0.003703168894283255
0.003703168894282837
0.003703168894282806
0.003703168894282927
0.003703168894282761
0.003703168894283034
0.003703168894282902
0.003703168894282678
0.003703168894282757
0.003703168894282656
0.003703168894282557
0.003703168894282896
0.003703168894282817
0.003703168894282622
0.003703168894282948
0.003703168894282846
0.003703168894282671
0.003703168894282833
0.003703168894283062
0.003703168894282719
0.003703168894283125
0.003703168894283045
0.00370316889428292
0.003703168894283107
0.003703168894283458
0.003703168894282972
0.003703168894283449
0.003703168894283271
0.003703168894283406
0.00370316889428325
0.003703168894283454
0.003703168894283093
0.003703168894283129
0.00370316889428308
0.003703168894283118
0.003703168894283124
0.003703168894283443
0.003703168894283424
0.003703168894283526
0.003703168894283329
0.003703168894283628
0.003703168894283289
0.003703168894283418
0.003703168894283039
0.003703168894283183
0.003703168894283032
0.003703168894283072
0.003703168894282979
0.003703168894282928
0.003703168894283033
0.003703168894283017
0.003703168894282799
0.003703168894283088
0.003703168894282685
0.003703168894282705
0.003703168894282709
0.003703168894282588
0.003703168894282721
0.003703168894282928
0.003703168894282381
0.003703168894282791
0.003703168894282675
0.003703168894282507
0.004101754151036725
0.004101754151036688
0.004101754151036833
0.004101754151037244
0.00410175415103702
0.004101754151036489
0.004101754151036577
0.004101754151036539
0.004101754151036725
0.004101754151036775
0.004101754151036416
0.004101754151036788
0.004101754151036341
0.004101754151036279
0.004101754151036537
0.004101754151036975
0.004101754151036317
0.004101754151036597
0.00410175415103698
0.004101754151036424
0.004101754151036716
0.004101754151037184
0.004101754151036582
0.00410175415103715
0.004101754151037025
0.004101754151036874
0.004101754151037348
0.004101754151037187
0.004101754151037067
0.004101754151037577
0.004101754151037303
0.004101754151037741
0.004101754151037415
0.004101754151037201
0.004101754151037542
0.004101754151037361
0.004101754151037161
0.004101754151037118
0.004101754151037093
0.004101754151037783
0.004101754151037475
0.004101754151037436
0.004101754151037522
0.004101754151037732
0.004101754151037079
0.004101754151037417
0.004101754151036979
0.004101754151037047
0.004101754151037121
0.004101754151037357
0.004101754151036676
0.00410175415103709
0.004101754151036666
0.004101754151036635
0.004101754151036635
0.004101754151036662
0.004101754151036608
0.004101754151036871
0.004101754151036546
0.004101754151036164
0.00410175415103664
0.00410175415103647
0.004101754151036184
0.00410175415103636
0.004101754151036745
0.004101754151036082
0.00440890772201838
0.004408907722018299
0.004408907722018806
0.004408907722018631
0.004408907722018327
0.004408907722018692
0.004408907722018293
0.004408907722018085
0.004408907722018632
0.004408907722018333
0.004408907722018016
0.004408907722018259
0.004408907722018669
0.004408907722017901
0.004408907722018531
0.004408907722018423
0.00440890772201816
0.004408907722018402
0.004408907722018898
0.004408907722018244
0.004408907722018625
0.004408907722019195
0.004408907722018511
0.004408907722018951
0.00440890772201942
0.00440890772201877
0.004408907722019468
0.004408907722019341
0.004408907722019136
0.004408907722019701
0.004408907722019417
0.004408907722019529
0.004408907722019548
0.004408907722019201
0.004408907722019687
0.004408907722019499
0.004408907722019299
0.004408907722019193
0.004408907722019051
0.004408907722019397
0.004408907722019376
0.004408907722019473
0.004408907722019451
0.004408907722019518
0.004408907722019044
0.004408907722019186
0.004408907722019051
0.004408907722019167
0.004408907722018866
0.004408907722018803
0.004408907722018637
0.004408907722018838
0.004408907722019153
0.004408907722018284
0.004408907722018489
0.004408907722018844
0.004408907722018615
0.004408907722018589
0.004408907722017926
0.004408907722017737
0.004408907722018299
0.00440890772201809
0.004408907722017756
0.004408907722018219
0.00440890772201803
0.004408907722017705
0.004638078893875762
0.004638078893875673
0.004638078893876298
0.004638078893876046
0.004638078893875663
0.004638078893876161
0.004638078893875523
0.004638078893875434
0.004638078893875827
0.004638078893876403
0.004638078893875438
0.004638078893875829
0.004638078893876466
0.004638078893875541
0.004638078893876333
0.004638078893876097
0.004638078893875848
0.004638078893876517
0.00463807889387633
0.004638078893876137
0.004638078893876898
0.004638078893876621
0.004638078893876554
0.004638078893876992
0.004638078893877665
0.004638078893876831
0.004638078893877319
0.00463807889387791
0.004638078893877088
0.004638078893877482
0.004638078893877866
0.004638078893877125
0.00463807889387721
0.004638078893877089
0.004638078893877714
0.00463807889387747
0.00463807889387806
0.00463807889387783
0.004638078893876691
0.004638078893876992
0.004638078893877047
0.004638078893877711
0.0046380788938772
0.004638078893877522
0.004638078893876719
0.004638078893876831
0.004638078893876772
0.004638078893876883
0.004638078893876519
0.004638078893876432
0.004638078893876358
0.004638078893876746
0.004638078893876399
0.004638078893875994
0.004638078893875943
0.004638078893875802
0.004638078893875639
0.004638078893875775
0.004638078893876079
0.004638078893875063
0.004638078893875442
0.004638078893875949
0.004638078893875001
0.0046380788938753
0.004638078893875826
0.00463807889387487
0.004800621813848534
0.004800621813848398
0.004800621813849132
0.004800621813848801
0.004800621813848386
0.004800621813849061
0.004800621813848668
0.00480062181384837
0.004800621813848782
0.00480062181384956
0.004800621813848501
0.004800621813849023
0.004800621813849819
0.004800621813848803
0.004800621813849368
0.004800621813849931
0.00480062181384906
0.00480062181385004
0.00480062181384948
0.004800621813849553
0.004800621813850164
0.004800621813850674
0.004800621813850125
0.004800621813850684
0.004800621813851441
0.004800621813850567
0.004800621813851581
0.004800621813851129
0.00480062181385092
0.004800621813851109
0.004800621813850784
0.004800621813850857
0.004800621813850873
0.004800621813850533
0.004800621813851162
0.004800621813850795
0.004800621813850939
0.004800621813851116
0.00480062181385002
0.00480062181385041
0.004800621813850135
0.004800621813850926
0.004800621813850482
0.004800621813850284
0.00480062181385015
0.004800621813849725
0.004800621813849821
0.004800621813850435
0.004800621813849426
0.0048006218138494
0.004800621813849602
0.004800621813849923
0.004800621813849037
0.004800621813849151
0.004800621813848686
0.004800621813848727
0.004800621813848592
0.004800621813848271
0.004800621813848221
0.004800621813847957
0.004800621813848621
0.004800621813848356
0.004800621813847796
0.004800621813848384
0.004800621813847761
0.004800621813847598
0.004906031346415588
0.004906031346415443
0.004906031346416339
0.004906031346415912
0.004906031346415526
0.00490603134641646
0.004906031346416109
0.004906031346415854
0.004906031346416412
0.004906031346417349
0.00490603134641628
0.004906031346416991
0.004906031346417892
0.004906031346416858
0.004906031346417535
0.004906031346418453
0.004906031346417341
0.004906031346418785
0.004906031346418112
0.004906031346417959
0.004906031346419064
0.004906031346418695
0.004906031346418607
0.004906031346419196
0.004906031346419214
0.004906031346419317
0.004906031346419072
0.004906031346419284
0.004906031346419865
0.004906031346419678
0.004906031346419583
0.004906031346418566
0.004906031346418586
0.00490603134641875
0.004906031346418441
0.00490603134641846
0.004906031346418498
0.004906031346418954
0.0049060313464189
0.004906031346418394
0.004906031346417758
0.004906031346418111
0.004906031346417789
0.004906031346418009
0.004906031346417603
0.004906031346417426
0.004906031346417311
0.004906031346417637
0.004906031346416951
0.004906031346416576
0.004906031346416594
0.004906031346416592
0.004906031346416555
0.004906031346417099
0.00490603134641571
0.004906031346415765
0.004906031346416414
0.004906031346415269
0.004906031346415282
0.004906031346414945
0.004906031346415289
0.004906031346416016
0.004906031346414555
0.004906031346415314
0.004906031346414868
0.004906031346414516
0.004962630922642754
0.004962630922642617
0.004962630922643179
0.004962630922643835
0.004962630922642912
0.004962630922643869
0.00496263092264404
0.004962630922643996
0.004962630922644801
0.004962630922645957
0.004962630922644893
0.004962630922646346
0.004962630922645843
0.004962630922645849
0.004962630922646562
0.00496263092264767
0.004962630922646347
0.00496263092264773
0.00496263092264683
0.00496263092264708
0.00496263092264779
0.004962630922648673
0.004962630922647529
0.004962630922648051
0.004962630922647954
0.004962630922647429
0.004962630922648223
0.004962630922647101
0.004962630922647764
0.004962630922647601
0.004962630922648406
0.004962630922647243
0.00496263092264784
0.004962630922646662
0.004962630922646991
0.004962630922646563
0.004962630922646834
0.004962630922646588
0.004962630922646855
0.004962630922647693
0.004962630922646189
0.004962630922645475
0.004962630922645478
0.004962630922645479
0.004962630922645361
0.004962630922645201
0.004962630922645415
0.004962630922645212
0.004962630922645264
0.004962630922644803
0.004962630922643587
0.004962630922643694
0.004962630922644004
0.004962630922644054
0.004962630922643257
0.004962630922643639
0.004962630922643319
0.004962630922643183
0.004962630922643299
0.004962630922641611
0.004962630922642671
0.004962630922642223
0.004962630922641631
0.004962630922642512
0.004962630922642017
0.0049626309226415
0.004978144322014486
0.004978144322014398
0.004978144322015703
0.004978144322014775
0.004978144322016887
0.004978144322017342
0.004978144322018815
0.004978144322017903
0.004978144322019606
0.004978144322019182
0.004978144322019286
0.004978144322020218
0.004978144322021392
0.004978144322020032
0.004978144322020896
0.004978144322022102
0.004978144322020616
0.004978144322020958
0.004978144322021013
0.004978144322022534
0.004978144322021685
0.004978144322021748
0.004978144322022001
0.004978144322022033
0.004978144322022169
0.004978144322020494
0.004978144322020927
0.004978144322020516
0.00497814432202073
0.004978144322020646
0.004978144322021687
0.00497814432202062
0.004978144322020256
0.00497814432202002
0.00497814432202065
0.004978144322020507
0.004978144322018978
0.00497814432201941
0.004978144322019486
0.004978144322019862
0.004978144322020098
0.004978144322017754
0.004978144322018843
0.004978144322018043
0.004978144322017564
0.004978144322017433
0.004978144322018323
0.004978144322016946
0.004978144322017
0.004978144322016064
0.004978144322015636
0.004978144322015425
0.004978144322016452
0.004978144322015135
0.004978144322015082
0.004978144322015381
0.004978144322015094
0.004978144322015463
0.004978144322016182
0.00497814432201333
0.004978144322013369
0.004978144322013023
0.004978144322012692
0.004978144322013785
0.004978144322013535
0.00497814432201292
0.004960207531698744
0.004960207531698914
0.00496020753170028
0.004960207531700748
0.004960207531703978
0.004960207531705874
0.004960207531706069
0.004960207531706307
0.004960207531708061
0.00496020753170777
0.004960207531707657
0.00496020753170906
0.004960207531708874
0.004960207531708078
0.004960207531709327
0.004960207531708653
0.004960207531709246
0.004960207531707486
0.004960207531708853
0.004960207531709028
0.004960207531708181
0.004960207531708341
0.004960207531708365
0.004960207531708256
0.004960207531708672
0.004960207531708013
0.004960207531705864
0.004960207531706469
0.004960207531707492
0.004960207531707152
0.0049602075317056
0.0049602075317062
0.004960207531705545
0.004960207531706509
0.004960207531705382
0.004960207531706375
0.004960207531703695
0.004960207531705067
0.004960207531703481
0.00496020753170521
0.00496020753170405
0.004960207531702884
0.004960207531703125
0.004960207531703869
0.004960207531703426
0.004960207531701627
0.004960207531702447
0.004960207531703043
0.004960207531701007
0.004960207531701078
0.004960207531699096
0.004960207531699392
0.004960207531700519
0.004960207531699026
0.004960207531699495
0.004960207531698802
0.004960207531699868
0.00496020753169913
0.004960207531699548
0.004960207531698524
0.004960207531698453
0.004960207531696468
0.00496020753169631
0.00496020753169708
0.004960207531698299
0.004960207531696368
0.004916921371256286
0.00491692137125745
0.004916921371261351
0.004916921371264622
0.004916921371268364
0.004916921371269954
0.004916921371268436
0.004916921371270701
0.004916921371271495
0.004916921371270646
0.004916921371270771
0.004916921371270803
0.004916921371271458
0.004916921371269892
0.004916921371270051
0.004916921371269281
0.004916921371269607
0.004916921371268415
0.004916921371268475
0.004916921371269718
0.004916921371268045
0.004916921371268518
0.004916921371267683
0.004916921371268653
0.004916921371267466
0.004916921371268306
0.004916921371264121
0.00491692137126548
0.004916921371264708
0.004916921371265504
0.004916921371263291
0.004916921371263598
0.004916921371263451
0.004916921371263743
0.004916921371264447
0.004916921371264244
0.004916921371261248
0.004916921371261539
0.004916921371261366
0.004916921371263102
0.004916921371261532
0.004916921371260203
0.004916921371260527
0.004916921371260249
0.004916921371260237
0.004916921371259085
0.00491692137125949
0.004916921371260427
0.004916921371259155
0.004916921371258542
0.004916921371256298
0.004916921371256437
0.004916921371256447
0.004916921371257735
0.004916921371256185
0.004916921371255192
0.004916921371256393
0.004916921371255429
0.004916921371256812
0.004916921371253953
0.004916921371255323
0.00491692137125387
0.00491692137125295
0.004916921371253447
0.004916921371254755
0.004916921371252707
0.004857623057845453
0.004857623057852424
0.004857623057859198
0.004857623057864074
0.00485762305786478
0.004857623057865254
0.004857623057864778
0.004857623057867037
0.004857623057865731
0.004857623057867092
0.004857623057864756
0.004857623057864787
0.004857623057865051
0.00485762305786285
0.004857623057861719
0.004857623057860547
0.004857623057860117
0.004857623057859213
0.004857623057859648
0.004857623057859303
0.004857623057860967
0.004857623057858682
0.004857623057857031
0.00485762305785763
0.004857623057856548
0.004857623057856656
0.004857623057853088
0.004857623057852653
0.004857623057852172
0.004857623057852624
0.004857623057851578
0.004857623057851838
0.004857623057851323
0.004857623057852993
0.004857623057851262
0.004857623057852524
0.004857623057848709
0.004857623057848867
0.004857623057848842
0.004857623057850795
0.004857623057848769
0.00485762305784759
0.004857623057847923
0.004857623057848658
0.004857623057847255
0.004857623057847679
0.004857623057845555
0.004857623057845844
0.00485762305784504
0.004857623057844477
0.004857623057844469
0.004857623057843648
0.004857623057843576
0.00485762305784388
0.004857623057843896
0.004857623057843409
0.004857623057841563
0.004857623057841758
0.004857623057841548
0.004857623057841595
0.004857623057841306
0.004857623057841425
0.004857623057839909
0.004857623057840372
0.004857623057841595
0.004857623057839422
0.004794578314810002
0.004794578314828615
0.00479457831483428
0.004794578314834096
0.004794578314833761
0.00479457831483342
0.004794578314829202
0.004794578314829502
0.004794578314826345
0.004794578314828437
0.004794578314826822
0.00479457831482849
0.004794578314827661
0.004794578314825998
0.004794578314822545
0.004794578314818023
0.004794578314816258
0.004794578314815738
0.004794578314815576
0.004794578314815851
0.004794578314816077
0.00479457831481666
0.004794578314815716
0.004794578314814332
0.004794578314813038
0.004794578314810036
0.00479457831480984
0.004794578314808852
0.004794578314805881
0.004794578314806251
0.00479457831480764
0.004794578314805154
0.00479457831480574
0.004794578314807717
0.004794578314805448
0.004794578314806278
0.004794578314804012
0.004794578314805739
0.004794578314803718
0.004794578314805548
0.004794578314802706
0.004794578314802632
0.00479457831480202
0.004794578314802748
0.004794578314802012
0.004794578314800757
0.004794578314799951
0.004794578314801191
0.004794578314798587
0.004794578314798239
0.004794578314799059
0.00479457831479843
0.004794578314798746
0.004794578314799455
0.004794578314796218
0.004794578314796925
0.004794578314798091
0.004794578314797442
0.00479457831479724
0.004794578314794974
0.004794578314797143
0.004794578314795808