/*--------------------------------*- C++ -*----------------------------------*\
| =========                 |                                                 |
| \\      /  F ield         | OpenFOAM: The Open Source CFD Toolbox           |
|  \\    /   O peration     | Version:  v1812                                 |
|   \\  /    A nd           | Web:      www.OpenFOAM.com                      |
|    \\/     M anipulation  |                                                 |
\*---------------------------------------------------------------------------*/
FoamFile
{
    version     2.0;
    format      ascii;
    class       volScalarField;
    location    "10000";
    object      nuTilda;
}
// * * * * * * * * * * * * * * * * * * * * * * * * * * * * * * * * * * * * * //

dimensions      [0 2 -1 0 0 0 0];


internalField   nonuniform List<scalar> 
2838
(
0.0004840338370775387
0.000484033837077539
0.0004840338370775391
0.0004840338370775394
0.0004840338370775394
0.0004840338370775393
0.0004840338370775395
0.0004840338370775391
0.0004840338370775392
0.0004840338370775396
0.0004840338370775393
0.0004840338370775394
0.0004840338370775389
0.0004840338370775392
0.0004840338370775393
0.0004840338370775387
0.0004840338370775394
0.0004840338370775389
0.0004840338370775393
0.0004840338370775386
0.0004840338370775392
0.0004840338370775394
0.0004840338370775397
0.0004840338370775389
0.0004840338370775385
0.0004840338370775392
0.0004840338370775388
0.0004840338370775392
0.0004840338370775382
0.0004840338370775395
0.0004840338370775387
0.0004840338370775387
0.0004840338370775392
0.0004840338370775386
0.0004840338370775381
0.000484033837077539
0.0004840338370775397
0.0004840338370775387
0.0004840338370775382
0.0004840338370775384
0.0004840338370775389
0.0004840338370775387
0.000484033837077539
0.0004840338370775386
0.0004840338370775388
0.0004840338370775384
0.0004840338370775389
0.0004840338370775393
0.0004840338370775382
0.0004840338370775384
0.0004840338370775389
0.000484033837077539
0.0004840338370775389
0.0004840338370775383
0.0004840338370775383
0.0004840338370775388
0.0004840338370775383
0.0004840338370775373
0.0004840338370775399
0.0004840338370775381
0.0004840338370775394
0.0004840338370775382
0.0004840338370775394
0.0004840338370775379
0.0004840338370775393
0.0004840338370775389
0.0003631426205532109
0.0003631426205532032
0.0003631426205531963
0.0003631426205532007
0.000363142620553201
0.0003631426205531977
0.0003631426205532012
0.0003631426205532012
0.000363142620553201
0.0003631426205532004
0.0003631426205532012
0.0003631426205531993
0.000363142620553198
0.0003631426205531985
0.0003631426205532007
0.0003631426205531967
0.0003631426205531974
0.0003631426205531999
0.0003631426205531964
0.0003631426205531967
0.0003631426205532003
0.0003631426205531983
0.0003631426205531991
0.000363142620553195
0.0003631426205531973
0.0003631426205531944
0.0003631426205531972
0.0003631426205531952
0.0003631426205531968
0.0003631426205531964
0.0003631426205531974
0.0003631426205531994
0.0003631426205532004
0.0003631426205531954
0.0003631426205531912
0.0003631426205531935
0.0003631426205531996
0.0003631426205531977
0.0003631426205531987
0.000363142620553195
0.0003631426205531978
0.0003631426205531954
0.0003631426205531983
0.0003631426205531966
0.0003631426205531985
0.0003631426205531945
0.0003631426205532001
0.0003631426205531938
0.0003631426205531999
0.0003631426205531963
0.0003631426205531946
0.000363142620553192
0.0003631426205531967
0.0003631426205531903
0.000363142620553196
0.0003631426205531919
0.0003631426205531968
0.0003631426205531904
0.0003631426205531979
0.0003631426205531871
0.0003631426205531928
0.0003631426205531872
0.0003631426205531961
0.0003631426205531872
0.0003631426205531994
0.0003631426205531848
0.0006303744997616311
0.0006303744997616121
0.0006303744997616001
0.000630374499761609
0.0006303744997616063
0.0006303744997616057
0.0006303744997616143
0.0006303744997616087
0.0006303744997616091
0.0006303744997616079
0.0006303744997616014
0.0006303744997616108
0.0006303744997616057
0.0006303744997616026
0.0006303744997616092
0.0006303744997616028
0.0006303744997616002
0.000630374499761607
0.0006303744997616014
0.0006303744997616011
0.0006303744997616077
0.0006303744997616024
0.0006303744997616028
0.0006303744997616099
0.0006303744997616087
0.0006303744997616028
0.000630374499761608
0.0006303744997616062
0.000630374499761606
0.0006303744997616128
0.0006303744997616116
0.0006303744997616158
0.0006303744997616125
0.0006303744997616051
0.0006303744997616022
0.0006303744997616038
0.0006303744997616074
0.000630374499761613
0.000630374499761608
0.0006303744997616034
0.0006303744997616064
0.0006303744997616093
0.0006303744997616047
0.0006303744997616152
0.0006303744997616106
0.0006303744997616066
0.0006303744997616164
0.0006303744997616133
0.0006303744997616198
0.0006303744997616171
0.0006303744997615995
0.0006303744997616031
0.0006303744997616052
0.0006303744997616005
0.0006303744997615975
0.0006303744997616013
0.0006303744997616057
0.0006303744997616027
0.0006303744997616047
0.0006303744997615896
0.0006303744997615891
0.0006303744997615918
0.0006303744997615975
0.0006303744997615965
0.0006303744997615994
0.0006303744997615904
0.0008680848410908576
0.0008680848410908476
0.0008680848410908338
0.000868084841090846
0.0008680848410908438
0.0008680848410908361
0.0008680848410908447
0.0008680848410908432
0.0008680848410908476
0.0008680848410908371
0.0008680848410908352
0.0008680848410908439
0.0008680848410908376
0.0008680848410908285
0.0008680848410908378
0.0008680848410908287
0.0008680848410908258
0.0008680848410908347
0.0008680848410908265
0.0008680848410908257
0.0008680848410908348
0.0008680848410908287
0.0008680848410908283
0.0008680848410908403
0.0008680848410908354
0.00086808484109083
0.0008680848410908384
0.0008680848410908392
0.0008680848410908384
0.0008680848410908482
0.0008680848410908439
0.0008680848410908514
0.0008680848410908474
0.0008680848410908447
0.000868084841090849
0.0008680848410908422
0.0008680848410908491
0.0008680848410908498
0.0008680848410908439
0.0008680848410908529
0.0008680848410908456
0.0008680848410908525
0.0008680848410908495
0.0008680848410908583
0.0008680848410908584
0.0008680848410908432
0.0008680848410908506
0.0008680848410908497
0.0008680848410908605
0.0008680848410908593
0.0008680848410908357
0.0008680848410908412
0.0008680848410908356
0.0008680848410908279
0.0008680848410908253
0.0008680848410908357
0.0008680848410908344
0.0008680848410908419
0.000868084841090834
0.0008680848410908205
0.0008680848410908073
0.0008680848410908268
0.0008680848410908246
0.0008680848410908362
0.0008680848410908237
0.000868084841090806
0.00113575347259849
0.001135753472598497
0.001135753472598484
0.001135753472598495
0.001135753472598512
0.001135753472598474
0.001135753472598485
0.001135753472598484
0.001135753472598497
0.001135753472598498
0.001135753472598462
0.001135753472598493
0.001135753472598483
0.001135753472598465
0.001135753472598479
0.001135753472598471
0.001135753472598449
0.001135753472598471
0.001135753472598466
0.001135753472598447
0.001135753472598472
0.001135753472598483
0.001135753472598451
0.001135753472598487
0.001135753472598478
0.001135753472598467
0.001135753472598492
0.001135753472598484
0.001135753472598479
0.001135753472598496
0.001135753472598488
0.001135753472598504
0.001135753472598515
0.001135753472598486
0.001135753472598501
0.001135753472598498
0.00113575347259851
0.001135753472598511
0.001135753472598485
0.001135753472598515
0.001135753472598498
0.00113575347259851
0.001135753472598505
0.001135753472598523
0.001135753472598516
0.001135753472598502
0.001135753472598514
0.001135753472598492
0.001135753472598522
0.001135753472598516
0.001135753472598491
0.001135753472598487
0.001135753472598475
0.001135753472598478
0.001135753472598473
0.001135753472598482
0.001135753472598474
0.001135753472598491
0.001135753472598478
0.001135753472598478
0.001135753472598439
0.00113575347259847
0.001135753472598459
0.001135753472598479
0.001135753472598476
0.001135753472598437
0.001498364213086308
0.001498364213086319
0.001498364213086305
0.001498364213086339
0.001498364213086324
0.00149836421308629
0.00149836421308629
0.001498364213086285
0.001498364213086309
0.001498364213086343
0.001498364213086254
0.001498364213086293
0.001498364213086332
0.001498364213086248
0.001498364213086276
0.00149836421308631
0.001498364213086225
0.001498364213086266
0.001498364213086306
0.001498364213086229
0.001498364213086269
0.00149836421308631
0.001498364213086236
0.001498364213086284
0.001498364213086325
0.001498364213086256
0.001498364213086299
0.001498364213086334
0.00149836421308627
0.001498364213086309
0.0014983642130863
0.001498364213086351
0.00149836421308633
0.00149836421308631
0.001498364213086321
0.001498364213086324
0.001498364213086365
0.001498364213086338
0.001498364213086306
0.001498364213086352
0.001498364213086324
0.001498364213086344
0.001498364213086329
0.001498364213086385
0.001498364213086353
0.001498364213086329
0.001498364213086341
0.001498364213086325
0.001498364213086349
0.00149836421308638
0.001498364213086355
0.001498364213086317
0.00149836421308626
0.001498364213086282
0.001498364213086276
0.001498364213086286
0.001498364213086276
0.001498364213086336
0.001498364213086285
0.001498364213086307
0.001498364213086239
0.001498364213086276
0.001498364213086247
0.001498364213086306
0.001498364213086264
0.001498364213086238
0.002007619111229818
0.002007619111229744
0.002007619111229724
0.002007619111229786
0.002007619111229746
0.002007619111229699
0.002007619111229667
0.002007619111229655
0.002007619111229751
0.002007619111229723
0.002007619111229652
0.002007619111229736
0.0020076191112297
0.002007619111229633
0.002007619111229705
0.002007619111229656
0.002007619111229596
0.0020076191112297
0.00200761911122966
0.002007619111229605
0.002007619111229706
0.002007619111229663
0.002007619111229617
0.002007619111229721
0.002007619111229701
0.002007619111229655
0.002007619111229757
0.002007619111229693
0.002007619111229677
0.002007619111229718
0.002007619111229712
0.002007619111229826
0.002007619111229756
0.002007619111229726
0.002007619111229739
0.002007619111229748
0.002007619111229769
0.002007619111229845
0.0020076191112297
0.00200761911122979
0.002007619111229776
0.002007619111229812
0.002007619111229758
0.002007619111229821
0.002007619111229892
0.002007619111229732
0.002007619111229784
0.002007619111229739
0.002007619111229828
0.002007619111229784
0.002007619111229872
0.002007619111229809
0.002007619111229656
0.002007619111229676
0.002007619111229652
0.002007619111229667
0.002007619111229663
0.002007619111229725
0.002007619111229767
0.002007619111229612
0.002007619111229658
0.002007619111229754
0.002007619111229569
0.00200761911122971
0.002007619111229648
0.002007619111229604
0.002613801128609983
0.002613801128609978
0.002613801128609757
0.00261380112860979
0.002613801128609808
0.002613801128609907
0.002613801128609633
0.002613801128609621
0.002613801128609802
0.002613801128609767
0.002613801128609661
0.002613801128609809
0.002613801128609726
0.002613801128609626
0.002613801128609712
0.002613801128609657
0.002613801128609577
0.002613801128609667
0.002613801128609826
0.002613801128609554
0.002613801128609673
0.002613801128609824
0.002613801128609577
0.002613801128609793
0.002613801128609759
0.00261380112860969
0.002613801128609878
0.002613801128609796
0.002613801128609732
0.002613801128609798
0.002613801128609811
0.002613801128609887
0.002613801128609983
0.002613801128609759
0.002613801128609817
0.002613801128609962
0.002613801128609739
0.002613801128609813
0.0026138011286098
0.002613801128609876
0.002613801128609895
0.002613801128609905
0.002613801128609861
0.002613801128609948
0.002613801128610097
0.002613801128609817
0.00261380112860985
0.002613801128609826
0.002613801128609849
0.002613801128609854
0.002613801128610007
0.002613801128609791
0.002613801128609912
0.002613801128609896
0.002613801128609627
0.002613801128609678
0.002613801128609687
0.002613801128609747
0.002613801128609844
0.002613801128609565
0.002613801128609665
0.002613801128609838
0.002613801128609531
0.002613801128609742
0.002613801128609672
0.002613801128609591
0.003203346226522984
0.003203346226523137
0.003203346226522742
0.003203346226523044
0.003203346226522868
0.003203346226522755
0.003203346226522724
0.003203346226522673
0.003203346226522883
0.003203346226522803
0.003203346226522639
0.003203346226522861
0.003203346226522701
0.003203346226522576
0.003203346226522809
0.003203346226522697
0.003203346226522558
0.003203346226522664
0.003203346226522921
0.003203346226522521
0.003203346226522683
0.003203346226522947
0.003203346226522572
0.003203346226522886
0.003203346226522836
0.00320334622652274
0.003203346226522888
0.003203346226523101
0.003203346226522748
0.003203346226523162
0.003203346226522998
0.003203346226522972
0.003203346226522916
0.003203346226522887
0.003203346226522963
0.00320334622652291
0.003203346226522848
0.003203346226522854
0.003203346226522887
0.003203346226523302
0.003203346226523107
0.003203346226523279
0.003203346226522925
0.003203346226523227
0.003203346226523105
0.003203346226522987
0.003203346226522941
0.003203346226523129
0.003203346226522748
0.003203346226522929
0.003203346226523121
0.003203346226522751
0.003203346226522902
0.003203346226522894
0.003203346226522672
0.003203346226522923
0.003203346226522712
0.003203346226522712
0.003203346226522831
0.003203346226522477
0.003203346226522789
0.003203346226522662
0.003203346226522492
0.003203346226522739
0.003203346226522645
0.003203346226522528
0.003703984110635085
0.003703984110635015
0.003703984110634945
0.003703984110635345
0.003703984110634927
0.003703984110634896
0.003703984110635017
0.003703984110634851
0.003703984110635124
0.003703984110634992
0.003703984110634768
0.003703984110634847
0.003703984110634746
0.003703984110634646
0.003703984110634986
0.003703984110634907
0.003703984110634712
0.003703984110635038
0.003703984110634936
0.003703984110634761
0.003703984110634923
0.003703984110635152
0.003703984110634809
0.003703984110635215
0.003703984110635135
0.00370398411063501
0.003703984110635196
0.003703984110635548
0.003703984110635061
0.003703984110635539
0.003703984110635361
0.003703984110635496
0.00370398411063534
0.003703984110635544
0.003703984110635183
0.003703984110635218
0.00370398411063517
0.003703984110635208
0.003703984110635214
0.003703984110635533
0.003703984110635514
0.003703984110635616
0.00370398411063542
0.003703984110635718
0.003703984110635379
0.003703984110635508
0.003703984110635129
0.003703984110635273
0.003703984110635122
0.003703984110635162
0.003703984110635069
0.003703984110635018
0.003703984110635123
0.003703984110635107
0.003703984110634888
0.003703984110635178
0.003703984110634774
0.003703984110634795
0.003703984110634799
0.003703984110634679
0.00370398411063481
0.003703984110635019
0.003703984110634471
0.003703984110634881
0.003703984110634764
0.003703984110634597
0.004102418744966279
0.004102418744966242
0.004102418744966387
0.004102418744966798
0.004102418744966574
0.004102418744966043
0.004102418744966131
0.004102418744966094
0.004102418744966279
0.004102418744966329
0.004102418744965971
0.004102418744966343
0.004102418744965895
0.004102418744965834
0.004102418744966091
0.00410241874496653
0.004102418744965872
0.004102418744966151
0.004102418744966534
0.004102418744965979
0.00410241874496627
0.004102418744966739
0.004102418744966136
0.004102418744966704
0.004102418744966579
0.004102418744966428
0.004102418744966902
0.004102418744966741
0.004102418744966621
0.004102418744967131
0.004102418744966857
0.004102418744967295
0.004102418744966969
0.004102418744966755
0.004102418744967096
0.004102418744966915
0.004102418744966715
0.004102418744966672
0.004102418744966647
0.004102418744967337
0.004102418744967029
0.00410241874496699
0.004102418744967076
0.004102418744967286
0.004102418744966633
0.004102418744966971
0.004102418744966533
0.004102418744966601
0.004102418744966675
0.004102418744966911
0.00410241874496623
0.004102418744966644
0.00410241874496622
0.004102418744966189
0.004102418744966189
0.004102418744966217
0.004102418744966162
0.004102418744966425
0.004102418744966101
0.004102418744965718
0.004102418744966195
0.004102418744966024
0.004102418744965738
0.004102418744965915
0.0041024187449663
0.004102418744965636
0.004409482995957393
0.004409482995957312
0.004409482995957819
0.004409482995957644
0.00440948299595734
0.004409482995957705
0.004409482995957306
0.004409482995957098
0.004409482995957645
0.004409482995957346
0.004409482995957029
0.004409482995957272
0.004409482995957682
0.004409482995956914
0.004409482995957544
0.004409482995957436
0.004409482995957173
0.004409482995957415
0.004409482995957911
0.004409482995957257
0.004409482995957638
0.004409482995958208
0.004409482995957524
0.004409482995957964
0.004409482995958433
0.004409482995957783
0.004409482995958481
0.004409482995958354
0.004409482995958149
0.004409482995958714
0.00440948299595843
0.004409482995958542
0.004409482995958561
0.004409482995958214
0.0044094829959587
0.004409482995958512
0.004409482995958312
0.004409482995958206
0.004409482995958064
0.00440948299595841
0.004409482995958389
0.004409482995958486
0.004409482995958464
0.004409482995958531
0.004409482995958058
0.004409482995958199
0.004409482995958064
0.00440948299595818
0.004409482995957879
0.004409482995957816
0.00440948299595765
0.004409482995957851
0.004409482995958166
0.004409482995957297
0.004409482995957502
0.004409482995957857
0.004409482995957628
0.004409482995957602
0.004409482995956939
0.004409482995956751
0.004409482995957312
0.004409482995957103
0.004409482995956769
0.004409482995957232
0.004409482995957043
0.004409482995956719
0.004638598751501489
0.0046385987515014
0.004638598751502026
0.004638598751501773
0.00463859875150139
0.004638598751501888
0.00463859875150125
0.004638598751501162
0.004638598751501554
0.004638598751502131
0.004638598751501165
0.004638598751501556
0.004638598751502195
0.004638598751501268
0.004638598751502061
0.004638598751501824
0.004638598751501575
0.004638598751502246
0.004638598751502057
0.004638598751501864
0.004638598751502626
0.004638598751502348
0.004638598751502281
0.004638598751502719
0.004638598751503392
0.004638598751502558
0.004638598751503046
0.004638598751503638
0.004638598751502816
0.004638598751503209
0.004638598751503594
0.004638598751502853
0.004638598751502938
0.004638598751502816
0.004638598751503441
0.004638598751503196
0.004638598751503787
0.004638598751503557
0.004638598751502418
0.004638598751502719
0.004638598751502774
0.004638598751503438
0.004638598751502927
0.004638598751503249
0.004638598751502446
0.004638598751502559
0.0046385987515025
0.00463859875150261
0.004638598751502247
0.00463859875150216
0.004638598751502085
0.004638598751502474
0.004638598751502127
0.004638598751501722
0.004638598751501671
0.004638598751501529
0.004638598751501366
0.004638598751501502
0.004638598751501806
0.00463859875150079
0.004638598751501169
0.004638598751501677
0.004638598751500729
0.004638598751501027
0.004638598751501554
0.004638598751500598
0.004801107080028834
0.004801107080028698
0.004801107080029432
0.0048011070800291
0.004801107080028686
0.004801107080029361
0.004801107080028968
0.00480110708002867
0.004801107080029082
0.004801107080029859
0.004801107080028801
0.004801107080029323
0.004801107080030119
0.004801107080029103
0.004801107080029668
0.00480110708003023
0.00480110708002936
0.00480110708003034
0.004801107080029779
0.004801107080029852
0.004801107080030464
0.004801107080030974
0.004801107080030425
0.004801107080030984
0.004801107080031741
0.004801107080030867
0.004801107080031881
0.004801107080031428
0.004801107080031219
0.004801107080031409
0.004801107080031084
0.004801107080031157
0.004801107080031172
0.004801107080030832
0.004801107080031461
0.004801107080031095
0.004801107080031238
0.004801107080031416
0.00480110708003032
0.00480110708003071
0.004801107080030435
0.004801107080031225
0.004801107080030781
0.004801107080030583
0.00480110708003045
0.004801107080030025
0.004801107080030121
0.004801107080030734
0.004801107080029726
0.0048011070800297
0.004801107080029902
0.004801107080030223
0.004801107080029337
0.004801107080029451
0.004801107080028986
0.004801107080029027
0.004801107080028891
0.00480110708002857
0.004801107080028521
0.004801107080028258
0.004801107080028921
0.004801107080028655
0.004801107080028097
0.004801107080028685
0.004801107080028062
0.004801107080027898
0.004906495992926979
0.004906495992926835
0.00490649599292773
0.004906495992927302
0.004906495992926917
0.00490649599292785
0.0049064959929275
0.004906495992927245
0.004906495992927803
0.00490649599292874
0.004906495992927671
0.004906495992928381
0.004906495992929282
0.004906495992928249
0.004906495992928926
0.004906495992929844
0.004906495992928732
0.004906495992930176
0.004906495992929503
0.00490649599292935
0.004906495992930455
0.004906495992930086
0.004906495992929998
0.004906495992930586
0.004906495992930605
0.004906495992930707
0.004906495992930463
0.004906495992930674
0.004906495992931256
0.004906495992931069
0.004906495992930974
0.004906495992929956
0.004906495992929976
0.004906495992930141
0.004906495992929832
0.004906495992929851
0.004906495992929889
0.004906495992930345
0.004906495992930291
0.004906495992929785
0.004906495992929149
0.004906495992929502
0.00490649599292918
0.0049064959929294
0.004906495992928994
0.004906495992928817
0.004906495992928701
0.004906495992929027
0.004906495992928341
0.004906495992927967
0.004906495992927985
0.004906495992927982
0.004906495992927946
0.00490649599292849
0.004906495992927101
0.004906495992927156
0.004906495992927805
0.00490649599292666
0.004906495992926673
0.004906495992926337
0.00490649599292668
0.004906495992927408
0.004906495992925947
0.004906495992926706
0.004906495992926259
0.004906495992925908
0.004963085035225915
0.004963085035225778
0.00496308503522634
0.004963085035226997
0.004963085035226073
0.00496308503522703
0.004963085035227201
0.004963085035227157
0.004963085035227962
0.004963085035229118
0.004963085035228054
0.004963085035229507
0.004963085035229005
0.004963085035229011
0.004963085035229722
0.00496308503523083
0.004963085035229508
0.00496308503523089
0.004963085035229991
0.00496308503523024
0.00496308503523095
0.004963085035231833
0.004963085035230689
0.004963085035231211
0.004963085035231114
0.004963085035230589
0.004963085035231384
0.004963085035230261
0.004963085035230924
0.004963085035230761
0.004963085035231567
0.004963085035230404
0.004963085035231
0.004963085035229822
0.004963085035230151
0.004963085035229724
0.004963085035229994
0.004963085035229749
0.004963085035230015
0.004963085035230853
0.00496308503522935
0.004963085035228636
0.004963085035228639
0.00496308503522864
0.004963085035228522
0.004963085035228362
0.004963085035228576
0.004963085035228373
0.004963085035228425
0.004963085035227964
0.004963085035226748
0.004963085035226855
0.004963085035227165
0.004963085035227215
0.004963085035226418
0.0049630850352268
0.00496308503522648
0.004963085035226344
0.004963085035226461
0.004963085035224773
0.004963085035225833
0.004963085035225384
0.004963085035224793
0.004963085035225674
0.004963085035225178
0.004963085035224662
0.004978595609858284
0.004978595609858197
0.004978595609859502
0.004978595609858573
0.004978595609860686
0.00497859560986114
0.004978595609862613
0.004978595609861702
0.004978595609863404
0.004978595609862981
0.004978595609863084
0.004978595609864016
0.004978595609865189
0.00497859560986383
0.004978595609864694
0.0049785956098659
0.004978595609864414
0.004978595609864756
0.00497859560986481
0.004978595609866332
0.004978595609865482
0.004978595609865546
0.004978595609865799
0.00497859560986583
0.004978595609865966
0.004978595609864292
0.004978595609864724
0.004978595609864314
0.004978595609864528
0.004978595609864443
0.004978595609865485
0.004978595609864417
0.004978595609864055
0.004978595609863819
0.004978595609864449
0.004978595609864305
0.004978595609862776
0.004978595609863208
0.004978595609863284
0.004978595609863659
0.004978595609863896
0.004978595609861552
0.004978595609862642
0.00497859560986184
0.004978595609861363
0.004978595609861232
0.004978595609862121
0.004978595609860745
0.004978595609860799
0.004978595609859863
0.004978595609859434
0.004978595609859224
0.004978595609860251
0.004978595609858934
0.00497859560985888
0.004978595609859179
0.004978595609858892
0.004978595609859262
0.004978595609859981
0.004978595609857129
0.004978595609857168
0.004978595609856823
0.004978595609856491
0.004978595609857584
0.004978595609857334
0.00497859560985672
0.00496066208793572
0.00496066208793589
0.004960662087937254
0.004960662087937723
0.004960662087940952
0.004960662087942849
0.004960662087943043
0.004960662087943281
0.004960662087945034
0.004960662087944744
0.004960662087944631
0.004960662087946033
0.004960662087945848
0.004960662087945052
0.004960662087946301
0.004960662087945627
0.004960662087946219
0.004960662087944459
0.004960662087945827
0.004960662087946001
0.004960662087945155
0.004960662087945314
0.004960662087945339
0.004960662087945229
0.004960662087945646
0.004960662087944987
0.004960662087942838
0.004960662087943443
0.004960662087944465
0.004960662087944126
0.004960662087942574
0.004960662087943174
0.00496066208794252
0.004960662087943483
0.004960662087942357
0.00496066208794335
0.00496066208794067
0.004960662087942042
0.004960662087940455
0.004960662087942184
0.004960662087941024
0.004960662087939859
0.004960662087940099
0.004960662087940843
0.004960662087940401
0.004960662087938602
0.004960662087939422
0.004960662087940018
0.004960662087937982
0.004960662087938054
0.004960662087936071
0.004960662087936368
0.004960662087937494
0.004960662087936002
0.00496066208793647
0.004960662087935777
0.004960662087936844
0.004960662087936106
0.004960662087936524
0.004960662087935499
0.004960662087935428
0.004960662087933443
0.004960662087933285
0.004960662087934055
0.004960662087935274
0.004960662087933343
0.004917383962714622
0.004917383962715786
0.004917383962719685
0.004917383962722955
0.004917383962726696
0.004917383962728287
0.004917383962726769
0.004917383962729034
0.004917383962729827
0.004917383962728978
0.004917383962729104
0.004917383962729136
0.00491738396272979
0.004917383962728224
0.004917383962728384
0.004917383962727614
0.004917383962727939
0.004917383962726747
0.004917383962726807
0.004917383962728051
0.004917383962726378
0.00491738396272685
0.004917383962726015
0.004917383962726986
0.004917383962725798
0.00491738396272664
0.004917383962722455
0.004917383962723813
0.00491738396272304
0.004917383962723837
0.004917383962721625
0.004917383962721932
0.004917383962721784
0.004917383962722077
0.004917383962722781
0.004917383962722578
0.004917383962719581
0.004917383962719873
0.004917383962719699
0.004917383962721436
0.004917383962719866
0.004917383962718538
0.004917383962718861
0.004917383962718583
0.004917383962718572
0.004917383962717419
0.004917383962717825
0.004917383962718761
0.00491738396271749
0.004917383962716877
0.004917383962714633
0.004917383962714772
0.004917383962714782
0.00491738396271607
0.00491738396271452
0.004917383962713527
0.004917383962714728
0.004917383962713765
0.004917383962715147
0.004917383962712289
0.004917383962713658
0.004917383962712205
0.004917383962711286
0.004917383962711782
0.004917383962713091
0.004917383962711043
0.004858097007238072
0.004858097007245042
0.004858097007251814
0.00485809700725669
0.004858097007257395
0.004858097007257868
0.004858097007257393
0.004858097007259652
0.004858097007258346
0.004858097007259707
0.004858097007257371
0.004858097007257402
0.004858097007257666
0.004858097007255466
0.004858097007254335
0.004858097007253163
0.004858097007252733
0.004858097007251829
0.004858097007252263
0.004858097007251919
0.004858097007253584
0.004858097007251298
0.004858097007249648
0.004858097007250247
0.004858097007249164
0.004858097007249273
0.004858097007245705
0.00485809700724527
0.004858097007244789
0.004858097007245241
0.004858097007244196
0.004858097007244455
0.004858097007243941
0.00485809700724561
0.00485809700724388
0.004858097007245142
0.004858097007241328
0.004858097007241486
0.00485809700724146
0.004858097007243413
0.004858097007241388
0.004858097007240208
0.004858097007240541
0.004858097007241277
0.004858097007239873
0.004858097007240297
0.004858097007238174
0.004858097007238463
0.004858097007237659
0.004858097007237096
0.004858097007237088
0.004858097007236268
0.004858097007236195
0.004858097007236499
0.004858097007236516
0.004858097007236029
0.004858097007234183
0.004858097007234378
0.004858097007234168
0.004858097007234215
0.004858097007233926
0.004858097007234045
0.004858097007232529
0.004858097007232991
0.004858097007234215
0.004858097007232042
0.004795064804545444
0.004795064804564053
0.004795064804569717
0.004795064804569533
0.004795064804569199
0.004795064804568859
0.004795064804564641
0.004795064804564941
0.004795064804561783
0.004795064804563876
0.00479506480456226
0.004795064804563929
0.0047950648045631
0.004795064804561438
0.004795064804557985
0.004795064804553464
0.004795064804551699
0.004795064804551179
0.004795064804551017
0.004795064804551292
0.004795064804551517
0.004795064804552102
0.004795064804551157
0.004795064804549774
0.004795064804548481
0.004795064804545478
0.004795064804545283
0.004795064804544295
0.004795064804541324
0.004795064804541694
0.004795064804543083
0.004795064804540597
0.004795064804541184
0.00479506480454316
0.004795064804540891
0.00479506480454172
0.004795064804539456
0.004795064804541183
0.004795064804539161
0.004795064804540991
0.00479506480453815
0.004795064804538076
0.004795064804537463
0.004795064804538192
0.004795064804537456
0.004795064804536201
0.004795064804535395
0.004795064804536636
0.004795064804534031
0.004795064804533684
0.004795064804534503
0.004795064804533875
0.00479506480453419
0.0047950648045349
0.004795064804531663
0.00479506480453237
0.004795064804533536
0.004795064804532887
0.004795064804532685
0.004795064804530419
0.004795064804532588
0.004795064804531253