/*--------------------------------*- C++ -*----------------------------------*\
| =========                 |                                                 |
| \\      /  F ield         | OpenFOAM: The Open Source CFD Toolbox           |
|  \\    /   O peration     | Version:  v1812                                 |
|   \\  /    A nd           | Web:      www.OpenFOAM.com                      |
|    \\/     M anipulation  |                                                 |
\*---------------------------------------------------------------------------*/
FoamFile
{
    version     2.0;
    format      ascii;
    class       volScalarField;
    location    "10000";
    object      nuTilda_0;
}
// * * * * * * * * * * * * * * * * * * * * * * * * * * * * * * * * * * * * * //

dimensions      [0 2 -1 0 0 0 0];


internalField   nonuniform List<scalar> 
2838
(
0.0004840338370775442
0.0004840338370775444
0.000484033837077545
0.0004840338370775446
0.0004840338370775447
0.0004840338370775447
0.0004840338370775448
0.0004840338370775446
0.0004840338370775445
0.0004840338370775446
0.0004840338370775444
0.0004840338370775448
0.0004840338370775446
0.0004840338370775445
0.0004840338370775448
0.0004840338370775442
0.0004840338370775448
0.0004840338370775444
0.0004840338370775446
0.0004840338370775442
0.0004840338370775442
0.0004840338370775442
0.0004840338370775447
0.0004840338370775444
0.0004840338370775441
0.0004840338370775448
0.0004840338370775441
0.0004840338370775447
0.000484033837077544
0.0004840338370775448
0.0004840338370775442
0.0004840338370775439
0.0004840338370775445
0.000484033837077544
0.0004840338370775436
0.0004840338370775441
0.0004840338370775453
0.0004840338370775441
0.0004840338370775435
0.0004840338370775439
0.0004840338370775442
0.0004840338370775438
0.0004840338370775444
0.000484033837077544
0.0004840338370775444
0.0004840338370775439
0.0004840338370775441
0.0004840338370775445
0.0004840338370775437
0.0004840338370775438
0.0004840338370775443
0.0004840338370775444
0.0004840338370775444
0.0004840338370775436
0.0004840338370775437
0.0004840338370775443
0.0004840338370775439
0.0004840338370775428
0.0004840338370775451
0.0004840338370775435
0.0004840338370775445
0.0004840338370775434
0.0004840338370775445
0.0004840338370775434
0.0004840338370775447
0.0004840338370775441
0.0003631426205532877
0.0003631426205532735
0.0003631426205532698
0.0003631426205532667
0.0003631426205532682
0.0003631426205532658
0.0003631426205532655
0.0003631426205532671
0.0003631426205532665
0.0003631426205532649
0.0003631426205532699
0.0003631426205532674
0.0003631426205532672
0.0003631426205532655
0.0003631426205532677
0.000363142620553267
0.0003631426205532656
0.0003631426205532669
0.0003631426205532657
0.0003631426205532651
0.0003631426205532656
0.0003631426205532616
0.0003631426205532658
0.0003631426205532656
0.0003631426205532653
0.0003631426205532659
0.0003631426205532669
0.0003631426205532652
0.0003631426205532649
0.0003631426205532661
0.0003631426205532661
0.0003631426205532645
0.0003631426205532662
0.0003631426205532651
0.0003631426205532643
0.000363142620553263
0.0003631426205532655
0.0003631426205532641
0.0003631426205532668
0.0003631426205532639
0.0003631426205532656
0.0003631426205532616
0.0003631426205532628
0.0003631426205532626
0.0003631426205532664
0.0003631426205532616
0.0003631426205532667
0.0003631426205532603
0.0003631426205532661
0.0003631426205532632
0.0003631426205532642
0.0003631426205532596
0.0003631426205532658
0.0003631426205532593
0.0003631426205532651
0.0003631426205532599
0.0003631426205532642
0.0003631426205532584
0.0003631426205532656
0.0003631426205532559
0.0003631426205532598
0.0003631426205532541
0.0003631426205532632
0.0003631426205532559
0.000363142620553267
0.0003631426205532496
0.0006303744997617653
0.0006303744997617447
0.0006303744997617392
0.0006303744997617365
0.0006303744997617393
0.0006303744997617398
0.0006303744997617443
0.0006303744997617419
0.0006303744997617375
0.0006303744997617437
0.0006303744997617449
0.0006303744997617469
0.0006303744997617367
0.0006303744997617351
0.0006303744997617426
0.0006303744997617351
0.0006303744997617309
0.00063037449976174
0.0006303744997617348
0.0006303744997617318
0.0006303744997617395
0.0006303744997617379
0.0006303744997617374
0.0006303744997617413
0.0006303744997617323
0.0006303744997617341
0.0006303744997617427
0.0006303744997617388
0.0006303744997617363
0.0006303744997617414
0.0006303744997617408
0.0006303744997617468
0.0006303744997617453
0.0006303744997617402
0.0006303744997617364
0.0006303744997617362
0.0006303744997617455
0.0006303744997617496
0.0006303744997617441
0.0006303744997617383
0.0006303744997617346
0.0006303744997617415
0.0006303744997617451
0.0006303744997617468
0.0006303744997617413
0.0006303744997617366
0.0006303744997617462
0.0006303744997617364
0.0006303744997617443
0.0006303744997617431
0.0006303744997617369
0.0006303744997617335
0.000630374499761735
0.0006303744997617341
0.0006303744997617352
0.0006303744997617362
0.0006303744997617355
0.0006303744997617372
0.0006303744997617382
0.0006303744997617218
0.0006303744997617186
0.0006303744997617224
0.0006303744997617224
0.0006303744997617285
0.0006303744997617335
0.0006303744997617209
0.0008680848410910563
0.0008680848410910503
0.0008680848410910387
0.000868084841091041
0.0008680848410910407
0.0008680848410910377
0.0008680848410910474
0.0008680848410910443
0.0008680848410910448
0.0008680848410910454
0.0008680848410910431
0.0008680848410910494
0.0008680848410910449
0.0008680848410910298
0.000868084841091039
0.0008680848410910411
0.0008680848410910238
0.0008680848410910384
0.0008680848410910386
0.0008680848410910287
0.0008680848410910361
0.0008680848410910387
0.0008680848410910286
0.0008680848410910428
0.0008680848410910399
0.0008680848410910304
0.0008680848410910441
0.0008680848410910476
0.000868084841091035
0.0008680848410910464
0.0008680848410910427
0.000868084841091053
0.0008680848410910536
0.000868084841091048
0.0008680848410910512
0.000868084841091033
0.0008680848410910498
0.0008680848410910542
0.0008680848410910493
0.0008680848410910505
0.0008680848410910461
0.0008680848410910549
0.0008680848410910502
0.0008680848410910606
0.0008680848410910512
0.000868084841091047
0.0008680848410910546
0.0008680848410910517
0.0008680848410910609
0.0008680848410910577
0.0008680848410910294
0.0008680848410910425
0.0008680848410910385
0.0008680848410910344
0.0008680848410910304
0.000868084841091039
0.0008680848410910364
0.0008680848410910457
0.0008680848410910394
0.0008680848410910186
0.0008680848410910119
0.0008680848410910298
0.0008680848410910249
0.0008680848410910392
0.0008680848410910305
0.0008680848410910099
0.00113575347259878
0.001135753472598772
0.001135753472598773
0.001135753472598788
0.001135753472598778
0.00113575347259877
0.001135753472598776
0.001135753472598772
0.001135753472598786
0.001135753472598771
0.001135753472598766
0.001135753472598778
0.001135753472598784
0.001135753472598748
0.001135753472598768
0.001135753472598762
0.001135753472598745
0.001135753472598761
0.001135753472598756
0.00113575347259874
0.001135753472598763
0.001135753472598759
0.001135753472598752
0.00113575347259877
0.001135753472598777
0.001135753472598751
0.001135753472598773
0.001135753472598784
0.001135753472598768
0.001135753472598784
0.001135753472598771
0.001135753472598798
0.001135753472598787
0.001135753472598779
0.001135753472598794
0.001135753472598776
0.001135753472598801
0.001135753472598794
0.001135753472598779
0.001135753472598799
0.001135753472598777
0.001135753472598795
0.001135753472598793
0.001135753472598808
0.001135753472598812
0.001135753472598778
0.001135753472598792
0.001135753472598793
0.001135753472598809
0.001135753472598814
0.001135753472598757
0.001135753472598774
0.001135753472598769
0.001135753472598772
0.001135753472598765
0.001135753472598771
0.001135753472598762
0.001135753472598781
0.001135753472598776
0.001135753472598754
0.00113575347259873
0.001135753472598761
0.001135753472598748
0.001135753472598771
0.00113575347259875
0.001135753472598731
0.001498364213086739
0.001498364213086708
0.001498364213086709
0.001498364213086736
0.001498364213086764
0.001498364213086681
0.001498364213086698
0.001498364213086692
0.001498364213086742
0.0014983642130867
0.001498364213086679
0.001498364213086728
0.001498364213086702
0.001498364213086668
0.001498364213086709
0.001498364213086679
0.001498364213086651
0.001498364213086701
0.00149836421308668
0.001498364213086651
0.001498364213086699
0.00149836421308668
0.001498364213086659
0.001498364213086718
0.001498364213086694
0.001498364213086676
0.001498364213086731
0.001498364213086712
0.001498364213086693
0.00149836421308673
0.001498364213086697
0.001498364213086741
0.001498364213086769
0.001498364213086702
0.001498364213086738
0.001498364213086722
0.001498364213086747
0.001498364213086779
0.001498364213086701
0.001498364213086771
0.001498364213086702
0.001498364213086733
0.00149836421308673
0.001498364213086763
0.001498364213086797
0.001498364213086719
0.001498364213086737
0.001498364213086733
0.001498364213086787
0.001498364213086764
0.001498364213086713
0.001498364213086706
0.001498364213086691
0.001498364213086699
0.00149836421308669
0.001498364213086696
0.001498364213086684
0.001498364213086718
0.001498364213086736
0.001498364213086692
0.001498364213086644
0.00149836421308669
0.001498364213086661
0.001498364213086702
0.001498364213086705
0.001498364213086632
0.002007619111230362
0.00200761911123042
0.002007619111230313
0.00200761911123035
0.002007619111230434
0.002007619111230259
0.002007619111230275
0.002007619111230261
0.002007619111230313
0.002007619111230391
0.002007619111230218
0.00200761911123029
0.002007619111230369
0.002007619111230199
0.002007619111230255
0.002007619111230322
0.002007619111230166
0.002007619111230242
0.002007619111230335
0.002007619111230178
0.002007619111230245
0.002007619111230334
0.002007619111230194
0.002007619111230281
0.002007619111230358
0.002007619111230222
0.002007619111230305
0.002007619111230319
0.002007619111230265
0.002007619111230338
0.002007619111230287
0.002007619111230355
0.002007619111230432
0.0020076191112303
0.002007619111230341
0.00200761911123034
0.002007619111230417
0.002007619111230371
0.002007619111230315
0.002007619111230456
0.002007619111230357
0.00200761911123044
0.002007619111230312
0.00200761911123044
0.002007619111230402
0.002007619111230347
0.002007619111230432
0.002007619111230298
0.002007619111230376
0.002007619111230466
0.002007619111230414
0.002007619111230304
0.002007619111230256
0.002007619111230273
0.002007619111230259
0.002007619111230272
0.00200761911123026
0.002007619111230358
0.002007619111230285
0.002007619111230236
0.002007619111230301
0.002007619111230267
0.002007619111230206
0.002007619111230275
0.002007619111230332
0.002007619111230174
0.002613801128610707
0.002613801128610722
0.002613801128610753
0.00261380112861069
0.002613801128610714
0.002613801128610618
0.002613801128610606
0.002613801128610559
0.002613801128610632
0.00261380112861079
0.002613801128610487
0.002613801128610591
0.002613801128610753
0.002613801128610452
0.002613801128610505
0.002613801128610627
0.002613801128610407
0.002613801128610614
0.002613801128610566
0.002613801128610474
0.002613801128610635
0.002613801128610556
0.002613801128610503
0.002613801128610605
0.002613801128610779
0.002613801128610522
0.002613801128610645
0.002613801128610815
0.002613801128610575
0.002613801128610702
0.002613801128610655
0.002613801128610831
0.002613801128610723
0.002613801128610697
0.002613801128610722
0.002613801128610702
0.002613801128610684
0.002613801128610746
0.002613801128610675
0.002613801128610774
0.002613801128610764
0.002613801128610781
0.002613801128610726
0.002613801128610909
0.002613801128610807
0.002613801128610715
0.002613801128610779
0.002613801128610674
0.002613801128610813
0.00261380112861075
0.002613801128610757
0.002613801128610765
0.002613801128610635
0.002613801128610597
0.002613801128610559
0.002613801128610586
0.002613801128610572
0.00261380112861069
0.002613801128610567
0.002613801128610497
0.002613801128610658
0.002613801128610571
0.002613801128610462
0.002613801128610556
0.002613801128610708
0.002613801128610426
0.003203346226524302
0.003203346226524127
0.00320334622652405
0.003203346226524167
0.003203346226524343
0.003203346226523902
0.003203346226523949
0.003203346226523908
0.003203346226524013
0.003203346226524245
0.00320334622652379
0.003203346226523926
0.003203346226524182
0.003203346226523752
0.003203346226523899
0.003203346226524139
0.003203346226523711
0.003203346226524014
0.00320334622652393
0.003203346226523803
0.003203346226524047
0.003203346226523974
0.00320334622652387
0.00320334622652401
0.003203346226524281
0.003203346226523904
0.003203346226524224
0.003203346226524098
0.003203346226524041
0.003203346226524326
0.003203346226524381
0.003203346226524131
0.003203346226524138
0.003203346226524191
0.003203346226524407
0.003203346226524087
0.003203346226524107
0.003203346226524194
0.003203346226524146
0.003203346226524438
0.003203346226524497
0.003203346226524227
0.0032033462265242
0.003203346226524334
0.003203346226524521
0.003203346226524118
0.00320334622652421
0.003203346226524096
0.003203346226524006
0.003203346226524336
0.003203346226524131
0.003203346226524073
0.003203346226524251
0.003203346226524199
0.003203346226523854
0.003203346226524008
0.003203346226524155
0.003203346226524103
0.003203346226523798
0.003203346226523779
0.0032033462265239
0.003203346226524086
0.003203346226523669
0.003203346226523841
0.003203346226524109
0.003203346226523695
0.003703984110636698
0.003703984110636683
0.003703984110636585
0.003703984110636706
0.003703984110636716
0.003703984110636547
0.003703984110636817
0.003703984110636392
0.003703984110636542
0.003703984110636864
0.003703984110636273
0.003703984110636555
0.003703984110636521
0.003703984110636323
0.003703984110636471
0.003703984110636797
0.003703984110636238
0.003703984110636456
0.00370398411063681
0.003703984110636303
0.003703984110636685
0.003703984110636631
0.003703984110636492
0.003703984110636677
0.003703984110637045
0.003703984110636546
0.003703984110636985
0.00370398411063688
0.003703984110636755
0.003703984110637007
0.003703984110637273
0.003703984110637268
0.003703984110636828
0.003703984110636876
0.003703984110636909
0.003703984110636903
0.003703984110636838
0.003703984110636901
0.003703984110636868
0.003703984110637387
0.003703984110637151
0.00370398411063735
0.003703984110636886
0.00370398411063705
0.003703984110637262
0.003703984110637132
0.003703984110636707
0.00370398411063701
0.003703984110636628
0.003703984110636843
0.003703984110636644
0.003703984110636644
0.003703984110636927
0.003703984110636884
0.003703984110636444
0.003703984110636506
0.003703984110636513
0.003703984110636445
0.003703984110636493
0.003703984110636299
0.003703984110636572
0.003703984110636264
0.003703984110636142
0.003703984110636326
0.003703984110636684
0.003703984110636148
0.00410241874496834
0.004102418744968288
0.004102418744968631
0.004102418744968482
0.004102418744968241
0.004102418744968233
0.004102418744968249
0.00410241874496821
0.00410241874496851
0.004102418744968506
0.004102418744967811
0.004102418744968037
0.004102418744968087
0.004102418744967878
0.004102418744968354
0.004102418744968228
0.004102418744967978
0.004102418744968384
0.004102418744968293
0.004102418744968092
0.004102418744968529
0.004102418744968434
0.004102418744968274
0.004102418744968516
0.004102418744968962
0.004102418744968376
0.004102418744968707
0.004102418744968984
0.004102418744968591
0.004102418744968877
0.004102418744968935
0.00410241874496912
0.004102418744969255
0.004102418744968606
0.004102418744968864
0.004102418744969261
0.004102418744968616
0.004102418744968692
0.004102418744968688
0.004102418744969245
0.00410241874496938
0.00410241874496899
0.00410241874496923
0.004102418744969059
0.004102418744968603
0.004102418744968648
0.004102418744968742
0.004102418744968625
0.004102418744968883
0.004102418744968532
0.004102418744968291
0.004102418744968323
0.004102418744968341
0.004102418744968243
0.004102418744968245
0.00410241874496823
0.004102418744968289
0.004102418744968091
0.004102418744968029
0.004102418744967864
0.00410241874496804
0.004102418744968371
0.004102418744967639
0.004102418744968138
0.004102418744967991
0.004102418744967758
0.004409482995959822
0.004409482995959763
0.004409482995960034
0.004409482995960487
0.004409482995959615
0.004409482995959849
0.004409482995960229
0.004409482995959494
0.00440948299595981
0.004409482995960129
0.004409482995959313
0.004409482995959903
0.004409482995959709
0.004409482995959496
0.004409482995959784
0.004409482995960271
0.004409482995959495
0.004409482995960109
0.004409482995960015
0.004409482995959814
0.004409482995960399
0.004409482995960272
0.004409482995960103
0.004409482995960695
0.004409482995960438
0.004409482995960359
0.004409482995960676
0.004409482995961225
0.004409482995960494
0.004409482995960817
0.004409482995961267
0.004409482995961156
0.004409482995961171
0.004409482995960462
0.004409482995960848
0.004409482995961383
0.004409482995960542
0.004409482995960606
0.004409482995960522
0.00440948299596116
0.004409482995960956
0.004409482995961118
0.004409482995960973
0.004409482995961031
0.004409482995960251
0.004409482995960824
0.004409482995960556
0.004409482995960862
0.004409482995960159
0.004409482995960223
0.004409482995960058
0.004409482995960527
0.004409482995960159
0.004409482995959831
0.004409482995960248
0.004409482995959947
0.004409482995959662
0.004409482995959557
0.004409482995959548
0.004409482995959194
0.004409482995959483
0.004409482995959998
0.004409482995959092
0.004409482995959392
0.004409482995959895
0.004409482995959065
0.004638598751504403
0.0046385987515043
0.00463859875150461
0.004638598751505203
0.004638598751504119
0.004638598751504291
0.004638598751504342
0.004638598751504055
0.00463859875150475
0.004638598751504547
0.004638598751504179
0.00463859875150476
0.004638598751504569
0.004638598751504307
0.00463859875150463
0.004638598751505196
0.00463859875150434
0.004638598751504818
0.004638598751505428
0.004638598751504676
0.004638598751505208
0.004638598751505507
0.004638598751505181
0.004638598751505942
0.0046385987515058
0.004638598751505602
0.004638598751506255
0.004638598751506066
0.004638598751505836
0.00463859875150638
0.004638598751506003
0.004638598751505821
0.004638598751505849
0.004638598751505678
0.004638598751506023
0.004638598751506605
0.004638598751506281
0.004638598751505884
0.004638598751505389
0.004638598751505869
0.004638598751505844
0.00463859875150604
0.004638598751506306
0.004638598751506035
0.004638598751505226
0.004638598751505698
0.004638598751505504
0.00463859875150573
0.004638598751505006
0.004638598751505122
0.004638598751504957
0.004638598751505098
0.004638598751505436
0.004638598751504409
0.004638598751504699
0.004638598751504639
0.004638598751504257
0.004638598751504651
0.004638598751504187
0.00463859875150383
0.004638598751504412
0.0046385987515042
0.00463859875150373
0.004638598751504228
0.004638598751504027
0.004638598751503636
0.004801107080032198
0.004801107080032066
0.004801107080032424
0.004801107080033113
0.00480110708003188
0.004801107080032297
0.004801107080032958
0.004801107080031907
0.004801107080032795
0.004801107080032639
0.004801107080032336
0.004801107080033083
0.004801107080032893
0.004801107080032632
0.004801107080033361
0.0048011070800329
0.004801107080032877
0.004801107080033214
0.004801107080033307
0.004801107080033237
0.004801107080034231
0.004801107080034147
0.004801107080033932
0.004801107080034753
0.004801107080034563
0.004801107080034374
0.004801107080035048
0.004801107080035187
0.00480110708003449
0.004801107080035061
0.004801107080034143
0.004801107080034804
0.004801107080034794
0.004801107080033975
0.004801107080034402
0.004801107080035119
0.004801107080034978
0.004801107080033912
0.004801107080033814
0.004801107080034592
0.004801107080033705
0.004801107080034068
0.004801107080034141
0.004801107080034348
0.0048011070800342
0.004801107080033336
0.004801107080033726
0.004801107080033466
0.004801107080033418
0.004801107080033435
0.004801107080033751
0.00480110708003346
0.004801107080032598
0.004801107080033057
0.004801107080032197
0.00480110708003231
0.004801107080032683
0.004801107080031812
0.004801107080031895
0.004801107080031645
0.00480110708003195
0.004801107080032578
0.004801107080031297
0.004801107080031583
0.004801107080031743
0.004801107080031299
0.004906495992930858
0.004906495992930725
0.004906495992931149
0.004906495992931901
0.004906495992930631
0.004906495992931226
0.004906495992932071
0.004906495992930968
0.00490649599293209
0.004906495992931925
0.004906495992931754
0.004906495992932772
0.004906495992932526
0.004906495992932305
0.004906495992933258
0.004906495992933031
0.004906495992932798
0.004906495992933786
0.004906495992933998
0.004906495992933115
0.004906495992933925
0.004906495992934371
0.004906495992933881
0.004906495992935019
0.004906495992934531
0.004906495992935043
0.00490649599293409
0.004906495992935033
0.00490649599293453
0.004906495992934255
0.004906495992934142
0.004906495992934135
0.004906495992933868
0.004906495992934429
0.004906495992933379
0.004906495992933923
0.004906495992933914
0.00490649599293378
0.004906495992933449
0.004906495992933387
0.004906495992933201
0.004906495992933851
0.004906495992932971
0.004906495992933064
0.004906495992933339
0.004906495992932753
0.004906495992932781
0.004906495992933315
0.004906495992931913
0.004906495992931942
0.004906495992932271
0.004906495992932012
0.004906495992932034
0.004906495992931552
0.004906495992931176
0.004906495992931202
0.004906495992930994
0.00490649599293071
0.004906495992930783
0.004906495992930264
0.00490649599293102
0.004906495992930675
0.004906495992930029
0.004906495992930257
0.004906495992930763
0.004906495992929692
0.004963085035230359
0.00496308503523024
0.004963085035231293
0.004963085035230816
0.00496308503523069
0.004963085035231967
0.004963085035231522
0.004963085035231596
0.004963085035232935
0.004963085035232828
0.004963085035232683
0.004963085035233484
0.004963085035233564
0.004963085035233495
0.004963085035234679
0.004963085035234481
0.004963085035234191
0.004963085035234824
0.004963085035234831
0.004963085035234768
0.004963085035235943
0.004963085035235679
0.004963085035235315
0.004963085035236066
0.004963085035235945
0.004963085035235008
0.004963085035235057
0.004963085035235093
0.004963085035236012
0.004963085035235191
0.004963085035235245
0.004963085035235346
0.004963085035234629
0.004963085035234542
0.004963085035235072
0.004963085035233966
0.004963085035235066
0.004963085035234154
0.004963085035234742
0.004963085035234493
0.004963085035234264
0.004963085035233091
0.004963085035233221
0.004963085035233165
0.004963085035233174
0.004963085035232913
0.004963085035233049
0.00496308503523351
0.0049630850352317
0.004963085035231654
0.004963085035231602
0.004963085035231755
0.004963085035232458
0.00496308503523227
0.00496308503523079
0.004963085035230974
0.004963085035231464
0.004963085035231203
0.004963085035229682
0.004963085035229412
0.004963085035229899
0.004963085035230732
0.004963085035229131
0.004963085035229626
0.004963085035230513
0.00496308503522891
0.004978595609863357
0.004978595609863267
0.004978595609863781
0.00497859560986388
0.004978595609865718
0.004978595609867137
0.004978595609866958
0.004978595609866898
0.004978595609867949
0.004978595609868155
0.004978595609868056
0.004978595609869582
0.004978595609869396
0.004978595609869103
0.004978595609870452
0.004978595609870079
0.004978595609869703
0.004978595609870218
0.004978595609870045
0.004978595609871172
0.004978595609871364
0.004978595609870664
0.004978595609871431
0.004978595609871335
0.004978595609869667
0.004978595609869622
0.004978595609870477
0.004978595609869291
0.004978595609869882
0.00497859560986975
0.004978595609869993
0.004978595609870347
0.004978595609869003
0.004978595609869028
0.004978595609868583
0.004978595609868485
0.004978595609868413
0.004978595609868654
0.004978595609869516
0.004978595609869427
0.00497859560986774
0.004978595609866692
0.004978595609867148
0.004978595609867775
0.004978595609866283
0.004978595609866643
0.004978595609866252
0.004978595609866123
0.004978595609866207
0.004978595609864393
0.004978595609864771
0.004978595609864394
0.004978595609864587
0.004978595609864602
0.004978595609864054
0.004978595609864963
0.00497859560986409
0.004978595609865056
0.004978595609863943
0.004978595609862112
0.00497859560986235
0.004978595609862278
0.00497859560986181
0.004978595609862291
0.004978595609863382
0.004978595609861605
0.004960662087941882
0.004960662087941593
0.004960662087943594
0.004960662087943034
0.004960662087946598
0.004960662087948178
0.004960662087949812
0.004960662087948967
0.004960662087950109
0.00496066208795145
0.00496066208795014
0.004960662087951114
0.004960662087952317
0.004960662087950383
0.004960662087951298
0.004960662087952278
0.004960662087950679
0.00496066208795052
0.004960662087950935
0.004960662087951182
0.004960662087951759
0.004960662087951333
0.004960662087951507
0.004960662087951402
0.004960662087949899
0.00496066208794935
0.004960662087949062
0.004960662087950265
0.004960662087949478
0.00496066208794892
0.004960662087948901
0.004960662087950011
0.004960662087948202
0.004960662087948449
0.004960662087948878
0.004960662087947995
0.004960662087946732
0.004960662087947106
0.004960662087947168
0.004960662087947481
0.004960662087947555
0.004960662087945229
0.004960662087946295
0.004960662087945709
0.004960662087945074
0.004960662087944981
0.004960662087946139
0.004960662087944645
0.004960662087944459
0.004960662087942354
0.004960662087942129
0.004960662087942697
0.004960662087942264
0.004960662087942248
0.004960662087943061
0.004960662087941332
0.004960662087942034
0.004960662087943003
0.004960662087940585
0.004960662087940328
0.004960662087940216
0.00496066208794013
0.004960662087939592
0.004960662087940664
0.004960662087940281
0.004960662087939499
0.00491738396272239
0.004917383962722143
0.004917383962726312
0.004917383962729525
0.004917383962733215
0.0049173839627339
0.004917383962734095
0.004917383962735173
0.004917383962735527
0.004917383962736265
0.004917383962736067
0.004917383962736176
0.0049173839627373
0.004917383962733846
0.004917383962735448
0.004917383962733965
0.004917383962735263
0.004917383962732951
0.004917383962733809
0.004917383962733526
0.00491738396273344
0.004917383962734414
0.004917383962732513
0.004917383962732819
0.004917383962733457
0.004917383962731375
0.004917383962728771
0.004917383962729781
0.004917383962731075
0.004917383962728981
0.004917383962728922
0.004917383962729024
0.004917383962728763
0.004917383962729236
0.004917383962728123
0.004917383962727529
0.00491738396272669
0.004917383962727045
0.004917383962726716
0.004917383962727309
0.004917383962727561
0.004917383962724525
0.004917383962726169
0.004917383962725277
0.0049173839627257
0.004917383962723623
0.004917383962725456
0.00491738396272409
0.004917383962722669
0.00491738396272213
0.004917383962721635
0.004917383962721976
0.004917383962721521
0.004917383962721971
0.00491738396272219
0.004917383962719631
0.004917383962720488
0.004917383962721656
0.004917383962720566
0.004917383962718622
0.00491738396271925
0.004917383962719793
0.004917383962717552
0.004917383962719039
0.004917383962718726
0.004917383962718044
0.004858097007245833
0.004858097007252641
0.004858097007259365
0.00485809700726425
0.004858097007265852
0.004858097007265797
0.004858097007265175
0.004858097007266693
0.004858097007267739
0.004858097007266321
0.004858097007265528
0.004858097007265654
0.004858097007266327
0.004858097007261406
0.004858097007261684
0.004858097007260748
0.004858097007261089
0.004858097007259568
0.004858097007259895
0.004858097007260843
0.004858097007260375
0.004858097007259814
0.004858097007257154
0.00485809700725742
0.004858097007258156
0.004858097007257015
0.004858097007252353
0.004858097007252984
0.0048580970072528
0.004858097007253877
0.004858097007251601
0.004858097007253275
0.004858097007251773
0.004858097007252371
0.004858097007252533
0.004858097007250819
0.004858097007249028
0.004858097007249485
0.004858097007249444
0.004858097007249925
0.004858097007250067
0.004858097007247195
0.004858097007248961
0.004858097007247299
0.004858097007247138
0.004858097007246622
0.004858097007246476
0.004858097007246492
0.00485809700724492
0.004858097007245059
0.004858097007245797
0.00485809700724358
0.004858097007243977
0.00485809700724367
0.00485809700724259
0.004858097007242076
0.004858097007241971
0.004858097007242475
0.004858097007241411
0.004858097007242687
0.004858097007241453
0.00485809700724216
0.004858097007239249
0.004858097007241363
0.00485809700724029
0.004858097007239891
0.004795064804554118
0.004795064804572763
0.004795064804579759
0.004795064804577884
0.004795064804579117
0.004795064804575552
0.004795064804574987
0.004795064804571847
0.004795064804571683
0.004795064804572337
0.00479506480457372
0.004795064804572168
0.0047950648045706
0.004795064804568167
0.00479506480456404
0.004795064804563569
0.004795064804560349
0.004795064804560781
0.004795064804560309
0.004795064804561369
0.004795064804560953
0.004795064804559031
0.004795064804557982
0.004795064804556317
0.004795064804555744
0.004795064804555479
0.00479506480455172
0.004795064804551281
0.004795064804550811
0.004795064804551341
0.004795064804550327
0.004795064804550032
0.004795064804550989
0.004795064804550582
0.00479506480455058
0.004795064804551705
0.004795064804547144
0.004795064804548855
0.00479506480454942
0.004795064804548185
0.004795064804547102
0.004795064804547176
0.004795064804546336
0.004795064804546617
0.004795064804547491
0.004795064804544107
0.004795064804544151
0.004795064804543539
0.004795064804543531
0.004795064804542486
0.004795064804544283
0.004795064804542481
0.004795064804544019
0.004795064804541492
0.004795064804540402
0.00479506480454212
0.004795064804540702
0.004795064804539948
0.004795064804539703
0.004795064804539639
0.00479506480454035
0.004795064804541511