/*--------------------------------*- C++ -*----------------------------------*\
| =========                 |                                                 |
| \\      /  F ield         | OpenFOAM: The Open Source CFD Toolbox           |
|  \\    /   O peration     | Version:  v1812                                 |
|   \\  /    A nd           | Web:      www.OpenFOAM.com                      |
|    \\/     M anipulation  |                                                 |
\*---------------------------------------------------------------------------*/
FoamFile
{
    version     2.0;
    format      ascii;
    class       volScalarField;
    location    "10000";
    object      p;
}
// * * * * * * * * * * * * * * * * * * * * * * * * * * * * * * * * * * * * * //

dimensions      [0 2 -2 0 0 0 0];


internalField   nonuniform List<scalar> 
2838
(
6.952968751663959e-17
7.070341332891833e-15
6.215027470393138e-15
4.538327115470392e-15
4.360895636897174e-15
4.031554139494018e-15
3.830770107595891e-15
3.896606522326119e-15
3.865107921220122e-15
4.095357918987597e-15
4.238766320929388e-15
4.293033978514754e-15
4.480550758501052e-15
4.369466242750448e-15
4.195467943704009e-15
4.315583649505726e-15
4.370971339886002e-15
4.162736037443033e-15
4.208889896116519e-15
4.180066748314833e-15
4.0101489554696e-15
4.151382330640666e-15
4.394104578184532e-15
4.260654832555151e-15
4.280484744069008e-15
4.316258627874168e-15
4.223831141159876e-15
4.257353440155024e-15
4.317460786972782e-15
4.19732516010322e-15
4.302659773958071e-15
4.431823193290671e-15
4.684771604230478e-15
4.740464644860202e-15
4.601752988626697e-15
4.550105310487418e-15
4.476928609881987e-15
4.544516106739051e-15
4.674188634951518e-15
4.658666380191215e-15
4.776388091087688e-15
4.868060947530816e-15
4.922369333274363e-15
4.706162208056062e-15
4.892915284308267e-15
4.846458674512807e-15
4.673191285508003e-15
4.709102768606438e-15
4.692608330641813e-15
4.693489428278979e-15
4.679308187293287e-15
4.50249613489786e-15
4.568822419680735e-15
4.567871849993708e-15
4.61663652304237e-15
4.367335175300085e-15
4.531840747255763e-15
4.262663374856915e-15
4.488343771841379e-15
4.179836375579756e-15
4.143626842952898e-15
3.710880002865676e-15
4.28379184099344e-15
3.193933857078916e-15
3.584826769832233e-15
1.243712510368565e-15
1.211067667748407e-16
7.049480968336793e-15
6.198856816560439e-15
4.5348921517318e-15
4.362857981283504e-15
4.033414592521708e-15
3.833474118077012e-15
3.896430998324155e-15
3.868170301146657e-15
4.095983583742315e-15
4.237980521869768e-15
4.291637320386241e-15
4.480948308726741e-15
4.372076205707442e-15
4.192138558220299e-15
4.315821850393968e-15
4.374271694396526e-15
4.163826088430546e-15
4.208291733727321e-15
4.177570345089974e-15
4.010937471421538e-15
4.156751929405678e-15
4.395583654716994e-15
4.256933387992802e-15
4.284012947026859e-15
4.315289435946318e-15
4.223752663460579e-15
4.256211857233595e-15
4.320391176918104e-15
4.199558753586715e-15
4.29889430716197e-15
4.436045239406993e-15
4.685802345824223e-15
4.734755812227661e-15
4.602113140030079e-15
4.557242671080161e-15
4.475458138287821e-15
4.538227752002215e-15
4.67267819766943e-15
4.664121071195384e-15
4.778067443793211e-15
4.868515663101656e-15
4.92283888917627e-15
4.705916961909759e-15
4.893657666276286e-15
4.84651658206021e-15
4.674523724746594e-15
4.707090895885173e-15
4.691711711876243e-15
4.695499517256728e-15
4.684337622986076e-15
4.502212199020373e-15
4.564917805378374e-15
4.563719642691674e-15
4.619717636246581e-15
4.36932503375192e-15
4.525399789227994e-15
4.267670936576831e-15
4.493996756958883e-15
4.175950887119489e-15
4.141800903076176e-15
3.711848694822337e-15
4.28362515866719e-15
3.196323491505935e-15
3.580958551990713e-15
1.260832722453416e-15
1.89103508273982e-16
7.009180008516177e-15
6.173614135192514e-15
4.531610378046775e-15
4.368108159619058e-15
4.035690622852548e-15
3.836594017267766e-15
3.896238811837665e-15
3.87112849029357e-15
4.098236183457383e-15
4.235495071741921e-15
4.287722436509293e-15
4.482637549559302e-15
4.375618824613667e-15
4.187979688008225e-15
4.31398222211965e-15
4.37539294701798e-15
4.166922540013748e-15
4.207548875844871e-15
4.177174853059489e-15
4.012481221053702e-15
4.161135855375826e-15
4.397029510813108e-15
4.256306971452309e-15
4.286347763570468e-15
4.314768685025444e-15
4.223531962035997e-15
4.257004819999846e-15
4.323595248495168e-15
4.200489056969405e-15
4.297518262731399e-15
4.439844966504438e-15
4.687426147198273e-15
4.733411635480973e-15
4.600540840613896e-15
4.558545226228298e-15
4.476225147476023e-15
4.536875296738922e-15
4.671745283016125e-15
4.665989783235396e-15
4.780209485871749e-15
4.868455804116857e-15
4.925437898652051e-15
4.705785714115304e-15
4.894218345677859e-15
4.847601934309164e-15
4.672794460275352e-15
4.703259928043637e-15
4.695800976291487e-15
4.697680882216598e-15
4.683997750550409e-15
4.501139418310906e-15
4.564186383963573e-15
4.560732877759694e-15
4.621299350008813e-15
4.370919890272223e-15
4.524645458617276e-15
4.269583817363204e-15
4.494931590849223e-15
4.169491807681454e-15
4.139468014086795e-15
3.714047390269376e-15
4.285933988229581e-15
3.200184667324639e-15
3.572057826198164e-15
1.301650870677938e-15
2.558646086873667e-16
6.952979897229215e-15
6.141863612672781e-15
4.527319124424519e-15
4.376328381920095e-15
4.039594979632631e-15
3.843181038540134e-15
3.89656954243817e-15
3.873512601231146e-15
4.102185469024434e-15
4.233066631101833e-15
4.282879135733428e-15
4.482541944140691e-15
4.379555914141274e-15
4.182461282839204e-15
4.312199259140283e-15
4.376437568886533e-15
4.170192763847146e-15
4.208570510326865e-15
4.177563115772966e-15
4.015106606521767e-15
4.165908170590537e-15
4.398575451439329e-15
4.256692051441538e-15
4.289775147766015e-15
4.31648350241043e-15
4.222612330506232e-15
4.257996619554537e-15
4.328642321066413e-15
4.19988861175035e-15
4.298377325870626e-15
4.444441988186995e-15
4.686984569364177e-15
4.733918644271578e-15
4.598485842228788e-15
4.560230902600765e-15
4.479134184272833e-15
4.535646942006562e-15
4.668881866667835e-15
4.667881375051319e-15
4.78301856329944e-15
4.870563348753818e-15
4.929780620628977e-15
4.706311682354163e-15
4.892550371655911e-15
4.849394448722462e-15
4.673531552263104e-15
4.699882320228813e-15
4.70008589912475e-15
4.700339964432668e-15
4.683771126158479e-15
4.498593351828203e-15
4.56090888724973e-15
4.560038478825889e-15
4.623168579645461e-15
4.373131147924467e-15
4.526518039963086e-15
4.269657225345253e-15
4.493704474634284e-15
4.160466154134415e-15
4.138444809805355e-15
3.719927762786433e-15
4.287416239382804e-15
3.202071209777154e-15
3.56697417706371e-15
1.361495651911393e-15
3.358295501072506e-16
6.879426402885296e-15
6.110203334115817e-15
4.517921686337356e-15
4.383027198381181e-15
4.039891537963158e-15
3.851461099021135e-15
3.899375430248018e-15
3.879314132096129e-15
4.103657660246878e-15
4.23059989880102e-15
4.276062883534561e-15
4.482752723435528e-15
4.38126212550704e-15
4.178107488266283e-15
4.307401223834913e-15
4.374823320871383e-15
4.175522360363918e-15
4.210813146377402e-15
4.173373459690466e-15
4.017518155376225e-15
4.173265440668508e-15
4.401928956912344e-15
4.259063485470216e-15
4.292690789514514e-15
4.319345286823726e-15
4.223452302630477e-15
4.259954365114383e-15
4.335162583622032e-15
4.198014350983635e-15
4.300599480752569e-15
4.451330367248183e-15
4.683127629512205e-15
4.736237627359083e-15
4.595736339457816e-15
4.563912787735716e-15
4.482346859293048e-15
4.531014353618004e-15
4.666230008482715e-15
4.670817107531247e-15
4.785164974051148e-15
4.873958705843237e-15
4.934709162706223e-15
4.7096616027387e-15
4.888943266827345e-15
4.847808335640884e-15
4.674942970353798e-15
4.698175856532541e-15
4.708373961104634e-15
4.700412253284806e-15
4.682564856287153e-15
4.496480989091057e-15
4.557220440240887e-15
4.558858377819993e-15
4.625748278703805e-15
4.375894196476833e-15
4.529170427631677e-15
4.268752841288802e-15
4.491505710169329e-15
4.148614091235814e-15
4.141134908872936e-15
3.727098226467618e-15
4.28599920841088e-15
3.208501791191811e-15
3.566502448035876e-15
1.436456591387415e-15
4.366432935333319e-16
6.779385599505685e-15
6.078060916884015e-15
4.487146894130372e-15
4.379699423456343e-15
4.033692562620839e-15
3.862944198603934e-15
3.90580876612152e-15
3.880277864896905e-15
4.106251130991489e-15
4.23019462020671e-15
4.27277075167491e-15
4.478505380403539e-15
4.383528001171613e-15
4.170016531725605e-15
4.299968362979388e-15
4.374367443528385e-15
4.180468093619539e-15
4.211033993893284e-15
4.169469733633296e-15
4.019311126537897e-15
4.184169284726238e-15
4.403245797772343e-15
4.265770507525839e-15
4.297180841005191e-15
4.322777648802106e-15
4.230764369166172e-15
4.260492490089538e-15
4.341178490356555e-15
4.197544725935733e-15
4.303642564377002e-15
4.464344208331825e-15
4.67618320305413e-15
4.734638181812242e-15
4.593422554694936e-15
4.567190172787382e-15
4.493333686146348e-15
4.526145179450595e-15
4.656274777383293e-15
4.67558917806144e-15
4.791642290913609e-15
4.876147369095194e-15
4.941950305059357e-15
4.720502054605837e-15
4.879228409342005e-15
4.842410694652386e-15
4.673386650008277e-15
4.70061627632143e-15
4.727127325769414e-15
4.693879436862605e-15
4.679777878036622e-15
4.490081717432306e-15
4.553567170156795e-15
4.55641277136978e-15
4.628584018893047e-15
4.381578093801478e-15
4.534557941016667e-15
4.271902531195589e-15
4.483647301398974e-15
4.13056572306161e-15
4.14574100516187e-15
3.741176376068648e-15
4.281760373505926e-15
3.228554360957862e-15
3.57572699752332e-15
1.550082955153264e-15
5.98569884413861e-16
6.635724221592334e-15
6.043220343569713e-15
4.41624534007573e-15
4.337009772474905e-15
4.017546105493497e-15
3.866756976485157e-15
3.918651458832927e-15
3.896163706340229e-15
4.098797720156002e-15
4.228089312479795e-15
4.27403753683282e-15
4.469089723394346e-15
4.379363925808228e-15
4.163304106878173e-15
4.288203859025114e-15
4.364885938502787e-15
4.192038754834687e-15
4.208999684625242e-15
4.162681406812389e-15
4.031167206814062e-15
4.191875262692205e-15
4.410080208839926e-15
4.275126996538031e-15
4.30100085435505e-15
4.32725407942657e-15
4.250096531680031e-15
4.258009745755662e-15
4.34684355155594e-15
4.202981677499849e-15
4.310108662190269e-15
4.484621852138485e-15
4.665686323748683e-15
4.732455316118968e-15
4.584768204042406e-15
4.573408078309692e-15
4.521225718617757e-15
4.513908524433979e-15
4.633807545930354e-15
4.666145061965904e-15
4.798135104015289e-15
4.889120429869774e-15
4.951812294103379e-15
4.737745871533362e-15
4.87164295915039e-15
4.831265721271126e-15
4.671577995721114e-15
4.703272224844019e-15
4.760488123940276e-15
4.692369244858548e-15
4.655388846948701e-15
4.483047213575086e-15
4.549102128266482e-15
4.551448583391743e-15
4.627039318435995e-15
4.391648028331976e-15
4.547035371382954e-15
4.284177122173586e-15
4.464874816871434e-15
4.106778432145926e-15
4.149347761625434e-15
3.757283607427546e-15
4.283023711158221e-15
3.283248598792029e-15
3.5892313685086e-15
1.734140395563198e-15
9.01759692560049e-16
6.467921884693272e-15
5.978085743523977e-15
4.316103047755411e-15
4.237896172688479e-15
3.943077100535274e-15
3.858066318876121e-15
3.94147521394286e-15
3.947884497168414e-15
4.082996071390517e-15
4.199292897834203e-15
4.276085020289953e-15
4.450288430172243e-15
4.370684012742294e-15
4.176936496666003e-15
4.258956042425317e-15
4.357181718518556e-15
4.212836994998466e-15
4.18778135316594e-15
4.153992031655903e-15
4.059112622244244e-15
4.178298169429129e-15
4.421131244411452e-15
4.290811103558959e-15
4.320775381380209e-15
4.330604945954869e-15
4.280270440800603e-15
4.248266884235767e-15
4.341706897856711e-15
4.218132393788215e-15
4.330511542886976e-15
4.527456151126027e-15
4.654777695569608e-15
4.704068075187556e-15
4.578410012679841e-15
4.569876954330073e-15
4.550783300346168e-15
4.49841135060423e-15
4.633117429923108e-15
4.64664687358907e-15
4.813562660062134e-15
4.897495550039174e-15
4.961283393992731e-15
4.779421414379473e-15
4.849758006711418e-15
4.815893089205781e-15
4.664534272574998e-15
4.700561610887017e-15
4.811124994837782e-15
4.692520710200002e-15
4.624041906185068e-15
4.466464008909579e-15
4.524048860109638e-15
4.545413045832654e-15
4.620603962713503e-15
4.4030306451514e-15
4.560345999364541e-15
4.30004752701228e-15
4.455553771831288e-15
4.084834837814909e-15
4.170542750218713e-15
3.780500834490491e-15
4.254356069042037e-15
3.385022554294386e-15
3.604214514071789e-15
2.00734317021964e-15
1.423040012649958e-15
6.289761288274273e-15
5.811328062550962e-15
4.182260237087556e-15
4.088907835689192e-15
3.839427155208049e-15
3.822726131389944e-15
3.950398694414037e-15
4.001343821954449e-15
4.085900066941606e-15
4.179226731070374e-15
4.267275332918223e-15
4.429088611745082e-15
4.350619475215901e-15
4.179634495050144e-15
4.245869993999266e-15
4.34794858870477e-15
4.23296972262668e-15
4.167219428282946e-15
4.148211312133397e-15
4.078725938692621e-15
4.184236162916756e-15
4.425633620195867e-15
4.322310844695028e-15
4.327318075680534e-15
4.331662094400341e-15
4.307394962242782e-15
4.264858900305434e-15
4.355349283546881e-15
4.27284368932913e-15
4.342088266424041e-15
4.525030371986883e-15
4.657927649764817e-15
4.708450127647339e-15
4.557605285029258e-15
4.543039503950521e-15
4.54633019429763e-15
4.522342618474149e-15
4.641375144478109e-15
4.644282634602477e-15
4.820085365022833e-15
4.910658475494503e-15
4.93338012340876e-15
4.837195935089512e-15
4.846380060737189e-15
4.778165495848613e-15
4.67385931582753e-15
4.67069269396305e-15
4.824567702199361e-15
4.730328608926245e-15
4.624213830255993e-15
4.44401607324846e-15
4.49989983398342e-15
4.504051920134569e-15
4.611328734621364e-15
4.469766726503753e-15
4.561020568803568e-15
4.251513132558419e-15
4.426668534673388e-15
4.111984777292846e-15
4.182643148872427e-15
3.792119448718129e-15
4.21827755586989e-15
3.521395908046608e-15
3.638268383389029e-15
2.380665535227004e-15
2.200451970007682e-15
6.037703922344302e-15
5.468233256786482e-15
4.053023193171745e-15
3.947374558241814e-15
3.695462222835924e-15
3.827947080587129e-15
3.949654586622731e-15
4.003305619072281e-15
4.077850295158741e-15
4.176629002386032e-15
4.269335052480116e-15
4.392054626931386e-15
4.32765483330425e-15
4.176909854993826e-15
4.238117936635202e-15
4.348670608845547e-15
4.25322799261301e-15
4.165913500227836e-15
4.140939390480085e-15
4.108692956743381e-15
4.218267776678721e-15
4.425504794680024e-15
4.325295659744584e-15
4.350427223924991e-15
4.353229490481688e-15
4.31682015786985e-15
4.266448700477705e-15
4.373617390782478e-15
4.340215878911036e-15
4.380861274882634e-15
4.47964979187422e-15
4.678224456556909e-15
4.727939603191078e-15
4.502105938951116e-15
4.523220461202028e-15
4.545519465684059e-15
4.562525620290424e-15
4.617793853385866e-15
4.656285913769505e-15
4.851391130063169e-15
4.916158206274088e-15
4.907127934984509e-15
4.885963323725944e-15
4.848627475529153e-15
4.719425505886076e-15
4.644534687867689e-15
4.666428509142735e-15
4.835915855334162e-15
4.737702673243548e-15
4.635294117282795e-15
4.44301880276477e-15
4.477827002623795e-15
4.445704631352183e-15
4.595522591127741e-15
4.519941361172254e-15
4.534463218553998e-15
4.239020461113312e-15
4.409211361650035e-15
4.113486605111851e-15
4.16389799225451e-15
3.82335189303928e-15
4.178757681238328e-15
3.687644380467874e-15
3.697420587951049e-15
2.858443832930511e-15
3.115456790617638e-15
5.75921763989077e-15
5.073152162817799e-15
3.91607822859284e-15
3.783812420320195e-15
3.586055842632284e-15
3.811936483735258e-15
3.920957683573883e-15
3.937053535133413e-15
4.073509410644649e-15
4.188603388728766e-15
4.252233292864988e-15
4.34853884850367e-15
4.336299931754625e-15
4.184986096586108e-15
4.225300648143865e-15
4.361766096539027e-15
4.262848222625023e-15
4.143205473120335e-15
4.135234876956765e-15
4.1540672565511e-15
4.245227000577408e-15
4.395292067222923e-15
4.363157846671639e-15
4.364903103767338e-15
4.361150968729678e-15
4.377886203624938e-15
4.257714928650304e-15
4.367374874221209e-15
4.413908895051395e-15
4.446732956236376e-15
4.478693888618197e-15
4.66166127328655e-15
4.687456654751713e-15
4.457091757905465e-15
4.509870539474955e-15
4.520399684969103e-15
4.601611890683631e-15
4.617184169358157e-15
4.680283240309975e-15
4.894707515413087e-15
4.907520311068644e-15
4.852727727684823e-15
4.899082020572956e-15
4.844176126479967e-15
4.693329066752303e-15
4.612375401474601e-15
4.673656957046919e-15
4.862569729075439e-15
4.704319802824259e-15
4.611895790704876e-15
4.440219476940128e-15
4.47489571505729e-15
4.443690502214162e-15
4.567956828045038e-15
4.521458566778996e-15
4.496770077933873e-15
4.252750567138564e-15
4.385383325146232e-15
4.120709519590165e-15
4.145223071015798e-15
3.840058774208039e-15
4.16765231808996e-15
3.842647655822264e-15
3.736931681037185e-15
3.412476899909776e-15
4.16870801076253e-15
5.502435167564879e-15
4.653329837630129e-15
3.700910887978468e-15
3.623220153774571e-15
3.509613497330919e-15
3.733609832447257e-15
3.853928970722172e-15
3.879857254729976e-15
4.032014851122468e-15
4.18477984021868e-15
4.275121783814737e-15
4.334558527884573e-15
4.340130836751018e-15
4.203892366796909e-15
4.203260948202979e-15
4.36013126408531e-15
4.290160633549969e-15
4.149876328505086e-15
4.116107717567507e-15
4.196970817869097e-15
4.290379811627191e-15
4.414001301052694e-15
4.35883037665552e-15
4.393960328162632e-15
4.38102094775846e-15
4.430466123790643e-15
4.264194698135621e-15
4.355469238397219e-15
4.459473376197171e-15
4.472379928422851e-15
4.528882039226832e-15
4.646010577518263e-15
4.645833731791849e-15
4.482721147842861e-15
4.462431108149642e-15
4.468468634980428e-15
4.624513280747357e-15
4.62644205681319e-15
4.730338175878621e-15
4.934618396885002e-15
4.902009403366645e-15
4.819571658027266e-15
4.833785482833602e-15
4.803573921165709e-15
4.74519963569051e-15
4.63207794039444e-15
4.626990865069864e-15
4.855417313781354e-15
4.661088550628683e-15
4.574630994823661e-15
4.45714545257307e-15
4.456482748328886e-15
4.441535921010572e-15
4.554866092381088e-15
4.521916972561658e-15
4.430777545409925e-15
4.251050515864742e-15
4.321744276008572e-15
4.163687197685689e-15
4.156740457706723e-15
3.869794461748045e-15
4.129003996801216e-15
4.00262951748158e-15
3.750342838732399e-15
4.014923402888004e-15
5.303776772395004e-15
5.262136012333946e-15
4.168753123328947e-15
3.509459607179258e-15
3.451258296590265e-15
3.396614497331832e-15
3.61234365849067e-15
3.795335049060871e-15
3.86354309811589e-15
3.990767037274934e-15
4.176042630801004e-15
4.330124099424412e-15
4.319973995320374e-15
4.302634115344355e-15
4.236307076838944e-15
4.203164161415628e-15
4.351231563942099e-15
4.368737131163993e-15
4.153824463303609e-15
4.107008580517868e-15
4.241037261523744e-15
4.302671026371725e-15
4.397994984198701e-15
4.409687209309427e-15
4.444161921270029e-15
4.409707507056646e-15
4.533119267553853e-15
4.231948631857611e-15
4.320077617069635e-15
4.492545591759953e-15
4.471282282286115e-15
4.541481913557905e-15
4.644448725968032e-15
4.626710295170524e-15
4.497087278572004e-15
4.427983058646532e-15
4.44701689763111e-15
4.624673356637951e-15
4.646239506572524e-15
4.782178294236969e-15
4.970954896148641e-15
4.884569087368768e-15
4.780715512738239e-15
4.785357941960381e-15
4.759655223330861e-15
4.779512441941625e-15
4.66813810324795e-15
4.584385027161778e-15
4.796330355530011e-15
4.636641167808539e-15
4.516462813468066e-15
4.507075889105215e-15
4.433771941704773e-15
4.401902691719145e-15
4.560513133727105e-15
4.472695500335108e-15
4.3605148169845e-15
4.292345389110015e-15
4.263942713127369e-15
4.183466926963326e-15
4.121154723877708e-15
3.930894051585316e-15
4.099252599790531e-15
4.139249506201803e-15
3.796464254225347e-15
4.613944447819146e-15
6.45169047407576e-15
4.998910107751633e-15
3.651026477764728e-15
3.290140815695768e-15
3.271025379050118e-15
3.267565506962315e-15
3.517644214834518e-15
3.764832035194952e-15
3.876852099572187e-15
3.966363808188112e-15
4.189271609759666e-15
4.351515570466938e-15
4.317122781900526e-15
4.266840709713683e-15
4.203500164379688e-15
4.214392301372764e-15
4.391429433419339e-15
4.424754948037533e-15
4.204047075887589e-15
4.140665283038754e-15
4.263992706200374e-15
4.314719157928172e-15
4.381160926609119e-15
4.479354677711532e-15
4.504431475058039e-15
4.425741193810219e-15
4.579945443745917e-15
4.220545830998807e-15
4.279444455504441e-15
4.474233359639464e-15
4.44067346155737e-15
4.567618613969104e-15
4.638713587267383e-15
4.627911777689831e-15
4.502694586152246e-15
4.410947279032325e-15
4.450729416754079e-15
4.589261934185571e-15
4.633338220402256e-15
4.836523667062387e-15
4.975974700877404e-15
4.880639118646036e-15
4.760734436858623e-15
4.738058894059889e-15
4.749521582506727e-15
4.757762607261341e-15
4.651723479204648e-15
4.569586999459129e-15
4.803777866678776e-15
4.63103953058106e-15
4.452796566764894e-15
4.462900354761886e-15
4.384198007579422e-15
4.376852850182137e-15
4.559666918036578e-15
4.44544300962204e-15
4.315380085572459e-15
4.280203040094696e-15
4.194315180488231e-15
4.227422381368687e-15
4.127796517391579e-15
3.942068383332108e-15
4.059420409922866e-15
4.261789295542785e-15
3.908193938135748e-15
5.258705005419669e-15
7.601954430040011e-15
4.749152883758213e-15
3.107203164540463e-15
3.114544194506615e-15
3.075978978377314e-15
3.179295852659666e-15
3.446160854003938e-15
3.733482527905459e-15
3.883333144627431e-15
3.988364677867788e-15
4.195671741932852e-15
4.374238626182249e-15
4.325226333981308e-15
4.236932463804077e-15
4.153156788877841e-15
4.22474197773436e-15
4.43209480367441e-15
4.466441818276861e-15
4.222815079516366e-15
4.18421771274781e-15
4.327046017116713e-15
4.356773608286193e-15
4.366642911874568e-15
4.51813357859138e-15
4.582042302168899e-15
4.428469786419349e-15
4.547158934013658e-15
4.25324827218993e-15
4.234880064459271e-15
4.39076250665758e-15
4.461205363579697e-15
4.614013514682994e-15
4.622539670278137e-15
4.587348139241985e-15
4.481501474302218e-15
4.43540217434822e-15
4.479362999541285e-15
4.546975562154353e-15
4.611811727046375e-15
4.794631250111076e-15
4.982375800307663e-15
4.886642354110617e-15
4.753852928940831e-15
4.750975703956767e-15
4.761080395822022e-15
4.762744528694668e-15
4.561137509584379e-15
4.542612868413938e-15
4.787883745018058e-15
4.642355165173995e-15
4.454349275400175e-15
4.438221558202017e-15
4.289722523826444e-15
4.31368313088543e-15
4.546554351902352e-15
4.44016626608503e-15
4.267740772260787e-15
4.261714427740259e-15
4.117777149680284e-15
4.284464158208278e-15
4.111757880008716e-15
3.989069366781428e-15
4.009346357241999e-15
4.392726178603487e-15
3.989168557274043e-15
5.902699238763149e-15
8.71057175887166e-15
4.53530259176529e-15
2.548251776186425e-15
2.924073652617285e-15
2.965096330198972e-15
3.121293366009887e-15
3.381101373295642e-15
3.699824075549313e-15
3.957118845318918e-15
4.034366334409673e-15
4.21321141128433e-15
4.359184190481032e-15
4.305939517440685e-15
4.278300403883307e-15
4.203604641167473e-15
4.231822493544678e-15
4.428575576452752e-15
4.487888275199867e-15
4.256984631184601e-15
4.236301157866137e-15
4.404484549362266e-15
4.359128362089733e-15
4.315390703601234e-15
4.514419840187731e-15
4.648826861049415e-15
4.43003283732786e-15
4.504351117777435e-15
4.305334412028791e-15
4.236162414292783e-15
4.321043310391854e-15
4.478522071318382e-15
4.605020832132314e-15
4.574707305822108e-15
4.555783093617675e-15
4.440859261501735e-15
4.457915145525623e-15
4.511791647632403e-15
4.5545693755196e-15
4.588617627266193e-15
4.70126184286538e-15
4.946894654200346e-15
4.873632102878106e-15
4.755062972655575e-15
4.77847575212803e-15
4.750260014278615e-15
4.737157516412383e-15
4.542387639358361e-15
4.469745143031843e-15
4.739557238203995e-15
4.642813305042172e-15
4.471694981133637e-15
4.436943172391934e-15
4.294697125704884e-15
4.259767304125136e-15
4.463496758243372e-15
4.451360690126961e-15
4.171095629322814e-15
4.257474249188814e-15
4.07010734087715e-15
4.287951245319929e-15
4.093976219783716e-15
4.031399551884569e-15
3.993010256240443e-15
4.524812483516653e-15
4.057599213637837e-15
6.520458015723847e-15
9.799502919593062e-15
4.313065123854702e-15
2.029347491429088e-15
2.809894727755559e-15
2.91439714129617e-15
3.075185480621172e-15
3.366044533767444e-15
3.695175912982489e-15
4.003410681663691e-15
4.078632555291013e-15
4.287478994005217e-15
4.351304589686793e-15
4.320345336500499e-15
4.31410983138185e-15
4.256819187375291e-15
4.256614785905062e-15
4.420375564989122e-15
4.46985715760689e-15
4.26319334463455e-15
4.320628374041608e-15
4.465966421288552e-15
4.326458425519869e-15
4.25370851263721e-15
4.495076483840679e-15
4.642648106318655e-15
4.475574396949392e-15
4.478800236170481e-15
4.294321070344452e-15
4.259606553232781e-15
4.321792862339512e-15
4.469348969913877e-15
4.549501468473352e-15
4.530650984202498e-15
4.58293623660221e-15
4.379473431490898e-15
4.443395059278829e-15
4.549368847639161e-15
4.576344719740313e-15
4.594222595526897e-15
4.613368211263628e-15
4.884645721821332e-15
4.830870912759941e-15
4.729333867176478e-15
4.754367309463667e-15
4.753186546703312e-15
4.693335345848697e-15
4.494022303190758e-15
4.396613102418722e-15
4.691950476149789e-15
4.63319844435281e-15
4.500364214693022e-15
4.426186357854559e-15
4.350050567266664e-15
4.259762846357383e-15
4.407654004817435e-15
4.436876410847452e-15
4.070300076871126e-15
4.243600812636305e-15
4.022378182565183e-15
4.288613745895413e-15
4.057200048044575e-15
4.071545569373833e-15
3.9542148940503e-15
4.632113698230442e-15
4.139153790501986e-15
7.110600330827461e-15
1.085321279385829e-14
4.117339857660406e-15
1.527104875156922e-15
2.805383039697462e-15
2.996923386336109e-15
3.120396615062254e-15
3.386965139245563e-15
3.684482073322441e-15
4.052732364564914e-15
4.110419779319758e-15
4.306677381102443e-15
4.411649741965953e-15
4.323201594257917e-15
4.291695816198999e-15
4.311901535513707e-15
4.241477120504668e-15
4.405171278626838e-15
4.460499528308572e-15
4.298690876795732e-15
4.377885873152987e-15
4.485946073060701e-15
4.303215480481651e-15
4.222477475845806e-15
4.419363599421881e-15
4.59745500605138e-15
4.490695676782398e-15
4.445480813381476e-15
4.265911213711107e-15
4.269389461846496e-15
4.309111698662092e-15
4.496106955435223e-15
4.491511506526455e-15
4.466726373368385e-15
4.568306692048524e-15
4.331758395583564e-15
4.415845183779226e-15
4.557868439435088e-15
4.586315876191503e-15
4.64519094416912e-15
4.591123665614875e-15
4.762086659744097e-15
4.77599945627104e-15
4.706247234773251e-15
4.738243100624782e-15
4.771796537911467e-15
4.633051143141163e-15
4.476594485487815e-15
4.334432475449783e-15
4.611284724561319e-15
4.577352301208281e-15
4.500314723383536e-15
4.45768909280527e-15
4.339067164760218e-15
4.257116295621533e-15
4.376627549654688e-15
4.447979382890049e-15
4.073192504151045e-15
4.194301248547598e-15
3.950941282989833e-15
4.299524266271997e-15
3.969971273982756e-15
4.059117931666987e-15
3.941792013826789e-15
4.759504550290217e-15
4.177227572186899e-15
7.668143047594894e-15
1.180129701287485e-14
3.987535243905396e-15
1.231559478014403e-15
2.942581390227271e-15
3.139654069388155e-15
3.139724883249257e-15
3.418612545102161e-15
3.714433714751446e-15
4.040423077356925e-15
4.148769638174496e-15
4.319400175982273e-15
4.398247379107549e-15
4.290497951453706e-15
4.26898626878081e-15
4.268543798897396e-15
4.266825304249101e-15
4.356009845804324e-15
4.481492813587431e-15
4.304989518964754e-15
4.38750198368484e-15
4.462785510667941e-15
4.314455383825644e-15
4.201926493492633e-15
4.342399110432797e-15
4.549439017733219e-15
4.471323362756844e-15
4.40340501459433e-15
4.258345573565171e-15
4.255573766362832e-15
4.297672045194534e-15
4.495717169590864e-15
4.464623636014327e-15
4.431205673544248e-15
4.548203173745754e-15
4.272604554727141e-15
4.358916763961738e-15
4.583999533117454e-15
4.586113642241881e-15
4.661807939271928e-15
4.612777648388601e-15
4.664381935782228e-15
4.667481966474296e-15
4.727017915513846e-15
4.751249344008739e-15
4.726667128564977e-15
4.590352587467969e-15
4.480313401261223e-15
4.296309078523846e-15
4.504350700203857e-15
4.514379086300192e-15
4.502584794278346e-15
4.515774931089607e-15
4.319543189245612e-15
4.252583964998778e-15
4.283511321955366e-15
4.429323958672936e-15
4.070184269312592e-15
4.162495409360711e-15
3.9442211048374e-15
4.288647010645107e-15
3.907846988562926e-15
4.05454459049602e-15
3.881582801265502e-15
4.86643474386588e-15
4.233026465983813e-15
8.163719307586434e-15
1.267830131810699e-14
4.051949292435065e-15
1.174632176772588e-15
3.129049715164035e-15
3.25626756697073e-15
3.053635457286565e-15
3.40454162480587e-15
3.766591947647703e-15
4.072443517224884e-15
4.187037654343401e-15
4.205881699713447e-15
4.354594597611288e-15
4.23030531666583e-15
4.224608553502086e-15
4.255767538849789e-15
4.267582140775143e-15
4.356972182616053e-15
4.410067641622034e-15
4.321188812622366e-15
4.383318722378168e-15
4.407082062397872e-15
4.329554495400891e-15
4.150947553923049e-15
4.290963787667558e-15
4.522850765201793e-15
4.423301205430129e-15
4.279347522988453e-15
4.241777260459165e-15
4.275176528318923e-15
4.267746774947715e-15
4.467255134162703e-15
4.442504372349636e-15
4.439171179360212e-15
4.560816578018279e-15
4.23862334957291e-15
4.299521030870293e-15
4.559981263856543e-15
4.592685980443935e-15
4.676290771984264e-15
4.636633120663012e-15
4.586574929807276e-15
4.614260238528154e-15
4.751657216253224e-15
4.705598272796744e-15
4.643813226702323e-15
4.579269422132654e-15
4.498495047802548e-15
4.289656527466487e-15
4.415809074103129e-15
4.492781777948074e-15
4.517847352519811e-15
4.52340940787129e-15
4.326820459480837e-15
4.222589816698842e-15
4.164452459094876e-15
4.379134268241472e-15
4.107595979812396e-15
4.176121836685836e-15
3.900668453994362e-15
4.327838206788828e-15
3.841905090077414e-15
4.046956069000264e-15
3.850237647418407e-15
4.959175870379333e-15
4.233464122373555e-15
8.614156143307401e-15
1.347827252693955e-14
4.345026746479699e-15
1.190871682125432e-15
3.191568104375882e-15
3.243408973280188e-15
2.989336875974929e-15
3.365009598285522e-15
3.749752809970109e-15
4.077871721407878e-15
4.198790076411686e-15
4.137103033472399e-15