/*--------------------------------*- C++ -*----------------------------------*\
| =========                 |                                                 |
| \\      /  F ield         | OpenFOAM: The Open Source CFD Toolbox           |
|  \\    /   O peration     | Version:  v1812                                 |
|   \\  /    A nd           | Web:      www.OpenFOAM.com                      |
|    \\/     M anipulation  |                                                 |
\*---------------------------------------------------------------------------*/
FoamFile
{
    version     2.0;
    format      ascii;
    class       surfaceScalarField;
    location    "10000";
    object      phi;
}
// * * * * * * * * * * * * * * * * * * * * * * * * * * * * * * * * * * * * * //

dimensions      [0 3 -1 0 0 0 0];
oriented        oriented;


internalField   nonuniform List<scalar> 
5567
(
0.0006215809349052735
-2.323298085095425e-17
0.0006215809349052748
-1.607753141750843e-18
0.0006215809349052759
-1.49485191543388e-18
0.000621580934905276
-3.100587391775203e-19
0.0006215809349052761
-3.636880052522259e-19
0.0006215809349052752
8.25628776171521e-19
0.0006215809349052743
5.671606781455605e-19
0.000621580934905274
2.30452818039452e-19
0.000621580934905273
7.993516567480312e-19
0.0006215809349052731
-1.187008923956063e-19
0.0006215809349052736
-2.871695988707666e-19
0.0006215809349052733
5.850074065395409e-19
0.0006215809349052726
8.211576025743799e-19
0.0006215809349052723
3.758873242821907e-19
0.0006215809349052716
6.893622098595864e-19
0.0006215809349052705
1.130848553226336e-18
0.0006215809349052704
2.702586033071234e-19
0.0006215809349052701
3.787082934722954e-19
0.0006215809349052691
9.145706765279884e-19
0.0006215809349052685
6.909970144284602e-19
0.0006215809349052679
5.353692270188445e-19
0.0006215809349052677
2.896431899288552e-19
0.0006215809349052677
-3.452439562295143e-20
0.0006215809349052672
5.731908373536294e-19
0.0006215809349052668
4.221792358464893e-19
0.0006215809349052666
4.696372219861305e-20
0.0006215809349052661
3.632904375814778e-19
0.0006215809349052657
5.109479142103104e-19
0.0006215809349052657
7.210492200972907e-21
0.0006215809349052658
-1.745909523302516e-19
0.0006215809349052656
2.509940435512386e-19
0.0006215809349052654
2.083341504263455e-19
0.0006215809349052652
6.868154205145823e-20
0.0006215809349052654
-7.769572165680693e-20
0.0006215809349052651
2.998801090029895e-19
0.000621580934905265
1.748124142511113e-19
0.0006215809349052645
5.666343966497194e-19
0.0006215809349052648
-3.674968474133827e-19
0.0006215809349052643
5.149359388533186e-19
0.000621580934905264
2.436952623695533e-19
0.0006215809349052633
7.78593906289215e-19
0.0006215809349052631
3.246806334673689e-19
0.0006215809349052632
-1.813609305851669e-19
0.000621580934905263
1.0259025972058e-19
0.0006215809349052625
4.638912934426948e-19
0.0006215809349052627
-2.97118590937823e-19
0.0006215809349052624
1.403548334373624e-19
0.0006215809349052622
3.223940082022991e-19
0.0006215809349052615
6.176826773696284e-19
0.0006215809349052619
-4.697608727431743e-19
0.0006215809349052617
3.581754061634742e-19
0.000621580934905262
-3.596648832309755e-19
0.0006215809349052619
7.537054868127529e-20
0.0006215809349052617
1.679382413115283e-19
0.0006215809349052614
1.659918586201723e-19
0.0006215809349052613
7.249592747316917e-20
0.0006215809349052608
6.126700928043427e-19
0.0006215809349052608
-5.780946352859066e-20
0.0006215809349052609
-1.572584844284734e-19
0.0006215809349052612
-1.968355663713312e-19
0.0006215809349052599
1.131964739294404e-18
0.0006215809349052605
-3.915076152335418e-19
0.0006215809349052609
-3.145117627131232e-19
0.0006215809349052615
-5.595974537515168e-19
0.000621580934905264
-2.450009431848876e-18
-3.594091192435658e-18
0.0007189362210839263
-3.046733339208671e-17
0.0007189362210839272
-2.918392538359942e-18
0.000718936221083929
-3.731582260615782e-18
0.0007189362210839297
-1.094986386694734e-18
0.0007189362210839294
-1.736592623907094e-19
0.0007189362210839286
1.541569120569326e-18
0.0007189362210839278
1.114632164287486e-18
0.0007189362210839274
4.768966469875308e-19
0.0007189362210839269
1.107232703483246e-18
0.0007189362210839272
-4.369352801559305e-19
0.0007189362210839274
-2.737973100527374e-19
0.0007189362210839269
1.370370461465093e-18
0.000718936221083926
1.710024270881392e-18
0.0007189362210839256
8.566423496509764e-19
0.000718936221083925
1.205778518691028e-18
0.0007189362210839243
1.911721436510999e-18
0.0007189362210839239
8.979598257635215e-19
0.0007189362210839233
9.491201486455778e-19
0.0007189362210839223
1.918170373474281e-18
0.0007189362210839219
1.174775604685735e-18
0.0007189362210839221
2.456556450098749e-19
0.0007189362210839213
1.129512345060599e-18
0.000718936221083921
2.208363078525177e-19
0.0007189362210839203
1.327726902545258e-18
0.0007189362210839197
1.026146729305081e-18
0.0007189362210839201
-3.585013567480645e-19
0.0007189362210839194
8.504149360994916e-19
0.0007189362210839192
7.035959620891989e-19
0.000718936221083919
2.877867701307108e-19
0.0007189362210839192
-5.474155888399138e-19
0.0007189362210839191
4.74632103027698e-19
0.000718936221083919
2.818031392802786e-19
0.0007189362210839188
1.146080220771133e-19
0.0007189362210839194
-5.801812784634437e-19
0.0007189362210839186
9.803589741690349e-19
0.0007189362210839183
6.550869238170985e-19
0.0007189362210839187
1.146840404214861e-19
0.0007189362210839185
-1.332544585802613e-19
0.0007189362210839178
1.14249179939174e-18
0.0007189362210839174
6.780321522391668e-19
0.0007189362210839169
1.292655272937076e-18
0.0007189362210839167
6.39091028226332e-19
0.0007189362210839165
5.728586571490342e-20
0.0007189362210839164
4.513944685541286e-21
0.0007189362210839162
6.317397867047846e-19
0.0007189362210839158
3.473184435238086e-20
0.0007189362210839157
4.030222955276325e-20
0.0007189362210839153
9.365265164357596e-19
0.0007189362210839146
1.183691154444848e-18
0.0007189362210839153
-1.170250368080176e-18
0.0007189362210839144
1.225802402005584e-18
0.0007189362210839148
-7.638733695605979e-19
0.0007189362210839153
-4.150719938372233e-19
0.0007189362210839147
7.707175744000666e-19
0.0007189362210839143
6.338665960074255e-19
0.0007189362210839146
-4.232936033778224e-19
0.0007189362210839142
1.13027853258388e-18
0.0007189362210839144
-3.205521588990413e-19
0.0007189362210839141
1.507858719491662e-19
0.000718936221083914
-9.425310056177663e-20
0.000718936221083913
2.001060074042025e-18
0.0007189362210839141
-1.405046098654166e-18
0.0007189362210839139
1.326374757288312e-19
0.0007189362210839152
-1.80984954634041e-18
0.0007189362210839174
-4.629094088447315e-18
-4.548887007734425e-18
0.0008048722313361805
-3.707074603500066e-17
0.0008048722313361819
-4.443091526243502e-18
0.0008048722313361837
-5.785588589719096e-18
0.0008048722313361834
-9.158084696333732e-19
0.0008048722313361829
2.079898615571454e-19
0.0008048722313361821
2.298048413974868e-18
0.000804872231336182
1.204674678407253e-18
0.0008048722313361819
5.682582752502207e-19
0.0008048722313361812
1.618371919043456e-18
0.0008048722313361818
-1.007088108763294e-18
0.000804872231336181
6.42284103664052e-19
0.0008048722313361808
1.777925976767177e-18
0.0008048722313361806
2.016728300074583e-18
0.0008048722313361799
1.638541972499444e-18
0.0008048722313361794
1.663081103862647e-18
0.0008048722313361789
2.410815150575132e-18
0.0008048722313361786
1.404451312007316e-18
0.0008048722313361787
7.999039271653694e-19
0.0008048722313361782
2.453910497706843e-18
0.0008048722313361768
2.643228648311093e-18
0.0008048722313361758
1.07285279317007e-18
0.0008048722313361757
1.391799438021557e-18
0.0008048722313361746
1.225367319650333e-18
0.0008048722313361746
1.444281001139633e-18
0.0008048722313361744
1.222738600563596e-18
0.0008048722313361735
4.626917933007029e-19
0.0008048722313361732
1.120715649961158e-18
0.0008048722313361736
3.118075017496274e-19
0.0008048722313361735
4.015018509306582e-19
0.0008048722313361734
-5.259514170674925e-19
0.0008048722313361734
5.722231711643071e-19
0.0008048722313361734
3.538054591366049e-19
0.0008048722313361739
-4.996445371294914e-19
0.0008048722313361729
5.749505922571546e-19
0.0008048722313361728
9.737754117661776e-19
0.0008048722313361726
9.21738920437584e-19
0.0008048722313361721
5.704181955796595e-19
0.0008048722313361728
-7.405358825269878e-19
0.0008048722313361719
1.844328385226191e-18
0.0008048722313361711
1.493630545705457e-18
0.000804872231336172
3.787181886031809e-19
0.0008048722313361711
1.490825327456892e-18
0.0008048722313361707
5.934691099594247e-19
0.0008048722313361707
-1.696022532680147e-19
0.00080487223133617
1.387599883592757e-18
0.0008048722313361702
-1.42604107617156e-19
0.0008048722313361699
4.817572351753358e-20
0.0008048722313361708
1.478303191967514e-19
0.0008048722313361692
2.868990465284365e-18
0.0008048722313361696
-1.72814533559992e-18
0.0008048722313361693
1.641358249861147e-18
0.0008048722313361696
-1.078476760061402e-18
0.0008048722313361687
3.28371660184877e-19
0.0008048722313361696
-1.102351997226693e-19
0.0008048722313361687
1.543512337275515e-18
0.0008048722313361702
-1.988046259744252e-18
0.0008048722313361692
2.280642931099067e-18
0.0008048722313361694
-5.044968888853791e-19
0.0008048722313361689
7.686891187611677e-19
0.0008048722313361685
1.808645486579694e-19
0.0008048722313361681
2.441997461984598e-18
0.0008048722313361694
-2.668015650305676e-18
0.0008048722313361686
9.523114683320322e-19
0.000804872231336171
-4.219025312611939e-18
0.0008048722313361729
-6.481960740210581e-18
-5.702189122485043e-18
0.0009092771614118581
-4.387018144451308e-17
0.0009092771614118569
-3.412974589821735e-18
0.000909277161411859
-8.331726619923768e-18
0.0009092771614118613
-3.305003246464313e-18
0.0009092771614118609
4.886857285039752e-19
0.0009092771614118599
3.13281618678321e-18
0.0009092771614118591
1.891462677563439e-18
0.0009092771614118591
5.119965327910702e-19
0.0009092771614118589
1.56474469745189e-18
0.0009092771614118586
-7.528483755216776e-19
0.0009092771614118592
1.018656024785569e-19
0.0009092771614118588
2.422544018821459e-18
0.0009092771614118581
2.871861711256818e-18
0.0009092771614118572
2.595077967437912e-18
0.0009092771614118566
2.134230413621174e-18
0.0009092771614118564
2.681530811248668e-18
0.0009092771614118559
2.200767385590389e-18
0.0009092771614118544
2.300140969650222e-18
0.0009092771614118549
1.937067042921589e-18
0.0009092771614118549
2.575212312963834e-18
0.0009092771614118543
1.635474461336471e-18
0.0009092771614118533
2.53810536945196e-18
0.0009092771614118522
2.140401182169441e-18
0.0009092771614118529
9.373007764067136e-19
0.0009092771614118525
1.516354792279359e-18
0.0009092771614118529
9.875987555069073e-20
0.0009092771614118516
2.307681728435532e-18
0.0009092771614118511
7.24727810565922e-19
0.0009092771614118509
6.178749460923475e-19
0.0009092771614118506
-3.594826917437943e-19
0.0009092771614118506
6.845331887854817e-19
0.0009092771614118506
3.53882217166797e-19
0.0009092771614118493
7.716242466105757e-19
0.0009092771614118504
-3.739116603702201e-19
0.00090927716141185
1.185689516788671e-18
0.0009092771614118499
1.023223103442389e-18
0.0009092771614118498
7.74165148659621e-19
0.0009092771614118498
-6.984355397080371e-19
0.0009092771614118494
2.091128584844258e-18
0.0009092771614118495
1.417154203129472e-18
0.0009092771614118474
2.450407715561333e-18
0.0009092771614118484
5.073600634611773e-19
0.0009092771614118481
1.039477300809189e-18
0.0009092771614118481
-3.655526214667691e-19
0.0009092771614118476
1.975298681449578e-18
0.0009092771614118473
1.140088029249245e-19
0.0009092771614118467
5.181073607164898e-19
0.0009092771614118457
1.262075921655983e-18
0.0009092771614118467
1.863714973008928e-18
0.0009092771614118468
-1.928614290536877e-18
0.0009092771614118463
2.200311549080715e-18
0.0009092771614118462
-9.893928064632651e-19
0.0009092771614118461
3.749893629212122e-19
0.0009092771614118468
-7.580151896741911e-19
0.0009092771614118468
1.607915945478537e-18
0.0009092771614118448
-2.236749524621875e-19
0.0009092771614118459
1.307959872402571e-18
0.0009092771614118462
-9.032114092574463e-19
0.0009092771614118459
9.856530615683258e-19
0.0009092771614118463
-2.036397567247885e-19
0.0009092771614118458
2.774567771821275e-18
0.0009092771614118471
-3.819434481750942e-18
0.0009092771614118468
1.419101566148465e-18
0.0009092771614118465
-3.751484912149906e-18
0.0009092771614118497
-9.748928904062194e-18
-6.756153223027311e-18
0.001216046216653144
-5.192846168746945e-17
0.001216046216653145
-4.090397976198176e-18
0.001216046216653147
-1.063132806792697e-17
0.001216046216653149
-4.951204130083686e-18
0.001216046216653149
2.527458314755711e-19
0.001216046216653148
3.716178346735651e-18
0.001216046216653147
2.450950063869121e-18
0.001216046216653147
9.415438963864799e-19
0.001216046216653146
2.128667711451301e-18
0.001216046216653145
7.569261688645395e-19
0.001216046216653147
-2.400756350390716e-18
0.001216046216653146
3.515575345421303e-18
0.001216046216653146
3.457667634577761e-18
0.001216046216653145
3.386622758666289e-18
0.001216046216653144
3.104611868680632e-18
0.001216046216653143
3.425734344036213e-18
0.001216046216653143
2.569082606838643e-18
0.001216046216653142
3.236860747522622e-18
0.00121604621665314
3.622118890481465e-18
0.00121604621665314
3.502333275705939e-18
0.001216046216653139
2.422874728305006e-18
0.001216046216653139
2.531453378932546e-18
0.001216046216653138
2.806988722202501e-18
0.001216046216653137
2.758803619133005e-18
0.001216046216653136
1.600751362920021e-18
0.001216046216653136
4.146488833059714e-19
0.001216046216653135
2.652714871639362e-18
0.001216046216653137
-3.81349683044299e-19
0.001216046216653135
2.16911946089603e-18
0.001216046216653136
-1.179903092723502e-18
0.001216046216653135
1.980179298705689e-18
0.001216046216653137
-1.96223175781763e-18
0.001216046216653135
2.946144319077328e-18
0.001216046216653137
-2.195834279455321e-18
0.001216046216653134
3.859207506234147e-18
0.001216046216653136
-5.856017333022884e-19
0.001216046216653134
2.261203888659931e-18
0.001216046216653136
-2.211800185966263e-18
0.001216046216653135
2.909363931661125e-18
0.001216046216653135
1.738544622827815e-18
0.001216046216653134
3.090799519922448e-18
0.001216046216653134
7.670596315222076e-19
0.001216046216653133
1.662765824676882e-18
0.001216046216653133
-7.4891024034086e-19
0.001216046216653133
2.470191946758863e-18
0.001216046216653132
5.602909556233224e-19
0.001216046216653131
1.746455657215649e-18
0.001216046216653132
7.750431629852333e-19
0.001216046216653132
1.567977370825458e-18
0.001216046216653132
-1.982472366540922e-18
0.001216046216653131
2.889304369699639e-18
0.00121604621665313
-3.166163691822318e-19
0.00121604621665313
7.656654368064145e-19
0.001216046216653129
8.68361102930808e-20
0.001216046216653129
1.964387777155374e-18
0.00121604621665313
-1.005057219775524e-18
0.001216046216653129
1.626401839632244e-18
0.001216046216653131
-2.744898796619088e-18
0.001216046216653131
1.095451375149608e-18
0.001216046216653131
-1.524187922172961e-19
0.00121604621665313
3.181789429721116e-18
0.001216046216653131
-4.483541609373064e-18
0.001216046216653131
1.906673788298147e-18
0.001216046216653132
-4.962607475377015e-18
0.001216046216653135
-1.234179280807875e-17
-8.537775977269207e-18
0.002015095034357928
-6.243027488810845e-17
0.002015095034357933
-9.607051153016869e-18
0.002015095034357935
-1.238928184117226e-17
0.002015095034357939
-8.460131334573977e-18
0.00201509503435794
-1.406194549913695e-18
0.002015095034357937
6.260472011781141e-18
0.002015095034357936
4.199006964180121e-18
0.002015095034357937
6.048045544625491e-21
0.002015095034357935
3.784454285241534e-18
0.002015095034357938
-2.419774216733692e-18
0.002015095034357936
-5.584351099582254e-19
0.002015095034357934
5.559676875055907e-18
0.002015095034357935
2.544608790719696e-18
0.002015095034357935
3.434330469479481e-18
0.002015095034357932
5.798155346847878e-18
0.002015095034357931
4.689820962680427e-18
0.002015095034357932
2.280057946729093e-18
0.002015095034357929
5.964962878155714e-18
0.00201509503435793
2.562988616112537e-18
0.002015095034357929
4.908334870617422e-18
0.002015095034357926
5.185782096881892e-18
0.002015095034357927
1.511819228560193e-18
0.002015095034357924
5.76880182173208e-18
0.002015095034357923
4.038459131840008e-18
0.002015095034357922
2.74015398554208e-18
0.002015095034357921
4.946199363855588e-19
0.002015095034357923
7.556651628923379e-19
0.002015095034357921
1.907950017322659e-18
0.002015095034357921
2.378247717422092e-18
0.00201509503435792
-1.057047158125033e-18
0.002015095034357922
1.865250728416608e-19
0.002015095034357918
2.260040431539823e-18
0.002015095034357923
-2.144165509746817e-18
0.002015095034357921
-6.599798256550867e-20
0.00201509503435792
5.233028142025024e-18
0.002015095034357919
-2.245814831972375e-19
0.002015095034357922
-1.454982923564921e-19
0.002015095034357921
-1.105818262936179e-18
0.002015095034357918
5.825020294604873e-18
0.002015095034357917
3.176982404035822e-18
0.002015095034357918
2.490594191616762e-18
0.002015095034357917
1.903264653532556e-18
0.002015095034357916
2.701517842707455e-18
0.002015095034357917
-2.595672942512463e-18
0.002015095034357916
4.648941210986651e-18
0.002015095034357915
1.219691439344868e-18
0.002015095034357913
3.698204292226319e-18
0.002015095034357913
5.426446372211063e-19
0.002015095034357913
2.164598214732635e-18
0.002015095034357914
-3.396833512835203e-18
0.002015095034357914
2.599060898192708e-18
0.002015095034357911
2.96891839549602e-18
0.00201509503435791
1.37911850171822e-18
0.002015095034357912
-1.655834153702492e-18
0.002015095034357913
7.166270805418899e-19
0.002015095034357912
4.32956622268402e-19
0.002015095034357912
1.671530247923791e-18
0.002015095034357914
-4.645271323737685e-18
0.002015095034357911
3.626294952665604e-18
0.002015095034357911
-2.165724601182071e-19
0.002015095034357913
1.665275896736765e-18
0.002015095034357913
-5.419304468510127e-18
0.002015095034357913
3.481331414964904e-18
0.002015095034357913
-5.175629092706769e-18
0.002015095034357919
-1.81685637205706e-17
-7.698350970854145e-18
0.003323277622071486
-7.340393958365938e-17
0.003323277622071501
-2.471661592738373e-17
0.003323277622071505
-1.644136201146787e-17
0.003323277622071508
-1.179034441016397e-17
0.00332327762207151
-3.173546377231651e-18
0.003323277622071512
4.362894613472392e-18
0.00332327762207151
5.822777888593014e-18
0.003323277622071506
4.397253430547449e-18
0.003323277622071507
1.752623441600574e-18
0.003323277622071505
-1.864587488628522e-19
0.003323277622071504
6.780814134452871e-20
0.003323277622071506
4.116432736540685e-18
0.003323277622071504
4.21058296403212e-18
0.003323277622071502
5.5951972858198e-18
0.003323277622071502
5.927133790340965e-18
0.0033232776220715
6.856637892372808e-18
0.003323277622071498
4.51901060397899e-18
0.0033232776220715
4.197607575826189e-18
0.003323277622071496
6.460815040965085e-18
0.003323277622071494
6.36612932869223e-18
0.003323277622071496
3.878968204482395e-18
0.003323277622071492
6.123415915669703e-18
0.003323277622071492
4.717360379886696e-18
0.003323277622071491
5.442416221991564e-18
0.003323277622071491
3.918452066068851e-18
0.003323277622071491
5.158163815827487e-19
0.003323277622071488
2.212471096830316e-18
0.003323277622071489
1.578667970613806e-18
0.003323277622071487
4.449181744998996e-18
0.003323277622071476
9.286691744339907e-18
0.003323277622071486
-8.772004585752395e-18
0.003323277622071488
-4.653023967444934e-19
0.003323277622071486
-4.140817621343566e-19
0.003323277622071485
8.712038518529235e-19
0.003323277622071487
3.564883265927904e-18
0.003323277622071485
2.408132360275124e-18
0.003323277622071484
7.997398841600638e-19
0.003323277622071484
-9.528181632302011e-19
0.003323277622071487
2.47081720507725e-18
0.003323277622071488
3.285299621778614e-18
0.003323277622071484
5.579473188701592e-18
0.003323277622071486
2.940355509615499e-19
0.003323277622071485
3.660469181856154e-18
0.003323277622071482
-1.145883760821556e-19
0.003323277622071484
3.661393666697976e-18
0.003323277622071483
1.566197029868463e-18
0.00332327762207148
6.485919970852853e-18
0.00332327762207148
1.274345513793352e-18
0.003323277622071478
3.927714915279511e-18
0.003323277622071478
-3.394172334551189e-18
0.003323277622071476
4.427647463765831e-18
0.003323277622071477
2.227830826459781e-18
0.003323277622071475
3.89217886894177e-18
0.003323277622071475
-2.550057301999542e-18
0.003323277622071472
4.422714270977206e-18
0.003323277622071473
-1.657815259721628e-18
0.003323277622071475
7.561067173791673e-19
0.003323277622071472
-2.488047487623943e-18
0.003323277622071475
1.350459636324069e-18
0.003323277622071475
-9.01843185261677e-19
0.003323277622071474
2.708713004282227e-18
0.003323277622071473
-5.335089129740771e-18
0.003323277622071477
4.216105469319921e-19
0.003323277622071474
-2.563022588952458e-18
0.003323277622071476
-1.972158075045541e-17
-6.906347132502706e-18
0.004609628335707106
-8.746416080111073e-17
0.004609628335707121
-4.000118904314247e-17
0.004609628335707123
-1.870202953776626e-17
0.004609628335707125
-1.297470120164235e-17
0.004609628335707129
-7.978067269225194e-18
0.004609628335707131
2.054720616922961e-18
0.00460962833570713
7.011477143159056e-18
0.004609628335707129
5.495128538710392e-18
0.004609628335707125
3.99866322626732e-18
0.004609628335707125
6.070030128423542e-19
0.004609628335707125
-4.520765500986956e-19
0.004609628335707125
3.994430244053173e-18
0.004609628335707125
5.185765751506505e-18
0.004609628335707124
6.317717228840217e-18
0.004609628335707119
9.066035949752015e-18
0.004609628335707118
9.043568711763667e-18
0.004609628335707123
4.732738519755436e-20
0.004609628335707118
9.545279695759529e-18
0.004609628335707117
6.854960518620052e-18
0.004609628335707116
7.29258819018402e-18
0.004609628335707112
6.347942089962528e-18
0.004609628335707113
5.904128588204693e-18
0.004609628335707112
4.935382218262124e-18
0.004609628335707114
4.95346380309374e-18
0.004609628335707111
6.758500802983575e-18
0.004609628335707111
2.87244038282238e-19
0.004609628335707109
3.689012740161214e-18
0.00460962833570711
6.227610063726326e-19
0.004609628335707111
3.213044490685279e-18
0.00460962833570712
-1.045698612887467e-18
0.004609628335707112
4.544808845974663e-19
0.004609628335707111
-1.107785567088954e-19
0.00460962833570711
4.431893621533602e-19
0.004609628335707112
-7.858332109750167e-19
0.004609628335707111
4.591068592330461e-18
0.004609628335707112
1.256535215216425e-18
0.00460962833570711
3.01471593919223e-18
0.004609628335707112
-3.019744046698678e-18
0.004609628335707112
1.773238619019686e-18
0.004609628335707113
2.160634062242007e-18
0.004609628335707112
7.544057405271516e-18
0.004609628335707112
-3.425985256537852e-19
0.004609628335707111
5.827763228883425e-18
0.004609628335707109
5.256987198693368e-19
0.00460962833570711
3.868030522168401e-18
0.004609628335707108
3.235321756016424e-18
0.004609628335707105
8.785789879496838e-18
0.004609628335707104
3.256953515433229e-18
0.004609628335707099
8.406582960423808e-18
0.004609628335707097
-2.201869079330402e-18
0.004609628335707099
2.895518054919332e-18
0.004609628335707099
3.199431842655465e-18
0.004609628335707097
5.466733273525726e-18
0.004609628335707096
-1.381172125642144e-18
0.004609628335707094
6.610959288930393e-18
0.004609628335707093
-2.363053894237153e-18
0.004609628335707096
-5.985879963809594e-19
0.004609628335707093
-7.270567131293208e-19
0.004609628335707092
3.616870146715477e-18
0.004609628335707092
-1.930341770379717e-18
0.004609628335707092
2.846490541412317e-18
0.004609628335707088
-1.807007253033592e-18
0.004609628335707094
-4.09838014119196e-18
0.00460962833570709
9.076090312269395e-19
0.004609628335707093
-2.288025914305531e-17
-5.708169207295644e-18
0.005403751796619572
-8.923676968507695e-17
0.005403751796619595
-6.178869992573166e-17
0.005403751796619595
-2.008519827762222e-17
0.005403751796619596
-1.389641210080576e-17
0.0054037517966196
-1.176484051097576e-17
0.005403751796619601
7.264970667902065e-19
0.005403751796619603
5.266773832494323e-18
0.005403751796619609
-2.252256302910875e-20
0.005403751796619605
7.37688342310535e-18
0.005403751796619595
9.842240681822181e-18
0.005403751796619595
-6.535110540287953e-19
0.005403751796619598
2.435984954188499e-18
0.005403751796619601
1.414668243388244e-18
0.005403751796619595
1.237038757847356e-17
0.005403751796619592
1.066935343634324e-17
0.00540375179661959
1.174951774520615e-17
0.005403751796619585
5.379948714815918e-18
0.00540375179661959
4.940114434036196e-18
0.00540375179661959
6.155121671846439e-18
0.005403751796619596
1.350413483987693e-18
0.005403751796619587
1.40192319799078e-17
0.005403751796619591
3.942959637998021e-18
0.005403751796619596
-1.150943351790237e-18
0.005403751796619596
6.216446247653069e-18
0.00540375179661959
1.26573406336873e-17
0.005403751796619592
-1.480938809543126e-18
0.005403751796619591
3.932061668052329e-18
0.005403751796619595
-3.306374071819573e-18
0.005403751796619592
7.51945746201702e-18
0.005403751796619591
-6.032303727578851e-19
0.005403751796619598
-6.663190038372927e-18
0.005403751796619594
3.684019904049882e-18
0.005403751796619593
8.481443581795898e-19
0.005403751796619595
-2.30362728806894e-18
0.005403751796619598
1.222092504019845e-20
0.005403751796619596
4.99263515786633e-18
0.005403751796619596
2.733825289520548e-18
0.005403751796619597
-3.876221151763121e-18
0.005403751796619596
2.086626300554287e-18
0.005403751796619598
1.366103860849803e-18
0.005403751796619598
6.443566442559263e-18
0.005403751796619603
-4.512396495618679e-18
0.005403751796619603
6.289588774086826e-18
0.005403751796619595
8.167528104020298e-18
0.005403751796619598
8.787582729138656e-19
0.005403751796619598
3.71445352930341e-18
0.005403751796619592
1.333166258134169e-17
0.005403751796619586
9.975054501447001e-18
0.005403751796619585
9.922705981079243e-18
0.005403751796619581
1.149234425543466e-18
0.005403751796619582
3.265577381569442e-18
0.005403751796619581
3.67435843483999e-18
0.005403751796619585
2.410689709323282e-18
0.005403751796619579
4.977353415288891e-18
0.005403751796619577
8.183343684394398e-18
0.005403751796619574
-4.645796081340615e-19
0.005403751796619579
-4.087631199323342e-18
0.005403751796619579
-8.499883143878127e-19
0.005403751796619572
1.059885283303712e-17
0.005403751796619572
-1.409436326699894e-18
0.005403751796619576
-2.639272092457293e-18
0.005403751796619573
1.087268154080291e-18
0.005403751796619573
-2.822907191806027e-18
0.005403751796619569
5.770638202484522e-18
0.005403751796619571
-2.55206314668917e-17
-6.53895328876261e-18
0.00577914620884582
-9.199022892158597e-17
0.005779146208845835
-7.756246576983808e-17
0.005779146208845833
-1.724058677354416e-17
0.005779146208845835
-1.73897134813852e-17
0.005779146208845847
-2.252275563972564e-17
0.005779146208845837
9.421483814955782e-18
0.005779146208845837
5.798331452338496e-18
0.005779146208845837
5.475607478803373e-19
0.005779146208845829
1.439842964834315e-17
0.005779146208845831
7.520486102779056e-18
0.00577914620884584
-9.049952991321834e-18
0.005779146208845829
1.411519651655684e-17
0.005779146208845822
8.705796849095232e-18
0.005779146208845827
8.399617022032135e-18
0.005779146208845826
1.073760065647114e-17
0.005779146208845826
1.160543009313786e-17
0.005779146208845828
5.131067981022597e-18
0.005779146208845826
6.461295376238456e-18
0.005779146208845824
7.459761839448168e-18
0.005779146208845821
5.257516725366777e-18
0.005779146208845831
2.890056746005909e-18
0.005779146208845828
7.750012837925126e-18
0.005779146208845824
2.585984575776983e-18
0.005779146208845827
4.910789313001836e-18
0.005779146208845832
7.322519826388257e-18
0.005779146208845833
-2.111971423141944e-18
0.005779146208845834
1.569768987075837e-18
0.005779146208845831
3.427190621499367e-19
0.005779146208845839
5.762959192273712e-19
0.005779146208845839
-1.408947285686256e-18
0.005779146208845836
-3.365863930525249e-18
0.005779146208845844
-4.391674902353218e-18
0.005779146208845843
1.170727212441341e-18
0.005779146208845843
-1.40810412357062e-18
0.005779146208845838
4.2022828396558e-18
0.005779146208845846
-1.18004735924138e-18
0.005779146208845845
3.349952996944691e-18
0.005779146208845845
-4.099275613536811e-18
0.005779146208845847
1.292871807454183e-20
0.005779146208845847
1.053272462304974e-18
0.005779146208845848
5.479350653493207e-18
0.005779146208845843
1.367557503695705e-18
0.00577914620884584
1.057258693536893e-17
0.005779146208845842
4.310989495029885e-18
0.005779146208845834
9.86420001462179e-18
0.005779146208845834
4.217581667769533e-18
0.005779146208845833
1.315090207403641e-17
0.005779146208845838
5.825990434799031e-18
0.005779146208845836
1.195964735561468e-17
0.005779146208845832
4.512966798777169e-18
0.00577914620884583
6.24765260600528e-18
0.005779146208845828
5.094150712153709e-18
0.005779146208845821
9.575768023894389e-18
0.005779146208845828
-8.328197405572149e-19
0.005779146208845826
9.279537272750117e-18
0.005779146208845823
1.430094189222486e-18
0.005779146208845815
4.574787005259148e-18
0.005779146208845824
-9.314197639101982e-18
0.005779146208845816
1.804560094092063e-17
0.005779146208845818
-2.398748592325372e-18
0.005779146208845823
-8.963204372412733e-18
0.005779146208845808
1.681557441896104e-17
0.005779146208845819
-1.302571331035302e-17
0.005779146208845827
-2.000620585049228e-18
0.005779146208845816
-1.45798480088211e-17
-6.862247494788729e-18
0.00598317082333402
-9.486148633141078e-17
0.005983170823334022
-7.917383488097257e-17
0.005983170823334028
-2.375189686281913e-17
0.005983170823334021
-1.065097046689303e-17
0.005983170823334015
-1.578432413776989e-17
0.005983170823334027
-3.413306215261813e-18
0.005983170823334021
1.259157889886224e-17
0.005983170823334018
3.990923936036367e-18
0.005983170823334022
1.023094903769054e-17
0.005983170823334019
9.735176388295352e-18
0.005983170823334006
4.019421602485804e-18
0.005983170823334017
4.411907025985161e-18
0.005983170823334018
8.251010297374301e-18
0.005983170823334017