/*--------------------------------*- C++ -*----------------------------------*\
| =========                 |                                                 |
| \\      /  F ield         | OpenFOAM: The Open Source CFD Toolbox           |
|  \\    /   O peration     | Version:  v1812                                 |
|   \\  /    A nd           | Web:      www.OpenFOAM.com                      |
|    \\/     M anipulation  |                                                 |
\*---------------------------------------------------------------------------*/
FoamFile
{
    version     2.0;
    format      ascii;
    class       volVectorField;
    location    "10000";
    object      U;
}
// * * * * * * * * * * * * * * * * * * * * * * * * * * * * * * * * * * * * * //

dimensions      [0 1 -1 0 0 0 0];


internalField   nonuniform List<vector> 
2838
(
(0.5172894046568288 -7.571009146736465e-16 1.547781086703709e-05)
(0.5172894046568197 -3.951721677309669e-16 1.547825982159486e-05)
(0.5172894046568215 -1.297155110519436e-16 1.547830567859932e-05)
(0.517289404656823 1.745283082789325e-18 1.547825613647499e-05)
(0.5172894046568233 -1.399560466917305e-17 1.54782900530951e-05)
(0.5172894046568225 3.368948959950679e-17 1.547822823827865e-05)
(0.5172894046568219 2.911392900247169e-17 1.547826544818751e-05)
(0.5172894046568211 -1.106092042254964e-17 1.54781963543485e-05)
(0.5172894046568209 2.162715814320121e-17 1.547824015168533e-05)
(0.5172894046568198 -1.779471834683164e-17 1.54781641776858e-05)
(0.5172894046568211 -2.080330997823319e-17 1.547821599578671e-05)
(0.5172894046568207 2.51825455508576e-18 1.547813250268074e-05)
(0.5172894046568206 1.061129955585975e-17 1.547819339304264e-05)
(0.5172894046568194 2.873948057977149e-17 1.547810137593367e-05)
(0.5172894046568198 1.516513951257464e-17 1.54781723650275e-05)
(0.5172894046568187 5.389431137085422e-17 1.54780706273041e-05)
(0.5172894046568183 3.218765156638786e-17 1.547815283189936e-05)
(0.5172894046568181 1.584908872664672e-17 1.547804003162591e-05)
(0.5172894046568179 2.272542106967441e-17 1.547813470516466e-05)
(0.5172894046568164 1.377210236190052e-18 1.547800936080622e-05)
(0.5172894046568167 3.889599934280519e-17 1.547811791746242e-05)
(0.5172894046568161 3.688944046024546e-17 1.547797839909289e-05)
(0.5172894046568164 6.158584805835234e-18 1.54781024305701e-05)
(0.5172894046568157 -2.192977030227985e-17 1.547794694548074e-05)
(0.5172894046568156 2.851838716727327e-17 1.547808823576841e-05)
(0.5172894046568147 8.776488172702168e-18 1.54779148118344e-05)
(0.5172894046568153 3.381367861279024e-18 1.547807535178976e-05)
(0.5172894046568143 1.3867997356751e-17 1.547788181990331e-05)
(0.5172894046568146 1.667074970458291e-18 1.547806382217951e-05)
(0.5172894046568137 4.361012844673816e-18 1.54778477983643e-05)
(0.5172894046568152 -2.14109284967243e-17 1.547805371276334e-05)
(0.5172894046568133 4.669889444386467e-17 1.547781258033149e-05)
(0.5172894046568151 9.241615714151601e-18 1.547804510929768e-05)
(0.5172894046568129 -6.522376908375148e-17 1.54777760013632e-05)
(0.5172894046568153 -5.675370945904486e-18 1.547803811536446e-05)
(0.5172894046568128 8.059187231672294e-17 1.547773789800688e-05)
(0.5172894046568143 3.207391237230547e-17 1.547803285035413e-05)
(0.5172894046568122 -8.761706631604629e-17 1.547769810681237e-05)
(0.5172894046568148 2.46313470766875e-18 1.5478029447519e-05)
(0.5172894046568116 4.604786713434795e-17 1.547765646375046e-05)
(0.5172894046568144 3.23598663086461e-17 1.54780280519999e-05)
(0.5172894046568105 1.458871704580067e-17 1.547761280399659e-05)
(0.5172894046568138 -8.225977907018058e-18 1.54780288188225e-05)
(0.5172894046568103 1.635541385314153e-17 1.54775669619924e-05)
(0.5172894046568143 1.759042955802286e-17 1.547803191082879e-05)
(0.5172894046568089 -1.896980844259143e-17 1.547751877179601e-05)
(0.5172894046568143 4.358045266638601e-17 1.54780374964944e-05)
(0.5172894046568089 3.348188779689869e-18 1.547746806775922e-05)
(0.5172894046568136 2.187161674440278e-18 1.547804574735453e-05)
(0.5172894046568081 1.007379696007911e-17 1.547741468611203e-05)
(0.5172894046568146 4.017591275270303e-17 1.547805683406515e-05)
(0.5172894046568071 -1.501102809375025e-17 1.54773584691347e-05)
(0.5172894046568154 -3.282720189439734e-17 1.547807091803055e-05)
(0.5172894046568067 -2.158043779495464e-17 1.547729927724297e-05)
(0.5172894046568154 3.096671213549311e-17 1.547808812953802e-05)
(0.517289404656806 2.251077463683694e-17 1.547723702447012e-05)
(0.5172894046568158 -4.378112301963383e-17 1.54781085058166e-05)
(0.5172894046568044 4.515308079800526e-17 1.547717178335961e-05)
(0.5172894046568164 3.564781419312123e-17 1.547813180833395e-05)
(0.517289404656804 -2.655721887839241e-17 1.547710410235981e-05)
(0.5172894046568173 3.583301716679205e-17 1.547815695588327e-05)
(0.5172894046568014 1.029021542094769e-17 1.547703600621616e-05)
(0.5172894046568195 -5.240820335827839e-17 1.547818002673437e-05)
(0.5172894046568002 2.289334415526344e-17 1.547697388637612e-05)
(0.5172894046568223 -1.219327142284312e-16 1.547818188253419e-05)
(0.5172894046568015 1.078273112407378e-16 1.547690843205431e-05)
(0.5980070787046226 -1.307416245515688e-15 1.791399506503351e-05)
(0.5980070787046163 -4.554888525572908e-16 1.7914367738676e-05)
(0.5980070787046182 -1.447090497131624e-16 1.791439423145263e-05)
(0.5980070787046201 1.093896368388613e-17 1.791433016703418e-05)
(0.5980070787046202 -3.089251593498891e-19 1.791436421661137e-05)
(0.5980070787046193 5.519334989799149e-17 1.791429336525196e-05)
(0.5980070787046189 5.022766691147253e-17 1.791433380676504e-05)
(0.5980070787046182 6.313692755443391e-18 1.791425603806387e-05)
(0.5980070787046181 2.714020677941164e-17 1.791430443094135e-05)
(0.5980070787046173 -3.235130879146884e-17 1.791421927348616e-05)
(0.5980070787046186 -3.669518252196241e-17 1.791427678126072e-05)
(0.5980070787046179 2.718016655458433e-17 1.791418329035454e-05)
(0.5980070787046179 7.270783894614501e-17 1.791425096787159e-05)
(0.5980070787046163 3.006436677197229e-17 1.791414794907554e-05)
(0.5980070787046169 4.912827169203365e-17 1.79142269101588e-05)
(0.5980070787046158 7.465541219054195e-17 1.791411300162496e-05)
(0.5980070787046156 3.720471025224571e-17 1.791420448974417e-05)
(0.598007078704615 4.803862396217242e-17 1.791407818167485e-05)
(0.5980070787046148 7.383395465201024e-17 1.791418360381002e-05)
(0.5980070787046133 4.541126038862091e-17 1.791404323384976e-05)
(0.5980070787046138 3.473485631605858e-17 1.791416418144637e-05)
(0.5980070787046134 2.580323310768046e-17 1.791400792065569e-05)
(0.5980070787046131 1.405983353629328e-17 1.791414618659458e-05)
(0.5980070787046122 4.186177961184667e-17 1.791397202152632e-05)
(0.5980070787046123 3.302825320066591e-17 1.791412961639133e-05)
(0.5980070787046113 -1.752117793109444e-18 1.791393532946763e-05)
(0.5980070787046121 1.472675656244161e-17 1.791411449827973e-05)
(0.598007078704611 4.445339880041684e-17 1.791389764735311e-05)
(0.5980070787046118 -8.194966968508154e-18 1.791410088701539e-05)
(0.5980070787046106 -4.108739307510365e-17 1.791385878457903e-05)
(0.5980070787046123 3.808024559961041e-17 1.79140888619949e-05)
(0.5980070787046103 2.30193126692081e-17 1.791381855432001e-05)
(0.598007078704612 -9.725337958114034e-18 1.791407852483552e-05)
(0.5980070787046101 -1.631849675259748e-17 1.791377677138094e-05)
(0.5980070787046122 9.486393232392606e-18 1.791406999723199e-05)
(0.5980070787046097 2.196434453999908e-17 1.791373325061672e-05)
(0.5980070787046114 2.249193250638832e-17 1.791406341888904e-05)
(0.5980070787046097 -1.097561512473629e-17 1.79136878058618e-05)
(0.5980070787046119 5.921486309356789e-17 1.791405894550636e-05)
(0.5980070787046086 2.341767170474473e-17 1.791364024930912e-05)
(0.5980070787046113 4.69792991359876e-17 1.791405674668319e-05)
(0.5980070787046077 1.919653984356366e-17 1.791359039128843e-05)
(0.5980070787046109 -6.379796413619429e-19 1.791405700376516e-05)
(0.5980070787046071 1.215630794712777e-17 1.79135380403563e-05)
(0.5980070787046111 4.193532765932345e-17 1.791405990757845e-05)
(0.5980070787046057 -6.853571257336321e-18 1.791348300368952e-05)
(0.5980070787046111 1.559829922529889e-18 1.79140656560831e-05)
(0.5980070787046057 4.759353350572253e-17 1.791342508772549e-05)
(0.5980070787046103 8.739992071889073e-17 1.791407445179176e-05)
(0.5980070787046049 -4.75610214398256e-17 1.791336409937028e-05)
(0.5980070787046112 2.315452519530158e-18 1.791408649844459e-05)
(0.5980070787046036 -4.159386281698094e-17 1.791329984874171e-05)
(0.598007078704612 6.743543710302793e-18 1.791410199503643e-05)
(0.5980070787046032 4.208758313255031e-17 1.791323215677782e-05)
(0.598007078704612 2.884061082134356e-17 1.791412112158036e-05)
(0.5980070787046026 -2.198317097548724e-17 1.791316087729916e-05)
(0.5980070787046129 7.000583900815827e-17 1.791414400029413e-05)
(0.5980070787046013 -2.315058010771854e-17 1.791308596119877e-05)
(0.5980070787046134 -9.172194435611501e-18 1.791417058520974e-05)
(0.5980070787046005 -8.379956830951155e-18 1.791300764320124e-05)
(0.5980070787046138 8.268476775904321e-17 1.791420034164625e-05)
(0.5980070787045985 -4.78478523089762e-17 1.791292698836473e-05)
(0.5980070787046163 -1.417946978015477e-17 1.791423128080109e-05)
(0.5980070787045968 -4.221034457303708e-17 1.791284723576808e-05)
(0.5980070787046197 -2.355299882514231e-16 1.791425495667783e-05)
(0.598007078704599 9.935817799920613e-17 1.791275077605347e-05)
(0.6645714221823212 -1.871844289156916e-15 1.993426321366814e-05)
(0.6645714221823158 -5.154769971396988e-16 1.993457024080782e-05)
(0.6645714221823178 -2.26901899856855e-16 1.993458747870913e-05)
(0.6645714221823198 -1.305219801955592e-17 1.993451439643374e-05)
(0.6645714221823199 2.425802587633932e-17 1.993454583688321e-05)
(0.6645714221823188 1.105512969212866e-16 1.993446992764649e-05)
(0.6645714221823186 7.568346348400412e-17 1.993451035481922e-05)
(0.6645714221823179 -4.863173629685256e-18 1.993442850346738e-05)
(0.6645714221823182 6.443130553882101e-17 1.993447787638894e-05)
(0.664571422182317 -4.467838473608625e-17 1.993438868812508e-05)
(0.6645714221823182 -4.735850677296234e-17 1.993444773011697e-05)
(0.6645714221823176 6.243885223595621e-17 1.993434994342969e-05)
(0.6645714221823178 1.167830954402831e-16 1.993441960453908e-05)
(0.6645714221823164 6.504785611278111e-17 1.993431188357647e-05)
(0.6645714221823166 6.388098086794987e-17 1.99343932832686e-05)
(0.6645714221823159 1.174941713659946e-16 1.993427417713442e-05)
(0.6645714221823159 7.789664193773233e-17 1.993436860787972e-05)
(0.664571422182315 9.937478252869709e-17 1.993423652995029e-05)
(0.6645714221823149 1.164670056825466e-16 1.993434546934368e-05)
(0.6645714221823139 6.956685477336355e-17 1.993419867773951e-05)
(0.6645714221823137 6.265579654447094e-17 1.99343238025511e-05)
(0.6645714221823134 5.724046535162834e-17 1.993416037969219e-05)
(0.6645714221823129 4.494784694283842e-17 1.993430358130741e-05)
(0.664571422182312 5.519588713852312e-17 1.993412141255333e-05)
(0.6645714221823122 5.63287047470416e-17 1.993428481389617e-05)
(0.6645714221823116 -6.530793980996637e-20 1.99340815654895e-05)
(0.6645714221823121 4.120498961356089e-17 1.993426753937319e-05)
(0.6645714221823108 5.597174739855651e-17 1.993404063579103e-05)
(0.664571422182312 -8.123986721856947e-18 1.993425182451538e-05)
(0.6645714221823106 -5.061318505731517e-17 1.993399842539913e-05)
(0.6645714221823121 5.265674622243727e-17 1.993423776137691e-05)
(0.6645714221823104 3.451136710811511e-17 1.993395473816006e-05)
(0.664571422182312 -5.585264055698139e-18 1.993422546516407e-05)
(0.6645714221823101 -3.742584870044211e-17 1.993390937772522e-05)
(0.6645714221823119 1.882192985347764e-17 1.993421507240264e-05)
(0.6645714221823095 6.745396130350754e-17 1.993386214599525e-05)
(0.6645714221823115 4.428093098158015e-17 1.993420673912857e-05)
(0.6645714221823095 -3.94080362810808e-17 1.993381284205987e-05)
(0.6645714221823117 7.507390075929767e-17 1.993420063909345e-05)
(0.6645714221823084 4.908688127427337e-17 1.993376126159219e-05)
(0.664571422182311 9.213719116661908e-17 1.993419696180318e-05)
(0.6645714221823078 4.419610318871294e-17 1.993370719664432e-05)
(0.6645714221823108 2.946062033321851e-17 1.993419591044108e-05)
(0.6645714221823069 -1.473949899131332e-18 1.993365043578009e-05)
(0.6645714221823114 6.87291664085867e-17 1.993419769959521e-05)
(0.664571422182306 4.831672488356591e-19 1.993359076450703e-05)
(0.6645714221823107 1.700027164596899e-17 1.993420255292739e-05)
(0.664571422182306 6.673587925973069e-17 1.993352796581844e-05)
(0.6645714221823105 1.182728042828703e-16 1.993421070084434e-05)
(0.664571422182305 -8.663323700739578e-17 1.993346182076231e-05)
(0.6645714221823111 3.053444609551828e-17 1.993422237840056e-05)
(0.6645714221823043 -6.231880265122581e-17 1.993339210877649e-05)
(0.6645714221823118 1.129157886529427e-17 1.993423782357995e-05)
(0.6645714221823037 3.925526896285611e-17 1.993331860770438e-05)
(0.6645714221823122 5.988702008605675e-17 1.99342572761178e-05)
(0.6645714221823029 -2.492642266506803e-17 1.993324109321322e-05)
(0.664571422182313 8.626181873090445e-17 1.993428097754998e-05)
(0.6645714221823021 -3.171128991147005e-17 1.993315933564991e-05)
(0.6645714221823136 1.807719222495567e-17 1.993430917804642e-05)
(0.6645714221823009 -2.451380297466333e-17 1.993307307957643e-05)
(0.6645714221823141 1.266734863571588e-16 1.993434218751986e-05)
(0.6645714221822999 -1.159872272601489e-16 1.993298191082948e-05)
(0.6645714221823168 1.424694263328541e-17 1.993438069921841e-05)
(0.6645714221822978 -1.159990926093386e-16 1.993288431957218e-05)
(0.6645714221823196 -3.298275574738176e-16 1.993442640192494e-05)
(0.6645714221823009 3.007729254277355e-17 1.993275480210182e-05)
(0.707708280055992 -2.209733184691113e-15 2.124810042205037e-05)
(0.707708280055986 -5.114107812365328e-16 2.124838192592086e-05)
(0.7077082800559883 -3.456023800285219e-16 2.124839813667946e-05)
(0.7077082800559902 -4.641552956802919e-17 2.124832343501543e-05)
(0.7077082800559904 4.539269964003835e-17 2.124835287865808e-05)
(0.7077082800559894 1.484313494436645e-16 2.1248276032783e-05)
(0.7077082800559892 8.971896603915429e-17 2.124831516987566e-05)
(0.7077082800559885 -2.476694178095225e-18 2.124823291021351e-05)
(0.707708280055989 8.161276455343584e-17 2.124828126578026e-05)
(0.7077082800559882 -5.242765028333298e-17 2.124819184749713e-05)
(0.7077082800559891 -5.207237546413222e-17 2.124824991684086e-05)
(0.7077082800559881 8.902606776433756e-17 2.124815193614157e-05)
(0.7077082800559885 1.418408702890913e-16 2.124822059004632e-05)
(0.7077082800559873 9.843667069698418e-17 2.124811266188317e-05)
(0.7077082800559871 7.652259686806418e-17 2.124819300041264e-05)
(0.7077082800559867 1.496421102537868e-16 2.124807365821699e-05)
(0.7077082800559864 1.083252665036442e-16 2.124816697749799e-05)
(0.7077082800559856 1.425193349686132e-16 2.124803462894471e-05)
(0.7077082800559858 1.427814953520951e-16 2.124814241964324e-05)
(0.7077082800559847 1.052883628787027e-16 2.124799531778853e-05)
(0.7077082800559844 9.525606929846026e-17 2.124811927454201e-05)
(0.7077082800559842 7.976158340110462e-17 2.124795549343402e-05)
(0.7077082800559839 7.016102800913726e-17 2.124809752923041e-05)
(0.7077082800559826 7.52195234622647e-17 2.12479149405664e-05)
(0.7077082800559832 7.472482740630676e-17 2.124807720412575e-05)
(0.7077082800559824 2.889869664838277e-18 2.124787345386142e-05)
(0.7077082800559829 5.257480461253586e-17 2.124805834912992e-05)
(0.707708280055982 5.755779113492818e-17 2.124783083356094e-05)
(0.707708280055983 6.764451854916884e-18 2.124804104088497e-05)
(0.7077082800559814 -4.560684405267328e-17 2.124778688217038e-05)
(0.7077082800559829 5.041671419962789e-17 2.124802538078594e-05)
(0.7077082800559811 2.578690385606682e-17 2.124774140189737e-05)
(0.707708280055983 1.671854159207883e-17 2.124801149333745e-05)
(0.7077082800559809 -3.404424039849879e-17 2.124769419271824e-05)
(0.7077082800559827 1.434723648633003e-17 2.124799952477614e-05)
(0.7077082800559805 7.998253253510142e-17 2.124764505093046e-05)
(0.7077082800559822 5.706068259259647e-17 2.124798964165943e-05)
(0.7077082800559804 -4.557858123658324e-17 2.124759376815528e-05)
(0.7077082800559823 9.826565878540652e-17 2.124798202942355e-05)
(0.7077082800559797 6.947529666081445e-17 2.124754013075989e-05)
(0.7077082800559817 1.17495994116803e-16 2.124797689069836e-05)
(0.707708280055979 4.902539233745609e-17 2.12474839196748e-05)
(0.7077082800559816 6.191504120459972e-17 2.124797444343165e-05)
(0.7077082800559782 -1.093743764900501e-17 2.124742491056048e-05)
(0.7077082800559821 1.004776100979746e-16 2.124797491873698e-05)
(0.7077082800559771 1.80975041455462e-17 2.124736287427916e-05)
(0.7077082800559814 3.571603221171088e-17 2.124797855862896e-05)
(0.7077082800559765 6.846480491704396e-17 2.124729757743708e-05)
(0.7077082800559815 1.318290495450987e-16 2.124798561386564e-05)
(0.7077082800559762 -1.146221900174617e-16 2.124722878263113e-05)
(0.7077082800559821 5.474993682937632e-17 2.124799634257618e-05)
(0.707708280055975 -5.916885492810236e-17 2.12471562473628e-05)
(0.7077082800559822 9.97177856685794e-18 2.124801101120571e-05)
(0.7077082800559745 2.092149790081894e-17 2.124707971925753e-05)
(0.7077082800559831 8.807806286944531e-17 2.1248029901675e-05)
(0.7077082800559735 -3.161401293288007e-17 2.124699892103856e-05)
(0.7077082800559836 8.599186515905231e-17 2.124805333603739e-05)
(0.7077082800559731 -4.020736036504645e-17 2.124691350550489e-05)
(0.7077082800559846 3.967813952041259e-17 2.124808175435208e-05)
(0.7077082800559722 -2.620124831599453e-17 2.124682291448555e-05)
(0.7077082800559851 1.590844683380252e-16 2.124811597219609e-05)
(0.7077082800559711 -1.67690392490553e-16 2.124672589606437e-05)
(0.7077082800559872 4.101575508925517e-17 2.124815810268392e-05)
(0.7077082800559696 -1.68014304547724e-16 2.124661858020835e-05)
(0.7077082800559896 -4.290798477634717e-16 2.124821419268088e-05)
(0.7077082800559721 -6.604880641615718e-17 2.124647301242975e-05)
(0.7451174935912118 -2.575905068203583e-15 2.238938393704565e-05)
(0.7451174935912073 -5.158474283641401e-16 2.238978364575607e-05)
(0.7451174935912087 -5.318277896579046e-16 2.23898019895826e-05)
(0.7451174935912105 -1.132253438633004e-16 2.238972958666386e-05)
(0.7451174935912114 8.103079538324318e-17 2.238975744554996e-05)
(0.7451174935912103 1.802505887347802e-16 2.238968215325758e-05)
(0.7451174935912104 1.065931600447351e-16 2.238971931330995e-05)
(0.7451174935912095 1.799548574096527e-17 2.238963877898416e-05)
(0.7451174935912097 9.658510942442691e-17 2.238968493125925e-05)
(0.7451174935912088 -5.18500022107922e-17 2.238959742428557e-05)
(0.7451174935912095 -4.495667060396931e-17 2.238965300081491e-05)
(0.7451174935912089 9.973584332228572e-17 2.23895571048573e-05)
(0.7451174935912093 1.536397866441636e-16 2.238962293366197e-05)
(0.7451174935912083 1.410225878664447e-16 2.238951727955947e-05)
(0.7451174935912083 1.041944591553286e-16 2.238959443788512e-05)
(0.7451174935912075 1.761183206027604e-16 2.238947759012966e-05)
(0.7451174935912077 1.419855500232941e-16 2.238956735864993e-05)
(0.7451174935912067 1.761065018900364e-16 2.23894377611973e-05)
(0.745117493591207 1.790861291465625e-16 2.238954161614371e-05)
(0.7451174935912058 1.636590902946642e-16 2.2389397558863e-05)
(0.7451174935912059 1.337852418483504e-16 2.238951717927017e-05)
(0.7451174935912052 1.12865530249374e-16 2.238935677149555e-05)
(0.7451174935912049 1.041527990390522e-16 2.238949405336155e-05)
(0.7451174935912039 9.911228335037233e-17 2.238931519952217e-05)
(0.7451174935912044 9.165955663948023e-17 2.238947227394219e-05)
(0.7451174935912036 2.791191741720946e-17 2.238927264937331e-05)
(0.7451174935912039 5.616344466657363e-17 2.238945190326525e-05)
(0.7451174935912031 5.462711616161531e-17 2.238922892941048e-05)
(0.745117493591204 4.626736753594121e-17 2.238943302829145e-05)
(0.7451174935912024 -3.932653564612642e-17 2.238918384705968e-05)
(0.7451174935912039 4.76732223985288e-17 2.238941575942652e-05)
(0.7451174935912021 1.286862662091282e-17 2.238913720660039e-05)
(0.7451174935912043 2.142484685964324e-17 2.238940022958086e-05)
(0.7451174935912022 -1.892361586538495e-17 2.238908880752433e-05)
(0.7451174935912038 3.388419112925769e-17 2.238938659343737e-05)
(0.7451174935912014 9.621199741311305e-17 2.238903844325204e-05)
(0.7451174935912033 5.916363689640325e-17 2.238937502661166e-05)
(0.7451174935912018 -6.11890089786044e-17 2.238898590023093e-05)
(0.7451174935912036 1.232485433496617e-16 2.238936572472491e-05)
(0.7451174935912008 8.76840596211823e-17 2.238893095739884e-05)
(0.7451174935912033 1.414784120202679e-16 2.238935890214412e-05)
(0.7451174935912005 5.836650207892508e-17 2.238887338600182e-05)
(0.7451174935912026 9.432332838839117e-17 2.238935479046163e-05)
(0.7451174935911994 -1.727406005743343e-17 2.238881294978692e-05)
(0.7451174935912036 1.312359824363061e-16 2.238935363656602e-05)
(0.7451174935911985 4.19815629426928e-17 2.23887494055221e-05)
(0.7451174935912027 7.371802458287126e-17 2.238935570048638e-05)
(0.7451174935911975 5.191996919683601e-17 2.238868250365004e-05)
(0.7451174935912031 1.340774400757145e-16 2.238936125328045e-05)
(0.7451174935911976 -1.180998753288041e-16 2.238861198854395e-05)
(0.7451174935912035 9.363706431079666e-17 2.238937057586333e-05)
(0.7451174935911963 -4.484702946539929e-17 2.238853759698246e-05)
(0.7451174935912031 1.167096453921769e-17 2.238938396103137e-05)
(0.7451174935911956 -6.2694367014761e-18 2.238845905123476e-05)
(0.7451174935912039 1.224056000833454e-16 2.238940172455602e-05)
(0.7451174935911951 -5.238164448364663e-17 2.238837603709543e-05)
(0.7451174935912044 8.231035104645795e-17 2.238942424153464e-05)
(0.7451174935911944 -6.057194949718606e-17 2.238828813957175e-05)
(0.7451174935912056 6.712423563771227e-17 2.238945205469193e-05)
(0.7451174935911939 -2.807831672084314e-17 2.238819465451116e-05)
(0.745117493591206 1.794967669495e-16 2.238948619720138e-05)
(0.7451174935911931 -2.015415763033406e-16 2.238809401500238e-05)
(0.7451174935912078 6.639749862961927e-17 2.238952919220126e-05)
(0.7451174935911914 -2.329757134909731e-16 2.238798199857308e-05)
(0.7451174935912099 -5.382624160446015e-16 2.238958746583348e-05)
(0.7451174935911934 -1.693227965400166e-16 2.238782618026851e-05)
(0.7859912116473461 -2.98663666297279e-15 2.364022069237726e-05)
(0.7859912116473453 -6.255349466284682e-16 2.36410125868331e-05)
(0.7859912116473458 -7.699860656747363e-16 2.36410310886401e-05)
(0.7859912116473476 -2.525819320997801e-16 2.364096456279872e-05)
(0.7859912116473489 9.201322171686731e-17 2.364099082444009e-05)
(0.7859912116473476 1.907398150508799e-16 2.364092026955826e-05)
(0.785991211647348 1.559156445684944e-16 2.36409544050102e-05)
(0.7859912116473466 7.098989182678606e-17 2.364087840660002e-05)
(0.7859912116473469 9.681033038540263e-17 2.364092064207702e-05)
(0.7859912116473466 -5.215917445196986e-17 2.364083783910102e-05)
(0.7859912116473472 -2.691613648552976e-17 2.364088873226895e-05)
(0.7859912116473469 1.18150001313957e-16 2.364079786591316e-05)
(0.7859912116473471 1.588659229113435e-16 2.364085825881214e-05)
(0.7859912116473464 2.026762412766641e-16 2.364075806861127e-05)
(0.785991211647346 1.580601344960848e-16 2.364082902017605e-05)
(0.7859912116473454 1.986697322967469e-16 2.364071816752744e-05)
(0.7859912116473453 1.861553776011529e-16 2.364080092498888e-05)
(0.7859912116473444 2.190791852002572e-16 2.364067794699792e-05)
(0.7859912116473448 2.364856245007298e-16 2.364077394221452e-05)
(0.7859912116473436 2.295630089664229e-16 2.364063722017155e-05)
(0.7859912116473438 1.682859620852632e-16 2.364074807869553e-05)
(0.7859912116473433 1.670455783866017e-16 2.36405958123078e-05)
(0.7859912116473431 1.466064178572775e-16 2.364072336906285e-05)
(0.7859912116473421 1.557844963175222e-16 2.364055355233745e-05)
(0.7859912116473425 1.155932236279183e-16 2.36406998713489e-05)
(0.7859912116473412 6.382455230528737e-17 2.364051026816439e-05)
(0.7859912116473421 6.626401006675019e-17 2.364067766514783e-05)
(0.7859912116473412 4.996588140809268e-17 2.364046578380179e-05)
(0.7859912116473419 1.144835612047038e-16 2.364065685108019e-05)
(0.7859912116473404 -2.712182506639043e-17 2.364041991739481e-05)
(0.7859912116473423 4.196465884660992e-17 2.364063755076145e-05)
(0.7859912116473401 1.336220012168003e-17 2.364037247965428e-05)
(0.7859912116473421 4.93949882149277e-18 2.364061990703944e-05)
(0.7859912116473405 -9.366052000069861e-18 2.364032327268241e-05)
(0.7859912116473419 7.645269929316978e-17 2.364060408426998e-05)
(0.7859912116473399 1.140187693716585e-16 2.364027208893822e-05)
(0.7859912116473414 4.929231584856406e-17 2.364059026839341e-05)
(0.7859912116473401 -7.52052457381306e-17 2.364021871044627e-05)
(0.7859912116473416 1.489368746284115e-16 2.364057866684603e-05)
(0.7859912116473392 1.209053115043723e-16 2.364016290826647e-05)
(0.7859912116473412 1.854487084430876e-16 2.364056950805136e-05)
(0.7859912116473385 5.36470329799338e-17 2.364010444225945e-05)
(0.7859912116473413 1.293164657427481e-16 2.364056304052459e-05)
(0.7859912116473379 -7.876065011489252e-18 2.364004306121404e-05)
(0.7859912116473416 1.440902512914422e-16 2.364055953140187e-05)
(0.7859912116473373 7.159189034467814e-17 2.363997850341414e-05)
(0.7859912116473408 1.373019657732591e-16 2.364055926449122e-05)
(0.7859912116473359 3.647922453801462e-17 2.363991049752697e-05)
(0.7859912116473411 1.463201328082878e-16 2.364056253801252e-05)
(0.7859912116473357 -1.38719427529056e-16 2.363983876342987e-05)
(0.7859912116473418 1.698288207637152e-16 2.364056966275495e-05)
(0.7859912116473348 -6.193171180882634e-18 2.363976301182724e-05)
(0.785991211647341 3.153185760206999e-17 2.364058096263853e-05)
(0.7859912116473338 -4.788091315760168e-17 2.363968293941785e-05)
(0.7859912116473416 1.576176662252366e-16 2.36405967828575e-05)
(0.7859912116473331 -7.96033643214923e-17 2.363959821146381e-05)
(0.7859912116473422 8.953443086164808e-17 2.364061751873124e-05)
(0.785991211647333 -1.026296339652258e-16 2.363950841089425e-05)
(0.7859912116473431 8.723601967104783e-17 2.364064369829601e-05)
(0.7859912116473323 -2.652254763486863e-17 2.363941290380833e-05)
(0.7859912116473438 1.984478474868676e-16 2.364067620164301e-05)
(0.7859912116473314 -2.314239851124725e-16 2.363931052400601e-05)
(0.785991211647345 7.117306781508581e-17 2.364071678194758e-05)
(0.7859912116473307 -2.695626731106945e-16 2.363919843228231e-05)
(0.7859912116473464 -6.921769805494048e-16 2.36407618211428e-05)
(0.7859912116473323 -2.66762940963198e-16 2.363900343983128e-05)
(0.832829345449442 -3.416690498649823e-15 2.508597831230694e-05)
(0.8328293454494436 -1.054346714657218e-15 2.508728878650022e-05)
(0.8328293454494442 -1.024388748120629e-15 2.508730897695853e-05)
(0.8328293454494456 -5.168806976368542e-16 2.508725356362975e-05)
(0.8328293454494471 -6.999738320136985e-19 2.508727768561769e-05)
(0.8328293454494466 2.02090350259183e-16 2.508721653826556e-05)
(0.8328293454494469 2.486404499391727e-16 2.508724594061038e-05)
(0.832829345449446 1.56733861372337e-16 2.508717880165383e-05)
(0.8328293454494458 4.436033736562383e-17 2.508721446235418e-05)
(0.8328293454494456 -5.005094219302999e-17 2.508714067099699e-05)
(0.8328293454494458 -1.812211665944092e-17 2.508718347582778e-05)
(0.8328293454494454 1.874201649592585e-16 2.508710216759318e-05)
(0.8328293454494455 1.817896625199392e-16 2.508715305973684e-05)
(0.8328293454494452 2.516269300578706e-16 2.508706323248333e-05)
(0.832829345449445 2.35742820901405e-16 2.508712326703622e-05)
(0.8328293454494444 2.542132319454467e-16 2.508702378616289e-05)
(0.8328293454494443 2.25063996547282e-16 2.508709415349457e-05)
(0.8328293454494438 2.756112098786384e-16 2.508698373905279e-05)
(0.8328293454494439 3.146980545175356e-16 2.508706578235298e-05)
(0.8328293454494431 3.04419754740917e-16 2.508694299131994e-05)
(0.8328293454494433 2.106034980903224e-16 2.508703822504208e-05)
(0.8328293454494426 2.741516345361922e-16 2.508690143153917e-05)
(0.8328293454494426 1.824423969838393e-16 2.508701156215998e-05)
(0.8328293454494415 2.524526370312908e-16 2.508685893595035e-05)
(0.8328293454494419 1.595735030783992e-16 2.508698588511277e-05)
(0.832829345449441 4.686140643953886e-17 2.508681536802314e-05)
(0.8328293454494418 1.136882252134e-16 2.508696129819237e-05)
(0.8328293454494411 9.624316482638686e-17 2.508677057823274e-05)
(0.8328293454494412 1.9854309258902e-16 2.50869379207718e-05)
(0.83282934544944 -1.619524340284048e-17 2.508672440368785e-05)
(0.8328293454494416 3.543916969845269e-17 2.508691588941721e-05)
(0.8328293454494403 4.641025757623456e-18 2.508667666768865e-05)
(0.8328293454494416 -3.175260386745532e-17 2.508689535997594e-05)
(0.8328293454494403 6.522626758221035e-18 2.508662717909835e-05)
(0.8328293454494415 1.342694402257555e-16 2.508687650942663e-05)
(0.83282934544944 1.456400153015472e-16 2.508657573159271e-05)
(0.8328293454494413 5.07827067763529e-17 2.508685953746751e-05)
(0.8328293454494397 -7.396109636955142e-17 2.508652210289671e-05)
(0.8328293454494415 1.349873358962538e-16 2.508684466779165e-05)
(0.83282934544944 1.714732861931981e-16 2.508646605398619e-05)
(0.8328293454494418 2.845482586695162e-16 2.508683214897062e-05)
(0.8328293454494393 7.157408383499011e-18 2.508640732853341e-05)
(0.8328293454494418 1.552002440764277e-16 2.508682225471614e-05)
(0.8328293454494385 1.058392383243788e-17 2.508634565262685e-05)
(0.8328293454494419 1.521733372521687e-16 2.508681528345319e-05)
(0.8328293454494377 1.135916435609844e-16 2.508628073507389e-05)
(0.8328293454494413 2.374755264857887e-16 2.508681155695687e-05)
(0.8328293454494368 1.838278927300187e-17 2.508621226846194e-05)
(0.8328293454494408 2.135612455058569e-16 2.50868114178212e-05)
(0.8328293454494355 -1.315947705742028e-16 2.508613993132463e-05)
(0.8328293454494413 2.682190841979355e-16 2.508681522558924e-05)
(0.8328293454494357 4.504882425449167e-17 2.508606339154469e-05)