/*--------------------------------*- C++ -*----------------------------------*\
| =========                 |                                                 |
| \\      /  F ield         | OpenFOAM: The Open Source CFD Toolbox           |
|  \\    /   O peration     | Version:  v1812                                 |
|   \\  /    A nd           | Web:      www.OpenFOAM.com                      |
|    \\/     M anipulation  |                                                 |
\*---------------------------------------------------------------------------*/
FoamFile
{
    version     2.0;
    format      ascii;
    class       volVectorField;
    location    "10000";
    object      wallShearStress;
}
// * * * * * * * * * * * * * * * * * * * * * * * * * * * * * * * * * * * * * //

dimensions      [0 2 -2 0 0 0 0];


internalField   uniform (0 0 0);

boundaryField
{
    inlet
    {
        type            cyclic;
    }
    outlet
    {
        type            cyclic;
    }
    bottomWall
    {
        type            calculated;
        value           nonuniform List<vector> 
66
(
(-0.002712127050243741 6.29772549910539e-18 -8.114952510750921e-08)
(-0.002712127050243693 2.354473381763821e-18 -8.115187895777077e-08)
(-0.002712127050243703 1.093839552265485e-18 -8.115211938415711e-08)
(-0.00271212705024371 7.73651699763726e-20 -8.115185963683901e-08)
(-0.002712127050243712 7.793433506633291e-20 -8.115203746028185e-08)
(-0.002712127050243707 -3.250765163382081e-19 -8.115171336774427e-08)
(-0.002712127050243705 -2.711525342733782e-19 -8.115190845776437e-08)
(-0.002712127050243701 1.761208952798475e-20 -8.115154620161128e-08)
(-0.002712127050243699 -2.129314804543339e-19 -8.115177582924497e-08)
(-0.002712127050243693 1.343477193328142e-19 -8.11513775006935e-08)
(-0.002712127050243701 1.951866227050306e-19 -8.11516491808631e-08)
(-0.002712127050243698 -5.537663658389241e-20 -8.115121142994614e-08)
(-0.002712127050243698 -1.438423457527204e-19 -8.115153067560655e-08)
(-0.002712127050243691 -2.407135584890817e-19 -8.115104823369282e-08)
(-0.002712127050243694 -1.478545133093097e-19 -8.115142042658895e-08)
(-0.002712127050243688 -4.563682219765592e-19 -8.115088701989401e-08)
(-0.002712127050243686 -2.627844799256777e-19 -8.115131801520239e-08)
(-0.002712127050243685 -1.306983298374484e-19 -8.115072660801296e-08)
(-0.002712127050243684 -2.484309698342188e-19 -8.115122297747865e-08)
(-0.002712127050243676 -6.933926785646981e-20 -8.115056580216817e-08)
(-0.002712127050243677 -3.03796596914522e-19 -8.115113496024703e-08)
(-0.002712127050243674 -2.657976052252569e-19 -8.115040347117999e-08)
(-0.002712127050243675 -6.498968232321834e-20 -8.115105376310819e-08)
(-0.002712127050243672 1.155294063132664e-19 -8.11502385611865e-08)
(-0.002712127050243672 -2.590714839299291e-19 -8.115097934034739e-08)
(-0.002712127050243666 -9.120827699171583e-20 -8.115007008580175e-08)
(-0.00271212705024367 -4.55752368647212e-20 -8.115091179017781e-08)
(-0.002712127050243664 -1.367527928433802e-19 -8.114989711046542e-08)
(-0.002712127050243667 -2.952286690944211e-20 -8.115085134090598e-08)
(-0.002712127050243662 -1.261654731062882e-20 -8.114971873693722e-08)
(-0.002712127050243669 1.417576401595044e-19 -8.115079833765321e-08)
(-0.002712127050243659 -3.364055929384726e-19 -8.11495340902412e-08)
(-0.002712127050243669 -9.649370630217643e-20 -8.115075323003705e-08)
(-0.002712127050243658 4.778914546919241e-19 -8.114934230821653e-08)
(-0.002712127050243669 3.764041168456595e-20 -8.115071656113309e-08)
(-0.002712127050243658 -6.111113470126486e-19 -8.114914253388818e-08)
(-0.002712127050243665 -2.64023276621877e-19 -8.115068895690075e-08)
(-0.002712127050243654 6.323997912255878e-19 -8.114893391029369e-08)
(-0.002712127050243668 -4.910858460705088e-20 -8.115067111597625e-08)
(-0.002712127050243651 -3.298206105214516e-19 -8.114871557743466e-08)
(-0.002712127050243666 -3.078625727177322e-19 -8.115066379932706e-08)
(-0.002712127050243645 -1.198536574866595e-19 -8.114848667114273e-08)
(-0.002712127050243662 3.760111431838001e-20 -8.11506678197464e-08)
(-0.002712127050243643 -8.651360374659441e-20 -8.114824632340218e-08)
(-0.002712127050243665 -1.905962234335639e-19 -8.115068403100806e-08)
(-0.002712127050243637 1.326099587533001e-19 -8.114799366418665e-08)
(-0.002712127050243665 -3.166396803919547e-19 -8.11507133164229e-08)
(-0.002712127050243636 -5.12278475294196e-20 -8.114772782500941e-08)
(-0.00271212705024366 -6.504714246016233e-20 -8.115075657534281e-08)
(-0.002712127050243631 -1.274539587847429e-20 -8.114744794723108e-08)
(-0.002712127050243667 -3.385314236500237e-19 -8.115081470251016e-08)
(-0.002712127050243626 1.447432769661117e-19 -8.114715320393358e-08)
(-0.00271212705024367 2.095781128568577e-19 -8.115088854416081e-08)
(-0.002712127050243626 1.508604624359217e-19 -8.114684286328234e-08)
(-0.00271212705024367 -2.662350214416367e-19 -8.115097878338584e-08)
(-0.002712127050243621 -1.295427338786161e-19 -8.114651647455742e-08)
(-0.002712127050243672 2.185255780699922e-19 -8.11510856153755e-08)
(-0.002712127050243613 -2.758406507416664e-19 -8.114617441810121e-08)
(-0.002712127050243675 -2.691035331004011e-19 -8.115120778951453e-08)
(-0.00271212705024361 2.254588215624714e-19 -8.114581956940584e-08)
(-0.00271212705024368 -3.918531403470574e-19 -8.115133963708021e-08)
(-0.002712127050243597 4.748612088397841e-20 -8.114546254412844e-08)
(-0.002712127050243692 3.086887954917909e-19 -8.115146059660265e-08)
(-0.00271212705024359 -8.104518713124326e-22 -8.114513685236475e-08)
(-0.002712127050243707 9.120947781043149e-19 -8.115147032648467e-08)
(-0.002712127050243597 -3.855640534419249e-19 -8.114479367805044e-08)
)
;
    }
    topWall
    {
        type            calculated;
        value           nonuniform List<vector> 
66
(
(-0.00271212705024523 -5.656381754794788e-18 -8.096425740385328e-08)
(-0.002712127050245322 -1.422118140433387e-18 -8.096825060086096e-08)
(-0.002712127050245211 -6.089392661080916e-19 -8.096824007718636e-08)
(-0.002712127050245346 1.257676372548606e-18 -8.096783621382115e-08)
(-0.002712127050245572 4.407232863597442e-18 -8.096794900916528e-08)
(-0.002712127050245199 2.840872096751496e-18 -8.096754330110964e-08)
(-0.002712127050245247 -3.454849113833764e-18 -8.096770494187597e-08)
(-0.002712127050245487 1.037624429109898e-18 -8.096727526210253e-08)
(-0.002712127050245192 3.350700092200619e-18 -8.09674856740811e-08)
(-0.002712127050245266 -4.428840382371059e-19 -8.096702591806183e-08)
(-0.002712127050245467 -1.59553641876713e-18 -8.096728878919677e-08)
(-0.002712127050245217 -7.529823965106121e-19 -8.096679253588221e-08)
(-0.002712127050245305 4.09011036868054e-18 -8.096711189767553e-08)
(-0.002712127050245309 -2.462880973709027e-18 -8.096657192836527e-08)
(-0.002712127050245284 -1.184298462220395e-18 -8.096695244440225e-08)
(-0.002712127050245219 2.332473382574479e-18 -8.096636094122933e-08)
(-0.002712127050245473 8.727206123022537e-19 -8.096680816746989e-08)
(-0.00271212705024529 1.729200412700964e-18 -8.096615674569866e-08)
(-0.002712127050245206 7.979280595637146e-19 -8.096667725638314e-08)
(-0.002712127050245229 -3.79686416304479e-18 -8.096595689351774e-08)
(-0.002712127050245292 -4.010369687994924e-18 -8.096655835282405e-08)
(-0.002712127050245289 1.743680979711869e-19 -8.096575927585391e-08)
(-0.002712127050245273 -7.767534082227667e-19 -8.096645049795934e-08)
(-0.00271212705024521 3.056871409040979e-19 -8.096556205684095e-08)
(-0.002712127050245395 5.562876895694344e-18 -8.09663530716271e-08)
(-0.002712127050245475 2.400894660679796e-19 -8.096536360875905e-08)
(-0.002712127050245164 -1.109776767531396e-18 -8.096626573806758e-08)
(-0.002712127050245125 -1.43872116223002e-18 -8.096516245621322e-08)
(-0.002712127050245215 -1.329019386101213e-18 -8.096618840234672e-08)
(-0.002712127050245213 4.454171054786544e-19 -8.096495723153741e-08)
(-0.002712127050245039 -1.075300536523048e-18 -8.096612117637221e-08)
(-0.002712127050245177 2.000262700443241e-18 -8.096474663883131e-08)
(-0.002712127050245475 2.175054525913132e-18 -8.096606435337524e-08)
(-0.002712127050245379 -1.647116081292203e-18 -8.096452942566304e-08)
(-0.002712127050245267 -1.488820780728035e-18 -8.096601838870994e-08)
(-0.002712127050245467 3.642492664634462e-18 -8.096430435994861e-08)
(-0.002712127050245345 -6.562598390246531e-19 -8.096598388592989e-08)
(-0.002712127050245184 -3.604818967302693e-18 -8.09640702108639e-08)
(-0.002712127050245189 -1.309884508239554e-18 -8.096596158740295e-08)
(-0.0027121270502452 -4.648667531471795e-19 -8.096382573145427e-08)
(-0.002712127050245365 8.68330849555142e-19 -8.096595236881029e-08)
(-0.002712127050245176 1.678376467750484e-18 -8.09635696415837e-08)
(-0.002712127050245396 8.213375859016335e-19 -8.096595723851461e-08)
(-0.002712127050245235 -1.647988825050481e-18 -8.096330060893325e-08)
(-0.002712127050245268 -3.541833923020514e-19 -8.096597734328291e-08)
(-0.002712127050245158 4.888264138397564e-19 -8.096301722545729e-08)
(-0.002712127050245198 -1.645084916336832e-18 -8.096601398169028e-08)
(-0.002712127050245246 -2.100218754107047e-18 -8.096271797580166e-08)
(-0.002712127050245303 2.413026713600903e-18 -8.096606862945485e-08)
(-0.002712127050245225 -1.230036305852117e-18 -8.09624011942155e-08)
(-0.002712127050245215 6.057943234673889e-18 -8.096614297841928e-08)
(-0.002712127050245341 4.131298322724821e-18 -8.096206500940965e-08)
(-0.002712127050245282 -6.00588538466159e-18 -8.096623898645472e-08)
(-0.002712127050245147 -1.152362285258161e-18 -8.096170728485562e-08)
(-0.002712127050245203 -1.202375056218318e-18 -8.096635891775694e-08)
(-0.002712127050245081 1.043699666127031e-18 -8.096132560141303e-08)
(-0.002712127050245331 5.212941875892674e-18 -8.0966505284952e-08)
(-0.002712127050245234 -1.874501782540949e-18 -8.096091744159569e-08)
(-0.002712127050245331 -3.674262606408246e-18 -8.096668039773295e-08)
(-0.002712127050245194 2.36899328375551e-18 -8.096048110195703e-08)
(-0.002712127050245268 3.682712363813185e-18 -8.096688448433058e-08)
(-0.002712127050245371 -1.838093658672238e-18 -8.096001869455094e-08)
(-0.002712127050245073 2.775988145337526e-19 -8.096710710981899e-08)
(-0.002712127050245382 1.86893088024115e-19 -8.095953298042645e-08)
(-0.002712127050245333 -2.937595237180306e-18 -8.096722749233217e-08)
(-0.002712127050245093 5.472607307526611e-19 -8.095855926155344e-08)
)
;
    }
    left
    {
        type            cyclic;
    }
    right
    {
        type            cyclic;
    }
}


// ************************************************************************* //
