/*--------------------------------*- C++ -*----------------------------------*\
| =========                 |                                                 |
| \\      /  F ield         | OpenFOAM: The Open Source CFD Toolbox           |
|  \\    /   O peration     | Version:  v1812                                 |
|   \\  /    A nd           | Web:      www.OpenFOAM.com                      |
|    \\/     M anipulation  |                                                 |
\*---------------------------------------------------------------------------*/
FoamFile
{
    version     2.0;
    format      ascii;
    class       volScalarField;
    location    "20000";
    object      nut;
}
// * * * * * * * * * * * * * * * * * * * * * * * * * * * * * * * * * * * * * //

dimensions      [0 2 -1 0 0 0 0];


internalField   nonuniform List<scalar> 
3770
(
0.0001428336055435529
0.0001428336055416803
0.0001428336055417811
0.0001428336055441735
0.0001428336055423983
0.0001428336055425004
0.0001428336055427701
0.0001428336055437488
0.0001428336055424697
0.0001428336055390397
0.0001428336055435535
0.0001428336055414523
0.0001428336055415924
0.0001428336055434938
0.000142833605541879
0.0001428336055415801
0.0001428336055421667
0.0001428336055392997
0.000142833605545651
0.0001428336055434818
0.0001428336055416183
0.0001428336055412345
0.0001428336055431517
0.0001428336055381768
0.0001428336055447299
0.0001428336055435371
0.0001428336055416089
0.0001428336055422679
0.0001428336055432713
0.0001428336055413899
0.0001428336055420753
0.0001428336055432094
0.00014283360554181
0.0001428336055408704
0.0001428336055434853
0.0001428336055414436
0.0001428336055421348
0.0001428336055432609
0.0001428336055416908
0.0001428336055411672
0.0001428336055433259
0.0001428336055413165
0.0001428336055419834
0.0001428336055430236
0.0001428336055414232
0.0001428336055422357
0.0001428336055429896
0.0001428336055382926
0.0001428336055442705
0.0001428336055435581
0.0001428336055410669
0.0001428336055406916
0.0001428336055423035
0.0001428336055387515
0.0001428336055420044
0.0001428336055395227
0.0001428336055377295
0.0001428336055385508
2.355497184382018e-05
2.355497189022723e-05
2.355497181768694e-05
2.355497181920642e-05
2.355497191200707e-05
2.355497189175248e-05
2.35549718709589e-05
2.355497183420358e-05
2.355497182468634e-05
2.355497185321688e-05
2.355497184573096e-05
2.355497189009004e-05
2.355497180745728e-05
2.355497180926929e-05
2.3554971881955e-05
2.355497184337634e-05
2.355497182309166e-05
2.355497187258406e-05
2.355497182901277e-05
2.355497181560457e-05
2.355497188082591e-05
2.355497179765285e-05
2.355497182436092e-05
2.355497187824327e-05
2.355497182427279e-05
2.355497181212114e-05
2.355497187404667e-05
2.3554971821962e-05
2.355497183878547e-05
2.355497188708267e-05
2.355497180269361e-05
2.35549718170139e-05
2.355497189553098e-05
2.355497180173703e-05
2.355497182213348e-05
2.355497188153649e-05
2.355497179801392e-05
2.355497181448174e-05
2.355497188078663e-05
2.355497179721867e-05
2.35549718229642e-05
2.355497188323074e-05
2.355497180353725e-05
2.355497181590117e-05
2.355497187465128e-05
2.355497181626704e-05
2.355497183524516e-05
2.355497188233519e-05
2.355497182922042e-05
2.355497182091459e-05
2.355497188709546e-05
2.355497181980589e-05
2.355497183700221e-05
2.355497189367488e-05
2.355497186101541e-05
2.35549718656956e-05
2.35549719354346e-05
2.355497184007683e-05
8.872868598818593e-05
8.872868649383902e-05
8.87286857117784e-05
8.872868578693167e-05
8.872868678571511e-05
8.872868634543592e-05
8.872868617798891e-05
8.872868592005011e-05
8.872868581601038e-05
8.872868624304363e-05
8.872868618260742e-05
8.872868650922415e-05
8.872868561763554e-05
8.872868571644684e-05
8.872868650823121e-05
8.872868596740745e-05
8.872868572382361e-05
8.872868640709183e-05
8.87286858992219e-05
8.872868566807221e-05
8.872868659466423e-05
8.872868558158369e-05
8.872868585279939e-05
8.87286864460873e-05
8.872868583339363e-05
8.872868564211785e-05
8.872868652109177e-05
8.872868574594185e-05
8.872868587357234e-05
8.872868651939562e-05
8.872868558799589e-05
8.87286857785295e-05
8.872868658929866e-05
8.872868555684643e-05
8.872868583474015e-05
8.872868649808571e-05
8.872868555046195e-05
8.872868577169192e-05
8.872868655367586e-05
8.87286855444766e-05
8.872868583743224e-05
8.872868649085866e-05
8.872868561575888e-05
8.872868578556069e-05
8.872868652818464e-05
8.872868567295332e-05
8.872868583871296e-05
8.872868648233319e-05
8.872868587015881e-05
8.872868569705027e-05
8.872868657842102e-05
8.872868579991682e-05
8.872868596111462e-05
8.87286866302317e-05
8.87286861484327e-05
8.872868604922419e-05
8.872868692744553e-05
8.872868595886029e-05
0.00022392333459276
0.0002239233363221959
0.0002239233338721332
0.0002239233344249219
0.0002239233372136792
0.0002239233360118927
0.0002239233348149298
0.0002239233343957367
0.0002239233345527085
0.0002239233356594379
0.0002239233353626156
0.0002239233363063992
0.0002239233335311902
0.0002239233340729021
0.0002239233361956449
0.0002239233344391792
0.0002239233339660905
0.0002239233360980766
0.000223923334227548
0.0002239233339398595
0.0002239233363183007
0.0002239233337702964
0.0002239233342731468
0.0002239233361962365
0.0002239233340098308
0.0002239233339001174
0.0002239233362106508
0.0002239233339511431
0.0002239233343150244
0.0002239233363014733
0.0002239233335442823
0.0002239233341902354
0.0002239233363554015
0.0002239233335780932
0.0002239233342325062
0.0002239233362406056
0.0002239233334428701
0.0002239233341615463
0.0002239233362683568
0.0002239233335526746
0.0002239233342435402
0.0002239233361666659
0.0002239233338154031
0.0002239233342085646
0.0002239233361979762
0.0002239233340720545
0.0002239233342946661
0.0002239233363289184
0.0002239233341807716
0.0002239233340494715
0.0002239233363121141
0.0002239233347136082
0.0002239233345982241
0.0002239233366733183
0.0002239233348992885
0.0002239233348363469
0.000223923337022449
0.0002239233349174026
0.0003820203035083308
0.0003820203061643639
0.0003820203023788213
0.000382020303315172
0.0003820203076648516
0.0003820203051166183
0.0003820203032445689
0.000382020302715141
0.0003820203025979264
0.0003820203050870467
0.0003820203046559709
0.0003820203060001681
0.0003820203017262505
0.0003820203025917542
0.0003820203058261469
0.0003820203027371554
0.0003820203025102237
0.0003820203057782537
0.0003820203025775467
0.0003820203024869029
0.0003820203057825831
0.0003820203026267257
0.0003820203027599536
0.0003820203058740696
0.0003820203023204001
0.000382020302487562
0.0003820203058656773
0.0003820203021955324
0.0003820203028356478
0.000382020305965418
0.0003820203018913493
0.0003820203027105365
0.0003820203059665865
0.0003820203019169324
0.000382020302718348
0.0003820203058819971
0.000382020301714218
0.0003820203026451556
0.0003820203058112469
0.0003820203020006137
0.0003820203027352064
0.0003820203056723604
0.0003820203026439355
0.0003820203027425626
0.0003820203057572307
0.0003820203028197477
0.0003820203028764146
0.000382020306161178
0.0003820203025077498
0.0003820203027440293
0.0003820203060698931
0.0003820203031922881
0.00038202030319113
0.0003820203065887025
0.0003820203035170165
0.0003820203037588424
0.0003820203069810117
0.0003820203036254696
0.0005409091171960672
0.0005409091205142728
0.0005409091158115961
0.0005409091168374729
0.0005409091221609412
0.0005409091186714344
0.0005409091169604779
0.0005409091154631598
0.0005409091155409985
0.0005409091191999627
0.0005409091181713817
0.0005409091200933331
0.0005409091149007481
0.000540909115839852
0.0005409091199388797
0.0005409091155315897
0.0005409091159263201
0.0005409091199660614
0.000540909115542548
0.0005409091159195405
0.0005409091198478508
0.0005409091158510394
0.0005409091160028879
0.0005409091199702439
0.0005409091155440943
0.000540909115939769
0.0005409091200327249
0.0005409091151889883
0.0005409091160282975
0.0005409091200221668
0.0005409091152557603
0.0005409091159013419
0.0005409091199544108
0.0005409091152202371
0.0005409091158851089
0.0005409091199559222
0.0005409091150249627
0.0005409091157986898
0.0005409091196714535
0.0005409091158302207
0.0005409091159468951
0.0005409091197144649
0.000540909116104735
0.0005409091159737924
0.0005409091197810157
0.0005409091163693382
0.0005409091161487266
0.0005409091204305111
0.0005409091155277778
0.0005409091162518973
0.0005409091203017541
0.0005409091162565731
0.0005409091166866044
0.0005409091208322359
0.0005409091166034979
0.0005409091173261268
0.0005409091212309809
0.000540909117017402
0.0006929701828189855
0.0006929701866545381
0.0006929701813842274
0.0006929701821627967
0.0006929701878806285
0.0006929701845666993
0.0006929701836114738
0.0006929701800562915
0.0006929701806249095
0.0006929701850609952
0.0006929701837772842
0.0006929701858825032
0.0006929701802480814
0.0006929701810233091
0.0006929701858324662
0.0006929701802110119
0.0006929701813591108
0.0006929701859190442
0.000692970180423824
0.0006929701813713521
0.0006929701858329302
0.000692970180653282
0.0006929701814022247
0.000692970185826067
0.0006929701807832214
0.0006929701813916983
0.000692970185879758
0.0006929701805307565
0.0006929701811392203
0.0006929701858011633
0.000692970180668472
0.0006929701810312151
0.0006929701856597705
0.0006929701806089226
0.0006929701809967046
0.0006929701857607548
0.0006929701804857998
0.0006929701808806048
0.00069297018532926
0.0006929701817677321
0.0006929701811215373
0.0006929701856387882
0.0006929701811644861
0.0006929701811207949
0.0006929701855879062
0.0006929701818505425
0.0006929701813221753
0.0006929701863780175
0.0006929701805555621
0.0006929701816886866
0.0006929701861463814
0.0006929701814675494
0.000692970182098909
0.000692970186636719
0.0006929701817992175
0.0006929701827467113
0.0006929701870766032
0.0006929701824636137
0.0008382010456432287
0.0008382010500073029
0.0008382010445144945
0.0008382010447524657
0.00083820105072155
0.0008382010473683921
0.0008382010466325161
0.0008382010424068985
0.0008382010431901476
0.0008382010481330795
0.0008382010468564515
0.0008382010488009187
0.0008382010430451642
0.0008382010434855447
0.0008382010488369282
0.0008382010425171611
0.0008382010441085646
0.0008382010489718527
0.0008382010427387244
0.0008382010440977544
0.0008382010488005
0.0008382010433603742
0.0008382010440529382
0.0008382010488830268
0.0008382010433227538
0.0008382010441831459
0.0008382010489024507
0.0008382010432473074
0.0008382010435803794
0.0008382010489533373
0.0008382010429826458
0.0008382010438890939
0.000838201048690634
0.0008382010431255046
0.0008382010438113461
0.0008382010487546577
0.000838201043211784
0.0008382010433380026
0.0008382010482854899
0.0008382010447221429
0.0008382010435972617
0.0008382010488022856
0.000838201043436174
0.0008382010435230507
0.0008382010486083715
0.0008382010446676526
0.0008382010437570204
0.0008382010494470487
0.0008382010429023768
0.0008382010443865281
0.0008382010489917836
0.0008382010443516686
0.0008382010446851865
0.0008382010495436551
0.0008382010444350614
0.0008382010453831319
0.0008382010499293135
0.0008382010455245506
0.0009803324260938128
0.0009803324314745991
0.0009803324262292745
0.0009803324255025227
0.0009803324314025456
0.0009803324283524679
0.0009803324277996414
0.0009803324231477809
0.0009803324241073553
0.0009803324294338914
0.0009803324283914647
0.0009803324298692602
0.0009803324239641012
0.0009803324241251777
0.0009803324299456481
0.0009803324232913568
0.0009803324250417089
0.0009803324298985111
0.0009803324240716951
0.000980332424909204
0.000980332429555942
0.0009803324255285492
0.0009803324243368051
0.0009803324301302597
0.0009803324239911597
0.0009803324252378822
0.0009803324300772041
0.0009803324241569897
0.0009803324242921689
0.0009803324304525783
0.0009803324230749943
0.0009803324250560062
0.0009803324302114194
0.0009803324230321668
0.0009803324249059526
0.0009803324302215947
0.0009803324233084254
0.0009803324246332834
0.0009803324294503934
0.000980332425669116
0.0009803324242344232
0.0009803324299629851
0.0009803324244009219
0.0009803324241158748
0.0009803324297681499
0.0009803324257515675
0.0009803324243912626
0.0009803324306467806
0.0009803324234017184
0.00098033242532449
0.0009803324300604696
0.0009803324249980912
0.000980332424857159
0.0009803324306613735
0.0009803324249913743
0.0009803324262104888
0.0009803324309193995
0.0009803324266037172
0.001125248867777836
0.00112524887376551
0.001125248869090676
0.001125248867080802
0.001125248872332423
0.001125248871292247
0.001125248871224014
0.001125248865364912
0.001125248866015067
0.001125248871802782
0.001125248871017452
0.001125248871841264
0.001125248865735726
0.00112524886566928
0.001125248871809861
0.001125248865717797
0.001125248866832989
0.001125248871986424
0.001125248865883853
0.001125248865897125
0.001125248871660477
0.001125248867258745
0.00112524886584774
0.001125248872393995
0.001125248865385978
0.001125248867328114
0.001125248872192453
0.001125248866053193
0.001125248865981644
0.001125248872795004
0.001125248864254794
0.001125248867195019
0.001125248872485392
0.001125248864264119
0.001125248867004265
0.001125248872620775
0.001125248864345078
0.001125248866790922
0.001125248871601769
0.001125248867376645
0.001125248865758485
0.001125248871865823
0.001125248866782951
0.001125248865815326
0.001125248871897038
0.001125248867497261
0.001125248866147926
0.001125248872820053
0.001125248864660227
0.001125248867305008
0.001125248872175394
0.00112524886624537
0.00112524886626464
0.001125248872794679
0.001125248866054227
0.001125248868045944
0.001125248872921631
0.001125248868246919
0.001280441095644367
0.001280441103023788
0.001280441094116794
0.001280441095158175
0.001280441099516662
0.001280441099065349
0.001280441099601776
0.001280441093703986
0.001280441092903924
0.001280441100325441
0.00128044109907138
0.001280441099562571
0.001280441093649871
0.001280441093162604
0.001280441099630838
0.001280441094644322
0.001280441093461609
0.001280441100130355
0.001280441093802279
0.001280441093330876
0.001280441099823495
0.001280441094765345
0.001280441093426021
0.001280441100669975
0.001280441092547224
0.001280441095496681
0.001280441100291128
0.001280441094113145
0.001280441093567367
0.001280441100976425
0.001280441091587953
0.001280441095280085
0.001280441100548507
0.001280441091794668
0.001280441094934594
0.001280441100903589
0.001280441091287111
0.001280441094964457
0.001280441099798782
0.001280441094906215
0.001280441093264831
0.00128044110012277
0.001280441093608026
0.001280441094953226
0.001280441100690493
0.001280441092486097
0.001280441095213747
0.001280441100966246
0.001280441091712738
0.001280441095334063
0.001280441100141127
0.001280441093973403
0.001280441093672176
0.00128044110090063
0.00128044109278956
0.00128044109591139
0.00128044110077666
0.001280441096359024
0.001454897778806819
0.001454897786279455
0.001454897779018262
0.001454897777350501
0.001454897782295589
0.001454897781846917
0.001454897783137314
0.001454897777619829
0.001454897776474673
0.001454897784333258
0.001454897781897292
0.001454897782194153
0.001454897777564602
0.001454897776297624
0.001454897783317084
0.001454897777728379
0.001454897776448844
0.001454897783679146
0.001454897777532774
0.001454897776528133
0.001454897783450211
0.001454897777850399
0.001454897776588565
0.001454897784474926
0.001454897775225277
0.001454897779331345
0.001454897783950753
0.001454897778076683
0.001454897776632736
0.001454897784369298
0.001454897775303273
0.001454897778721599
0.001454897783583262
0.001454897777277098
0.001454897776696067
0.001454897784597989
0.001454897773883489
0.001454897778863602
0.001454897783455776
0.001454897778023401
0.001454897776327952
0.001454897783768341
0.001454897776774269
0.00145489777871575
0.001454897784458623
0.001454897774417856
0.001454897779188301
0.001454897784576737
0.001454897774384137
0.00145489777901986
0.001454897783626549
0.001454897777702099
0.001454897776589568
0.001454897784432171
0.001454897775253896
0.001454897779460852
0.001454897784271893
0.001454897779706785
0.00165993371173013
0.00165993371916277
0.001659933712361161
0.00165993371399429
0.001659933715421697
0.001659933714335869
0.00165993371736235
0.001659933708320108
0.001659933712550524
0.001659933718048744
0.001659933713117452
0.001659933713713634
0.001659933711689271
0.001659933709191812
0.00165993371651989
0.001659933711158783
0.00165993370979718
0.001659933716904169
0.001659933711412036
0.00165993370998166
0.001659933716658159
0.001659933711311779
0.001659933709978407
0.001659933717713146
0.001659933709198692
0.001659933713034598
0.00165993371735202
0.001659933712416903
0.001659933709818739
0.001659933717154638
0.001659933711279557
0.001659933710320535
0.001659933716918256
0.001659933711899242
0.001659933709651953
0.00165993371784248
0.001659933707401082
0.001659933712555325
0.001659933716624606
0.001659933711491754
0.001659933709726677
0.00165993371676339
0.00165993371220557
0.001659933709925108
0.00165993371756021
0.00165993370756826
0.001659933712605176
0.001659933717483841
0.001659933708635649
0.001659933712625755
0.001659933716882299
0.001659933711831609
0.001659933709597719
0.001659933717272702
0.001659933709491587
0.001659933712942702
0.001659933717477785
0.001659933713021967
0.001913904431465434
0.0019139044378038
0.001913904432540967
0.001913904435022793
0.001913904435296204
0.001913904435050233
0.001913904437096147
0.001913904428729954
0.001913904433469513
0.001913904437260652
0.001913904432841984
0.001913904434417418
0.001913904432147857
0.001913904428449736
0.001913904436527467
0.001913904428653475
0.001913904432490992
0.001913904436589919
0.001913904430379174
0.001913904432923471
0.00191390443664874
0.001913904428823686
0.001913904432638732
0.001913904436525516
0.001913904432796029
0.001913904430990368
0.001913904436638997
0.00191390443348498
0.001913904430112696
0.001913904436534084
0.001913904432552385
0.001913904430750506
0.00191390443620225
0.001913904432990411
0.001913904429933154
0.001913904436303503
0.001913904432116682
0.001913904430638727
0.001913904436696406
0.001913904428384922
0.001913904432598396
0.001913904436165136
0.00191390443249674
0.001913904429862212
0.001913904435759465
0.001913904431889342
0.001913904430264565
0.001913904436113646
0.00191390443223171
0.00191390443066519
0.001913904436128942
0.001913904432819951
0.001913904429871056
0.001913904436106649
0.001913904432350124
0.001913904430837991
0.001913904436516221
0.001913904433315071
0.002267259205481359
0.002267259207409082
0.002267259205991745
0.002267259205530051
0.002267259206763449
0.002267259206910529
0.002267259207609507
0.002267259202974226
0.002267259205836738
0.002267259207313618
0.002267259204925825
0.00226725920530886
0.002267259205037365
0.002267259203146238
0.002267259206436684
0.002267259204746168
0.002267259203838575
0.002267259206595235
0.002267259204752973
0.002267259203880821
0.002267259206460608
0.00226725920471604
0.002267259204009235
0.00226725920685734
0.002267259205293243
0.0022672592040181
0.00226725920695766
0.002267259205521544
0.002267259203832381
0.002267259206653929
0.002267259204932852
0.002267259203847962
0.002267259206461684
0.002267259204865721
0.002267259204489085
0.002267259206581642
0.002267259206056181
0.002267259203677886
0.002267259206767113
0.00226725920228921
0.002267259205021562
0.002267259206365904
0.002267259203517902
0.002267259204414003
0.002267259206163981
0.002267259204583712
0.002267259204759885
0.002267259206344274
0.002267259204850539
0.002267259204481294
0.002267259206487672
0.002267259204959742
0.002267259204433809
0.002267259206520372
0.00226725920528564
0.002267259204489913
0.002267259207002788
0.002267259205529457
0.002778661230738273
0.002778661231349519
0.002778661230964646
0.002778661230719284
0.002778661231344156
0.002778661231222765
0.002778661231547162
0.002778661230222591
0.002778661230881852
0.002778661231368528
0.00277866123056351
0.002778661230455767
0.002778661230356899
0.002778661229941618
0.002778661230379378
0.002778661230655912
0.002778661230123824
0.00277866123049162
0.002778661230549749
0.002778661230418733
0.002778661230503948
0.002778661230275904
0.002778661230057033
0.002778661230535747
0.002778661230583362
0.002778661230403082
0.002778661230540166
0.00277866123068115
0.00277866123030791
0.002778661230034032
0.002778661229989962
0.002778661230064509
0.002778661230242962
0.0027786612304321
0.002778661229622901
0.002778661230070416
0.002778661230483652
0.002778661229900849
0.002778661230088222
0.002778661229427203
0.00277866122985966
0.002778661229927657
0.002778661229743095
0.002778661229895785
0.002778661229882503
0.002778661229816101
0.002778661230211215
0.002778661229643959
0.002778661230335298
0.002778661230379197
0.002778661229988479
0.002778661230368352
0.00277866123037407
0.002778661229971485
0.002778661230410761
0.002778661230603935
0.002778661230704678
0.002778661230525507
0.003437713726036325
0.003437713726691095
0.003437713726687354
0.003437713726862185
0.003437713726822397
0.003437713726148148
0.003437713727209195
0.003437713726788339
0.003437713726090157
0.003437713726764463
0.003437713727120903
0.003437713725327716
0.003437713727519354
0.003437713726346973
0.003437713725648836
0.003437713726362917
0.003437713726971693
0.003437713725601215
0.003437713726197518
0.003437713726747037
0.003437713725147601
0.003437713727320722
0.003437713725907597
0.003437713725034795
0.003437713726946699
0.003437713726039368
0.003437713725137692
0.003437713726969539
0.003437713725809366
0.003437713725085906
0.003437713726019421
0.003437713726416139
0.003437713724860366
0.003437713726688073
0.003437713725512967
0.003437713724966227
0.003437713725877276
0.003437713726138288
0.003437713724424039
0.003437713726503926
0.003437713725266101
0.003437713724371194
0.003437713726545773
0.003437713725352723
0.003437713724494552
0.003437713726663105
0.00343771372554369
0.003437713724510661
0.003437713726971093
0.003437713725731561
0.003437713724984561
0.003437713726029486
0.003437713726312043
0.003437713724949099
0.003437713726036676
0.003437713726719813
0.003437713725358375
0.003437713726395036
0.004236971795417478
0.004236971798721464
0.004236971798328155
0.004236971799366332
0.004236971797076142
0.00423697179631976
0.004236971797485997
0.004236971798802808
0.004236971796162428
0.00423697179766703
0.004236971798400064
0.004236971795091045
0.004236971799285937
0.004236971796945087
0.004236971795679177
0.004236971797274179
0.004236971798219664
0.004236971795518824
0.004236971797006841
0.004236971797627775
0.004236971794904311
0.004236971798879949
0.004236971796514795
0.004236971795032889
0.004236971796412783
0.004236971797552555
0.004236971794597187
0.004236971798571867
0.004236971796041902
0.004236971794892348
0.004236971796723749
0.00423697179737633
0.004236971794524935
0.004236971797568259
0.004236971795763696
0.004236971794647166
0.004236971796216428
0.004236971797051623
0.004236971793838079
0.004236971797690434
0.004236971795638981
0.004236971793981162
0.004236971797260065
0.004236971795643502
0.004236971794350918
0.004236971796150875
0.004236971796978631
0.004236971793904715
0.004236971798319998
0.004236971795696659
0.004236971794083009
0.004236971798100848
0.004236971796068431
0.004236971794603688
0.004236971796424198
0.004236971797758031
0.004236971794952274
0.004236971796345508
0.005150874157048793
0.005150874157807002
0.005150874157202429
0.005150874161644
0.005150874159025681
0.005150874157082953
0.005150874160120119
0.005150874158803206
0.005150874156389268
0.005150874161671421
0.005150874158338436
0.005150874155935225
0.005150874161543261
0.005150874157948966
0.005150874155879639
0.005150874161180075
0.005150874158223326
0.00515087415623859
0.005150874158209594
0.005150874159603984
0.005150874156163237
0.005150874158235775
0.005150874159117565
0.005150874155073197
0.005150874160276609
0.005150874157174522
0.005150874154913819
0.0051508741604779
0.005150874156980526
0.005150874155001445
0.00515087415982379
0.005150874156896535
0.005150874154631322
0.005150874160122227
0.005150874156806779
0.005150874154952088
0.00515087415841582
0.005150874156891233
0.00515087415478755
0.005150874156518601
0.005150874158117135
0.005150874154683687
0.005150874156741888
0.005150874157986846
0.005150874154693334
0.005150874156776295
0.005150874158085819
0.005150874154363907
0.005150874158990864
0.005150874156569953
0.005150874154861112
0.005150874157229469
0.005150874158352496
0.005150874155098932
0.005150874157434828
0.005150874159161879
0.005150874155432834
0.005150874156671142
0.006158548508074054
0.006158548506168624
0.006158548505947924
0.006158548508413474
0.006158548509718279
0.006158548506099038
0.006158548508065105
0.006158548509455904
0.006158548504998707
0.006158548511038517
0.006158548507141901
0.006158548504710568
0.006158548510786779
0.006158548506750611
0.006158548504453742
0.006158548510482063
0.006158548506893256
0.00615854850483629
0.006158548506999094
0.006158548508621363
0.006158548504744523
0.006158548506566066
0.006158548508262796
0.006158548503575051
0.006158548509396995
0.006158548505818203
0.006158548503338438
0.006158548509337209
0.006158548505583893
0.006158548503140267
0.006158548509240256
0.006158548505297681
0.006158548502979768
0.006158548509018465
0.006158548505429743
0.006158548503541961
0.006158548506099419
0.00615854850675225
0.006158548502445716
0.006158548508029162
0.006158548505090968
0.006158548502810412
0.006158548504956811
0.006158548506691135
0.006158548502789454
0.006158548504900842
0.006158548506866729
0.006158548502838973
0.006158548505168652
0.00615854850656901
0.006158548502868233
0.006158548505081855
0.006158548507045967
0.00615854850322141
0.00615854850601574
0.006158548507297782
0.006158548502833812
0.006158548507128324
0.007241395988704257
0.007241395987469754
0.007241395985752302
0.007241395991298439
0.007241395988604162
0.007241395987047879
0.007241395988192153
0.007241395990291449
0.007241395985872494
0.007241395991546881
0.007241395987856485
0.007241395985707885
0.00724139599118843
0.007241395987444118
0.007241395985362443
0.007241395990727219
0.007241395987437415
0.007241395985516946
0.007241395987620151
0.007241395988919385
0.007241395985513301
0.007241395986706962
0.007241395988958154
0.007241395984771159
0.007241395987118259
0.007241395988002583
0.007241395984101968
0.007241395989357955
0.007241395986115307
0.007241395983679367
0.007241395989519018
0.007241395985646941
0.007241395983639318
0.00724139598888868
0.007241395985659387
0.007241395983388764
0.007241395988604375
0.007241395985269842
0.007241395982879969
0.007241395987992185
0.007241395985166678
0.007241395983008788
0.007241395984920724
0.007241395986814136
0.007241395982991456
0.007241395984624637
0.00724139598692639
0.007241395982806987
0.007241395984753065
0.007241395986659247
0.007241395982877676
0.007241395984632449
0.007241395986950754
0.007241395982488042
0.007241395988194693
0.007241395985049472
0.007241395982605775
0.00724139598784116
0.008330497495206556
0.008330497497183998
0.008330497494627928
0.008330497498672783
0.008330497496460648
0.008330497495717345
0.008330497496485645
0.00833049749657601
0.008330497495069969
0.008330497498303431
0.008330497496016111
0.008330497495273781
0.008330497496785353
0.008330497496498557
0.008330497494453717
0.008330497497464754
0.008330497495283347
0.008330497494102144
0.008330497496867741
0.008330497495381993
0.008330497494315206
0.008330497494958291
0.008330497495796245
0.008330497493397109
0.008330497494671794
0.008330497494582343
0.008330497493236722
0.008330497496025335
0.008330497494333029
0.00833049749301432
0.008330497496193396
0.008330497493979898
0.008330497492862292
0.008330497495544237
0.008330497493803714
0.008330497492660136
0.008330497495726383
0.008330497493410341
0.00833049749223418
0.008330497493293162
0.008330497494186411
0.008330497491820058
0.008330497493096823
0.008330497494145286
0.008330497491786533
0.008330497492872858
0.008330497494156767
0.00833049749169683
0.008330497492995841
0.008330497494060937
0.008330497491746056
0.008330497492984956
0.008330497494362522
0.008330497491663574
0.008330497495403207
0.008330497493210317
0.008330497492042234
0.008330497495539917
0.009349035508256687
0.009349035508703711
0.009349035508391491
0.009349035509839272
0.009349035508495702
0.009349035508835349
0.009349035509289862
0.009349035508495866
0.009349035508834863
0.009349035509531476
0.009349035508676284
0.009349035508602395
0.009349035509139366
0.0093490355081275
0.009349035508056987
0.009349035508834891
0.009349035507790109
0.009349035507766482
0.009349035508799506
0.009349035507532926
0.009349035507656533
0.009349035507986214
0.009349035507081729
0.009349035506712775
0.009349035507356919
0.009349035507382681
0.009349035507212951
0.009349035506969335
0.009349035507128022
0.009349035507223279
0.009349035507216691
0.009349035506885933
0.009349035506947949
0.009349035506692966
0.009349035506547183
0.009349035507045527
0.009349035507140694
0.009349035506359226
0.009349035505450508
0.009349035506084536
0.009349035506296807
0.009349035505120989
0.009349035505957722
0.009349035506308584
0.009349035505130457
0.009349035505781852
0.009349035506205005
0.00934903550536975
0.009349035505887119
0.009349035506273829
0.009349035505282918
0.0093490355059807
0.009349035506651433
0.009349035505484972
0.009349035506981912
0.009349035506771649
0.009349035506235712
0.009349035507656383
0.01028200561896765
0.01028200561791973
0.01028200561847239
0.01028200562039991
0.01028200561733814
0.0102820056188732
0.01028200562036049
0.01028200561730104
0.01028200561876155
0.01028200561997247
0.01028200561891199
0.01028200561782157
0.01028200561984063
0.01028200561770661
0.01028200561805032
0.01028200561922392
0.01028200561766108
0.01028200561792041
0.01028200561977382
0.01028200561640688
0.01028200561783043
0.01028200561893377
0.01028200561651819
0.01028200561713405
0.01028200561764335
0.01028200561792342
0.01028200561852168
0.01028200561562414
0.01028200561731817
0.01028200561877054
0.01028200561606859
0.01028200561718813
0.01028200561816161
0.01028200561647349
0.01028200561585129
0.01028200561844788
0.0102820056165634