/*--------------------------------*- C++ -*----------------------------------*\
| =========                 |                                                 |
| \\      /  F ield         | OpenFOAM: The Open Source CFD Toolbox           |
|  \\    /   O peration     | Version:  v1812                                 |
|   \\  /    A nd           | Web:      www.OpenFOAM.com                      |
|    \\/     M anipulation  |                                                 |
\*---------------------------------------------------------------------------*/
FoamFile
{
    version     2.0;
    format      ascii;
    class       volScalarField;
    location    "20000";
    object      nuTilda_0;
}
// * * * * * * * * * * * * * * * * * * * * * * * * * * * * * * * * * * * * * //

dimensions      [0 2 -1 0 0 0 0];


internalField   nonuniform List<scalar> 
3770
(
0.0004779508472261874
0.0004779508472267762
0.0004779508472208234
0.000477950847225751
0.0004779508472233435
0.0004779508472263109
0.0004779508472256707
0.0004779508472290153
0.0004779508472240723
0.0004779508472195366
0.0004779508472261532
0.0004779508472266251
0.0004779508472205691
0.0004779508472250913
0.0004779508472226702
0.0004779508472264308
0.0004779508472234049
0.0004779508472187046
0.0004779508472315699
0.0004779508472265037
0.0004779508472252658
0.0004779508472195517
0.0004779508472246059
0.000477950847217083
0.0004779508472301863
0.0004779508472263622
0.0004779508472246952
0.0004779508472230975
0.0004779508472265797
0.0004779508472263751
0.0004779508472210819
0.0004779508472255377
0.000477950847226975
0.0004779508472196942
0.0004779508472257184
0.0004779508472260687
0.000477950847221093
0.0004779508472254529
0.0004779508472257448
0.0004779508472198233
0.0004779508472255757
0.0004779508472259133
0.0004779508472207199
0.000477950847225118
0.0004779508472246664
0.0004779508472224594
0.0004779508472254737
0.0004779508472172373
0.0004779508472296914
0.0004779508472268056
0.0004779508472245734
0.0004779508472188651
0.0004779508472243261
0.0004779508472192596
0.0004779508472270947
0.0004779508472220269
0.0004779508472215963
0.0004779508472165985
0.0002847888859426292
0.0002847888861154366
0.0002847888858259457
0.0002847888858426303
0.0002847888861109218
0.0002847888860985858
0.0002847888860230366
0.0002847888859344332
0.0002847888858777464
0.0002847888859712434
0.0002847888859347397
0.0002847888861168777
0.0002847888857950095
0.0002847888858174625
0.0002847888860286274
0.0002847888859829219
0.0002847888858698178
0.0002847888860023947
0.0002847888859213052
0.0002847888858538465
0.0002847888860701633
0.0002847888857519585
0.0002847888858701592
0.0002847888860240339
0.0002847888859106212
0.0002847888858401573
0.0002847888860427666
0.0002847888858480581
0.0002847888859373035
0.0002847888861027992
0.0002847888857763993
0.0002847888858543798
0.000284788886131975
0.0002847888857782815
0.0002847888858703921
0.0002847888860824323
0.000284788885760999
0.0002847888858455251
0.0002847888860749576
0.0002847888857595191
0.0002847888858746748
0.0002847888860879555
0.000284788885774443
0.0002847888858521621
0.0002847888860470818
0.0002847888858235674
0.0002847888859151708
0.0002847888860366587
0.0002847888859281093
0.0002847888858721362
0.0002847888860886776
0.0002847888858241097
0.0002847888859157002
0.0002847888860824538
0.0002847888860307913
0.0002847888860202526
0.000284788886253914
0.0002847888858950469
0.000412515533429115
0.0004125155341328839
0.0004125155327429378
0.0004125155331099958
0.0004125155342751383
0.000412515533995039
0.0004125155336717347
0.000412515533427968
0.0004125155330025136
0.0004125155336902465
0.0004125155335386198
0.0004125155341635791
0.0004125155326208704
0.0004125155330362226
0.0004125155339450461
0.0004125155335875703
0.0004125155328414905
0.0004125155338142859
0.000412515533439855
0.0004125155328081383
0.0004125155342635561
0.000412515532543318
0.0004125155332405507
0.0004125155338804642
0.0004125155333552603
0.0004125155327597034
0.0004125155341409108
0.0004125155328450836
0.0004125155333037111
0.000412515534168186
0.0004125155325692516
0.0004125155331649556
0.0004125155342710163
0.0004125155325446403
0.0004125155332392069
0.0004125155341389485
0.0004125155325190302
0.000412515533156924
0.0004125155342185733
0.0004125155325177218
0.0004125155332487303
0.0004125155341206042
0.0004125155325897854
0.0004125155331830215
0.0004125155341620771
0.000412515532685511
0.0004125155332177079
0.0004125155339271315
0.0004125155334168288
0.0004125155328402373
0.0004125155342196098
0.0004125155328687276
0.0004125155333945978
0.0004125155341319502
0.0004125155337859158
0.0004125155333324399
0.0004125155347042239
0.0004125155331170126
0.0005565899835423004
0.0005565899854032752
0.0005565899826462691
0.0005565899837281205
0.0005565899857956738
0.0005565899855361537
0.0005565899838351884
0.0005565899836935379
0.0005565899836439677
0.000556589984635953
0.0005565899842550013
0.0005565899854096717
0.000556589982353388
0.000556589983446802
0.0005565899849332933
0.00055658998411163
0.0005565899828430334
0.000556589984856704
0.0005565899838662935
0.0005565899828884888
0.0005565899853616247
0.0005565899825460606
0.000556589983655265
0.0005565899849825019
0.000556589983641108
0.0005565899828400638
0.0005565899852525652
0.0005565899828012394
0.0005565899837422437
0.0005565899853884167
0.0005565899823350654
0.000556589983626368
0.0005565899854403261
0.0005565899823984329
0.0005565899836624513
0.000556589985333631
0.0005565899822582612
0.000556589983598968
0.0005565899853531349
0.0005565899823532718
0.0005565899836743968
0.0005565899852302244
0.0005565899825766761
0.0005565899836551165
0.0005565899852378809
0.000556589982850196
0.0005565899836655517
0.0005565899850863879
0.0005565899838347898
0.000556589982965287
0.0005565899852744084
0.0005565899836577671
0.0005565899838800376
0.0005565899853834892
0.0005565899844559914
0.0005565899836632912
0.0005565899858093132
0.0005565899841091268
0.0006856352352715387
0.0006856352378931746
0.0006856352341083459
0.0006856352357672053
0.0006856352385329054
0.0006856352376034073
0.0006856352357670762
0.0006856352349147658
0.0006856352351720265
0.0006856352367656009
0.0006856352363365796
0.0006856352377996881
0.0006856352336103315
0.000685635235246092
0.000685635237103927
0.000685635235853061
0.0006856352343498112
0.0006856352370699853
0.0006856352356892428
0.0006856352344086262
0.0006856352374357931
0.0006856352345825939
0.0006856352353176252
0.0006856352372504898
0.0006856352353023183
0.0006856352344139115
0.0006856352376053923
0.0006856352340526187
0.0006856352355481087
0.0006856352377267625
0.0006856352337059222
0.0006856352354632566
0.0006856352377332125
0.0006856352337553601
0.0006856352354625263
0.0006856352376827055
0.0006856352335713194
0.0006856352354003925
0.0006856352375947506
0.0006856352337578464
0.0006856352354660468
0.0006856352374139223
0.0006856352344077366
0.0006856352354895818
0.0006856352374744332
0.0006856352345219706
0.0006856352354990804
0.0006856352374145743
0.0006856352356168239
0.0006856352345788564
0.0006856352374827136
0.0006856352356411791
0.0006856352350010861
0.0006856352377273146
0.0006856352363838982
0.0006856352353685768
0.0006856352381612434
0.0006856352360619124
0.0008057667013434891
0.000805766704681743
0.0008057666999334981
0.0008057667020550552
0.0008057667052301426
0.0008057667038610788
0.0008057667022217524
0.0008057667013543541
0.0008057667002237309
0.0008057667033197668
0.0008057667022446774
0.0008057667044075251
0.0008057666992789428
0.0008057667013510832
0.0008057667035365082
0.0008057667017567264
0.00080576670021933
0.0008057667035469375
0.0008057667017663234
0.0008057667002590644
0.0008057667036703773
0.0008057667013309882
0.0008057667004947058
0.0008057667037652745
0.0008057667012816548
0.0008057667003362032
0.0008057667042909541
0.0008057666995179469
0.0008057667016216275
0.0008057667042446539
0.0008057666995875599
0.0008057667015486372
0.0008057667042040457
0.0008057666995544591
0.0008057667015421998
0.0008057667042410407
0.000805766699342722
0.0008057667014787382
0.0008057667039260387
0.0008057666999875859
0.0008057667015834118
0.0008057667039323357
0.000805766700389776
0.0008057667016142655
0.0008057667039716744
0.0008057667004995401
0.0008057667016292191
0.0008057667039764808
0.0008057667016923714
0.000805766700516058
0.0008057667040417541
0.0008057667017169174
0.00080576670082563
0.0008057667042787147
0.0008057667024217557
0.000805766701341716
0.0008057667047539026
0.0008057667022477312
0.0009205363734671985
0.0009205363775101265
0.0009205363718443285
0.000920536374317383
0.0009205363774442107
0.0009205363767636
0.0009205363760236143
0.0009205363729983995
0.0009205363717036413
0.000920536375808886
0.0009205363743763487
0.0009205363769785952
0.0009205363711072916
0.0009205363734945713
0.0009205363760177989
0.0009205363735737464
0.0009205363721289603
0.0009205363760833093
0.0009205363738076097
0.0009205363721635514
0.0009205363761033665
0.0009205363736794597
0.0009205363722805254
0.0009205363762896881
0.0009205363733081948
0.0009205363722978761
0.0009205363769115678
0.0009205363713693728
0.0009205363736948394
0.0009205363766453328
0.0009205363718608028
0.0009205363734483121
0.0009205363765603172
0.0009205363717120313
0.0009205363734480605
0.0009205363767444165
0.0009205363713421726
0.0009205363735600603
0.000920536376267518
0.0009205363724253321
0.0009205363737741178
0.0009205363766147484
0.0009205363719595966
0.000920536373773165
0.000920536376500964
0.0009205363724212167
0.0009205363737984243
0.000920536376524315
0.0009205363737689804
0.0009205363724698436
0.0009205363765741202
0.000920536373788932
0.0009205363727611364
0.000920536376819619
0.0009205363743012235
0.0009205363733117514
0.0009205363773151628
0.0009205363744451807
0.001032993312676534
0.00103299331723609
0.001032993310917779
0.001032993313592606
0.001032993316658124
0.001032993316267489
0.001032993315853337
0.001032993311806063
0.001032993310297667
0.001032993315180952
0.001032993313645222
0.00103299331641971
0.001032993310010137
0.001032993312590969
0.001032993315471293
0.00103299331234533
0.001032993310985638
0.001032993315572334
0.00103299331267852
0.001032993311035405
0.001032993315479389
0.001032993312881492
0.001032993311310417
0.001032993315737265
0.001032993312290636
0.001032993311212114
0.001032993316464248
0.001032993310181137
0.001032993312701412
0.001032993315552358
0.001032993312570014
0.001032993311246245
0.001032993315436477
0.001032993312332037
0.001032993311230427
0.001032993316036646
0.00103299331070139
0.001032993312400079
0.001032993315653283
0.001032993311520329
0.001032993312948683
0.0010329933163098
0.001032993310191539
0.001032993312878017
0.001032993315934694
0.001032993311295662
0.001032993312924803
0.001032993315966848
0.001032993312747383
0.001032993311335506
0.001032993316018141
0.001032993312576932
0.001032993311803641
0.001032993316261699
0.001032993313067114
0.001032993312170568
0.001032993316757207
0.001032993313436761
0.001146825823683083
0.001146825827667071
0.001146825821294823
0.001146825823739895
0.001146825826442341
0.001146825826274447
0.001146825826083637
0.001146825821468956
0.001146825819754939
0.00114682582527357
0.001146825824019292
0.001146825826646745
0.001146825819457359
0.001146825822469869
0.001146825825614572
0.001146825822117189
0.001146825820606947
0.001146825825856802
0.001146825821956122
0.001146825820906726
0.001146825825818396
0.001146825821919073
0.001146825822326428
0.001146825825913575
0.001146825822052571
0.001146825820880371
0.001146825826782968
0.001146825819593235
0.001146825822557053
0.001146825825667026
0.00114682582269492
0.00114682582057496
0.001146825825559276
0.001146825822515838
0.001146825820467878
0.001146825825586173
0.00114682582253907
0.001146825820837821
0.001146825825867757
0.00114682582109541
0.00114682582285288
0.001146825826535521
0.001146825819711542
0.001146825822668385
0.001146825826027837
0.001146825821139679
0.001146825822779267
0.001146825826108778
0.001146825822451071
0.001146825820942858
0.001146825826534966
0.001146825820848608
0.001146825822707452
0.001146825826372274
0.001146825822725721
0.001146825821719395
0.00114682582714815
0.001146825822171045
0.001266977575774302
0.00126697757948221
0.001266977575280654
0.001266977575510793
0.001266977577873037
0.001266977577739224
0.001266977577948481
0.001266977572742597
0.001266977571375221
0.00126697757728756
0.001266977576709469
0.001266977578739735
0.001266977570331172
0.00126697757426757
0.001266977577554787
0.001266977573663093
0.001266977572371105
0.001266977578599289
0.001266977571017154
0.001266977574069599
0.001266977578089732
0.001266977572173884
0.001266977574363216
0.00126697757789775
0.001266977573729521
0.001266977572355461
0.001266977578953258
0.001266977570605491
0.001266977574321964
0.00126697757774051
0.001266977574326131
0.001266977571910406
0.001266977577585903
0.001266977574238098
0.001266977571744534
0.001266977577471794
0.001266977574523451
0.001266977571999808
0.001266977578012924
0.001266977572059552
0.001266977574543448
0.001266977578214377
0.001266977572252326
0.001266977573969835
0.001266977577777062
0.001266977573530716
0.001266977574172129
0.001266977578028547
0.001266977574020227
0.0012669775723479
0.001266977578891545
0.00126697757081229
0.001266977574615866
0.001266977578244971
0.001266977574304073
0.001266977573014054
0.001266977579300278
0.001266977572566121
0.001399980187203044
0.001399980191437993
0.001399980186463057
0.001399980183943433
0.001399980188284661
0.001399980187893156
0.001399980189593434
0.001399980181087908
0.001399980184224752
0.001399980189019109
0.001399980188040035
0.001399980189878503
0.001399980180272429
0.0013999801854932
0.001399980189120017
0.001399980182623654
0.001399980185222029
0.001399980190106958
0.001399980180621383
0.001399980185586424
0.001399980189517482
0.00139998018166467
0.001399980185444776
0.001399980189138751
0.001399980184703908
0.001399980183048913
0.001399980190350965
0.001399980180660659
0.001399980185458678
0.001399980189011355
0.001399980185132912
0.001399980182544002
0.001399980188886418
0.001399980184633916
0.001399980182543628
0.0013999801887235
0.001399980185261937
0.001399980182609771
0.00139998018943391
0.001399980181746332
0.00139998018555936
0.001399980189059703
0.001399980184254341
0.00139998018279026
0.001399980188715252
0.001399980185521287
0.001399980182994161
0.00139998018917688
0.001399980184838561
0.001399980182921467
0.001399980190217572
0.001399980180530933
0.001399980185557587
0.001399980189331498
0.001399980185097348
0.001399980183432668
0.001399980190329524
0.001399980183019339
0.001554174829747224
0.001554174835095034
0.001554174825280468
0.00155417482737984
0.001554174829257687
0.001554174828151334
0.001554174831214798
0.001554174823316582
0.00155417482672056
0.001554174831964548
0.001554174829683558
0.001554174830889776
0.001554174821658536
0.001554174827687001
0.00155417483177293
0.001554174821997583
0.001554174827640412
0.001554174832290408
0.001554174821716194
0.001554174827761036
0.001554174831935653
0.001554174821783165
0.001554174827510887
0.00155417483119393
0.001554174826694699
0.001554174824753267
0.001554174832560662
0.001554174821860689
0.001554174827690192
0.001554174831112735
0.001554174826592972
0.001554174824654875
0.00155417483199869
0.00155417482253532
0.001554174826668555
0.001554174830817007
0.001554174826813793
0.001554174824205947
0.001554174831815498
0.001554174822069999
0.001554174827607126
0.001554174830992694
0.001554174825969279
0.001554174824343035
0.001554174830745915
0.001554174826931345
0.001554174824208662
0.001554174831113298
0.001554174826630868
0.001554174824479461
0.001554174832285247
0.001554174821466707
0.001554174827536645
0.00155417483117692
0.001554174826802164
0.001554174824855574
0.00155417483242875
0.001554174823634403
0.001740570279994157
0.001740570285257757
0.001740570273933434
0.001740570277909346
0.001740570278638622
0.001740570274832405
0.001740570280460938
0.00174057027633914
0.001740570274442613
0.001740570283688016
0.001740570275690778
0.001740570276365893
0.001740570271571173
0.001740570277637521
0.001740570281546419
0.001740570271607781
0.00174057027745889
0.001740570282037187
0.001740570271606125
0.001740570277569397
0.001740570281630462
0.001740570271709335
0.001740570277334525
0.001740570281029756
0.001740570276632329
0.001740570274897157
0.001740570282462309
0.001740570271856594
0.001740570278203126
0.001740570282137587
0.001740570272201964
0.00174057027769694
0.00174057028206172
0.001740570271548326
0.001740570277353377
0.001740570280687817
0.001740570276350212
0.001740570274193149
0.001740570281392604
0.001740570272488493
0.001740570277427214
0.001740570281347676
0.001740570273298094
0.001740570276963065
0.001740570280461538
0.001740570276399321
0.001740570274068628
0.001740570280827307
0.001740570276311339
0.001740570274510207
0.001740570282036338
0.001740570271199882
0.001740570277617742
0.001740570280802214
0.001740570276338195
0.001740570274786171
0.001740570282352505
0.001740570272371836
0.00197732125837602
0.001977321262481479
0.001977321251390809
0.001977321256341212
0.001977321257113863
0.001977321254416496
0.001977321258778408
0.001977321256566189
0.001977321253355745
0.001977321262029797
0.001977321253543449
0.001977321256692681
0.001977321250142625
0.00197732125405048
0.001977321258469296
0.001977321255115485
0.001977321253191722
0.001977321258958996
0.001977321254825586
0.00197732125340769
0.001977321258539454
0.001977321255424329
0.001977321253397727
0.001977321259834094
0.001977321252740014
0.001977321256928712
0.001977321260358717
0.001977321251628173
0.001977321257146259
0.00197732126039047
0.001977321251031471
0.001977321257125289
0.001977321259959695
0.001977321251078479
0.001977321256585405
0.001977321259743963
0.001977321251511888
0.00197732125616844
0.001977321258613767
0.001977321255385738
0.001977321253253984
0.001977321259831751
0.001977321251056603
0.00197732125631573
0.001977321259275867
0.001977321251536635
0.001977321255891971
0.001977321259613447
0.001977321251995189
0.001977321256555431
0.001977321259884577
0.001977321250895961
0.001977321256651184
0.001977321259650395
0.001977321251692122
0.001977321256731902
0.00197732126011948
0.001977321251474029
0.002314125076785184
0.002314125077877586
0.002314125074738159
0.00231412507575321
0.002314125076062692
0.002314125075619139
0.002314125077047541
0.00231412507570361
0.00231412507441114
0.002314125078574141
0.002314125073773749
0.002314125074378813
0.002314125072896568
0.00231412507521753
0.002314125076685447
0.002314125074000553
0.002314125075198642
0.00231412507706079
0.002314125073279773
0.002314125075097684
0.002314125076740378
0.002314125074007392
0.002314125075344583
0.002314125077369153
0.002314125073134336
0.002314125075982263
0.002314125077507261
0.002314125073233426
0.002314125076002277
0.002314125077355887
0.002314125072790474
0.002314125075708174
0.002314125077050286
0.002314125072623485
0.002314125075593506
0.002314125076507181
0.002314125075005262
0.002314125075758315
0.002314125076367011
0.002314125074959948
0.002314125073636615
0.002314125076270298
0.002314125074340525
0.002314125073664212
0.002314125076139888
0.002314125074385642
0.002314125074035428
0.002314125077002427
0.002314125072811949
0.002314125075947707
0.002314125077155693
0.002314125072753284
0.00231412507585747
0.002314125076967949
0.002314125073419855
0.002314125076240629
0.002314125077481003
0.002314125073456042
0.002810716579229586
0.002810716579507418
0.002810716578655675
0.002810716578946459
0.002810716579127205
0.002810716578865552
0.002810716579433718
0.002810716578931607
0.002810716578607334
0.002810716579908581
0.002810716578220251
0.002810716578407429
0.002810716578425775
0.002810716578471241
0.002810716578606035
0.002810716578673589
0.002810716578570756
0.002810716578271187
0.002810716578528525
0.002810716578555333
0.002810716578495146
0.002810716578497784
0.002810716578522071
0.002810716578635382
0.002810716578311157
0.002810716578630891
0.002810716578471422
0.002810716578447946
0.002810716578682252
0.002810716578457185
0.002810716578255998
0.002810716578084829
0.002810716578203379
0.002810716578042524
0.00281071657806416
0.002810716578231891
0.002810716578577813
0.002810716577984882
0.00281071657809577
0.002810716578053854
0.002810716577643787
0.002810716578078655
0.002810716577561938
0.002810716577806511
0.00281071657762766
0.002810716577902715
0.002810716578254767
0.002810716577947533
0.00281071657774739
0.002810716578694328
0.002810716578405846
0.00281071657814902
0.002810716578527466
0.002810716578324639
0.002810716578080617
0.002810716578721224
0.002810716578547427
0.002810716578706531
0.003458992039041878
0.003458992039015308
0.003458992039084354
0.003458992039037441
0.003458992040101824
0.003458992038624588
0.00345899203959034
0.003458992039821311
0.003458992038481474
0.003458992040197812
0.003458992039079113
0.003458992038272457
0.003458992038731997
0.003458992039618232
0.003458992038118868
0.003458992039681849
0.003458992038685358
0.003458992037960688
0.003458992039521072
0.003458992038666816
0.003458992037965591
0.003458992038703247
0.003458992039273912
0.003458992037870615
0.003458992038540313
0.00345899203914996
0.003458992037824099
0.003458992038701108
0.003458992039020492
0.003458992037404237
0.003458992039610919
0.003458992038282659
0.003458992037548721
0.003458992038391422
0.003458992038731185
0.003458992037188764
0.003458992039490215
0.003458992038091708
0.00345899203734652
0.003458992038013349
0.003458992038550313
0.003458992037156987
0.003458992038001838
0.003458992038598234
0.003458992037217317
0.003458992038277681
0.003458992038821277
0.003458992037434984
0.003458992038194741
0.003458992039063915
0.003458992037462696
0.00345899203904993
0.003458992038216881
0.003458992037112509
0.003458992039401296
0.003458992038318451
0.003458992037389657
0.003458992039740184
0.004251099388280117
0.004251099388797096
0.004251099389055791
0.00425109938940341
0.004251099389636593
0.004251099387909767
0.004251099390651915
0.004251099389418477
0.004251099387810756
0.004251099390967645
0.004251099389273205
0.004251099387666008
0.004251099388405112
0.004251099390331196
0.004251099387335391
0.004251099390505156
0.004251099388557987
0.00425109938686999
0.004251099391020862
0.004251099388367627
0.004251099387222561
0.004251099388753772
0.004251099389758858
0.004251099386871239
0.004251099388844441
0.004251099388369215
0.004251099386934564
0.004251099388491669
0.004251099389188187
0.004251099386286184
0.004251099390353584
0.004251099388088636
0.004251099386690484
0.004251099388242797
0.00425109938875315
0.004251099386044311
0.004251099390030438
0.004251099387796714
0.004251099386357688
0.004251099387685009
0.004251099388796755
0.004251099386086084
0.004251099387888963
0.004251099388578343
0.004251099385594147
0.004251099390144141
0.004251099387687906
0.004251099386337733
0.004251099388009468
0.00425109938925785
0.004251099386484953
0.004251099388035798
0.004251099388865502
0.004251099385775871
0.004251099390374125
0.004251099387870651
0.00425109938624479
0.004251099390056412
0.005160475420132263
0.005160475421877823
0.005160475421364131
0.005160475422474339
0.005160475423966963
0.005160475420561718
0.005160475422958274
0.005160475423694622
0.005160475420439993
0.005160475422536104
0.005160475423643786
0.005160475420070499
0.005160475421873778
0.00516047542352707
0.005160475419980174
0.005160475421813008
0.005160475422896435
0.005160475418861326
0.005160475424505404
0.005160475420810012
0.005160475418800121
0.005160475424026593
0.005160475421039689
0.005160475419093137
0.005160475420994791
0.005160475422397283
0.005160475418998108
0.005160475420885016
0.005160475422431672
0.005160475418870568
0.00516047542112905
0.005160475422118449
0.005160475418740095
0.005160475420583134
0.005160475422049226
0.005160475418478825
0.0051604754209237
0.005160475421732621
0.005160475418206562
0.005160475420369777
0.005160475419817572
0.005160475417418299
0.005160475422434209
0.005160475419380916
0.005160475417220074
0.005160475423089622
0.005160475419719716
0.005160475418133672
0.005160475420462332
0.005160475421439221
0.005160475417534207
0.005160475422981245
0.005160475419807622
0.005160475417598576
0.005160475423589351
0.005160475420560646
0.005160475419023041
0.005160475420132773
0.006165280392040016
0.006165280393057073
0.006165280392241155
0.006165280395949198
0.006165280394472906
0.006165280391848165
0.006165280397546185
0.006165280394353875
0.00616528039224478
0.006165280394324934
0.006165280396095749
0.006165280391992192
0.00616528039403797
0.006165280395746727
0.006165280391755778
0.00616528039356356
0.006165280395298763
0.006165280390556871
0.006165280396676086
0.006165280392621126
0.00616528039047364
0.006165280396341052
0.006165280392686033
0.006165280390692962
0.006165280393156748
0.006165280394402187
0.0061652803905988
0.006165280392534339
0.006165280394553238
0.006165280390399622
0.006165280392558978
0.006165280394250329
0.006165280390262835
0.006165280392149006
0.006165280394044743
0.006165280389350417
0.006165280394661032
0.006165280392042715
0.006165280389711375
0.006165280391632355
0.006165280393130893
0.006165280388519445
0.006165280394640905
0.006165280390686168
0.0061652803884391
0.006165280394707984
0.0061652803909523
0.006165280388729745
0.006165280394108474
0.006165280391012962
0.006165280388526781
0.006165280394831529
0.006165280391162454
0.006165280388917275
0.006165280395240664
0.006165280392306979
0.0061652803905494
0.00616528039160083
0.007246271224830215
0.007246271226461599
0.007246271224902586
0.007246271227709269
0.007246271228842778
0.007246271225013098
0.007246271230063253
0.007246271226947706
0.007246271225196996
0.007246271226943625
0.007246271228958283
0.007246271225011786
0.007246271226876591
0.007246271228447628
0.007246271224715811
0.007246271226011444
0.007246271228222481
0.007246271223502689
0.007246271228989587
0.007246271225307221
0.00724627122353533
0.007246271228617347
0.00724627122516223
0.007246271222730919
0.007246271228100092
0.007246271225300655
0.007246271223377148
0.007246271224744252
0.007246271227305136
0.007246271223024387
0.007246271224904449
0.007246271226801826
0.00724627122297932
0.007246271224262862
0.00724627122671063
0.007246271222552215
0.007246271224795418
0.007246271225882858
0.007246271222231067
0.007246271223655037
0.007246271225655898
0.007246271220934668
0.007246271226811225
0.007246271222923321
0.007246271220897606
0.007246271226555694
0.007246271223041584
0.0072462712207133
0.007246271226561598
0.007246271222834407
0.007246271220787112
0.007246271226652771
0.007246271223392145
0.007246271221752919
0.007246271224272524
0.007246271225988444
0.007246271222595834
0.007246271223600021
0.008334183864569276
0.008334183864366967
0.008334183863407854
0.008334183864828495
0.00833418386619846
0.008334183863643655
0.008334183866430743
0.008334183864362228
0.008334183863726061
0.008334183864795832
0.008334183865337146
0.008334183863253495
0.008334183865909818
0.00833418386435626
0.008334183863120098
0.008334183863932122
0.008334183864814352
0.00833418386269236
0.008334183863801499
0.008334183864323457
0.008334183862369192
0.008334183865075404
0.008334183862771245
0.00833418386164647
0.008334183863365175
0.008334183863660437
0.008334183861790839
0.008334183862483479
0.008334183864074616
0.008334183861618473
0.008334183862633801
0.008334183863716413
0.008334183861556552
0.008334183862019381
0.008334183863421418
0.008334183861196966
0.008334183862263096
0.008334183862941226
0.008334183860539605
0.008334183861827032
0.008334183861594161
0.00833418385973235
0.008334183863255299
0.008334183860951444
0.008334183859695794
0.008334183863074579
0.008334183860979824
0.008334183859506971
0.008334183863151105
0.008334183860922578
0.008334183859641625
0.008334183863238621
0.008334183861371624
0.008334183860388209
0.008334183861988431
0.008334183862835264
0.008334183860993622
0.008334183861602409
0.009351963532142899
0.009351963532147048
0.009351963531862862
0.009351963532971411
0.009351963532439526
0.009351963532395762
0.009351963532972459
0.009351963532206379
0.009351963532349948
0.009351963532830378
0.009351963532200325
0.009351963532235469
0.009351963532858807
0.009351963531733985
0.009351963531582215
0.009351963532086501
0.009351963531489397
0.009351963531222576
0.009351963531953503
0.009351963531464622
0.009351963531320491
0.009351963531849155
0.009351963530536345
0.009351963530115559
0.009351963530881982
0.009351963530767102
0.009351963530595976
0.009351963530408293
0.009351963530862931
0.009351963530653692
0.009351963530738562
0.009351963530662295
0.009351963530747296
0.009351963529922963
0.009351963530187087
0.009351963530315302
0.009351963530473014
0.009351963530202111
0.009351963529277514
0.009351963529610062
0.009351963529690728
0.009351963528841057
0.009351963529777199
0.009351963529463634
0.0093519635288851
0.009351963529729562
0.009351963529443237
0.009351963528639205
0.0093519635299379
0.009351963529611745
0.009351963528690978
0.009351963530013318
0.009351963529846014
0.009351963529378535
0.009351963530086717
0.00935196353067262
0.009351963529915248
0.009351963530853779
0.01028442694090636
0.01028442693999126
0.01028442693969205
0.01028442694179678
0.01028442694041275
0.01028442693983306
0.01028442694168446
0.01028442694075491
0.01028442693988399
0.01028442694195305
0.01028442693976106
0.0102844269406071
0.01028442694170473
0.01028442693998077
0.01028442693944129
0.01028442694106784
0.01028442693940187
0.01028442693905047
0.01028442694106414
0.01028442693991001
0.01028442693906233
0.01028442694059096
0.01028442693937018
0.01028442693804985
0.01028442693938582
0.01028442693936311
0.01028442693988686
0.01028442693881428
0.01028442693824451
0.01028442694006497
0.01028442693940536
0.01028442693837239
0.01028442694063153
0.01028442693705644
0.01028442693829682
0.01028442693953811
0.01028442693946084
0.01028442693935165
0.01028442693824938
0.01028442693719562
0.01028442693893914
0.01028442693774818
0.0102844269371731