/*--------------------------------*- C++ -*----------------------------------*\
| =========                 |                                                 |
| \\      /  F ield         | OpenFOAM: The Open Source CFD Toolbox           |
|  \\    /   O peration     | Version:  v1812                                 |
|   \\  /    A nd           | Web:      www.OpenFOAM.com                      |
|    \\/     M anipulation  |                                                 |
\*---------------------------------------------------------------------------*/
FoamFile
{
    version     2.0;
    format      ascii;
    class       volScalarField;
    location    "20000";
    object      nuTilda;
}
// * * * * * * * * * * * * * * * * * * * * * * * * * * * * * * * * * * * * * //

dimensions      [0 2 -1 0 0 0 0];


internalField   nonuniform List<scalar> 
3770
(
0.0004779508472238265
0.0004779508472163214
0.0004779508472291807
0.0004779508472268209
0.0004779508472259449
0.0004779508472200448
0.0004779508472222937
0.0004779508472185335
0.000477950847224651
0.0004779508472227139
0.0004779508472239003
0.0004779508472158767
0.0004779508472290839
0.0004779508472259341
0.0004779508472256235
0.0004779508472167128
0.0004779508472250405
0.000477950847225334
0.000477950847219525
0.0004779508472229231
0.0004779508472192912
0.0004779508472300266
0.0004779508472258103
0.0004779508472249875
0.0004779508472193535
0.0004779508472234058
0.0004779508472204602
0.0004779508472260259
0.0004779508472220587
0.0004779508472161936
0.0004779508472296211
0.0004779508472240436
0.0004779508472163374
0.0004779508472285084
0.0004779508472245865
0.0004779508472170179
0.0004779508472297967
0.0004779508472243941
0.0004779508472185262
0.00047795084722923
0.0004779508472243534
0.0004779508472169196
0.0004779508472300752
0.0004779508472243046
0.000477950847219899
0.0004779508472272603
0.0004779508472234428
0.0004779508472250507
0.000477950847218857
0.0004779508472225435
0.0004779508472189027
0.000477950847229654
0.0004779508472235609
0.000477950847222332
0.0004779508472167363
0.0004779508472190919
0.0004779508472139975
0.0004779508472272582
0.0002847888875539763
0.0002847888876395127
0.000284788887559113
0.0002847888875315704
0.0002847888879152634
0.0002847888877043245
0.0002847888876608235
0.0002847888874602623
0.0002847888875011896
0.0002847888875888436
0.0002847888875987893
0.0002847888876338881
0.0002847888875205648
0.000284788887480685
0.0002847888877783858
0.00028478888743773
0.0002847888875037277
0.0002847888877372764
0.0002847888874336298
0.0002847888874571569
0.0002847888876504331
0.000284788887520496
0.0002847888875181342
0.0002847888877461502
0.0002847888874057225
0.0002847888874527119
0.0002847888876438615
0.0002847888875499498
0.0002847888875077604
0.0002847888876362702
0.000284788887514183
0.0002847888874727287
0.0002847888876581256
0.0002847888874974379
0.0002847888874905628
0.0002847888876252616
0.0002847888874999833
0.0002847888874664809
0.0002847888876367649
0.0002847888874944408
0.0002847888874888209
0.0002847888876305467
0.0002847888875297664
0.0002847888874653781
0.0002847888876392967
0.0002847888875484906
0.0002847888875258631
0.0002847888877608813
0.0002847888874174165
0.0002847888874710263
0.0002847888876752855
0.0002847888875897845
0.0002847888875456497
0.0002847888877719604
0.0002847888875192629
0.0002847888876048493
0.0002847888878050158
0.0002847888876396581
0.0004125155389405836
0.0004125155396342733
0.000412515539271274
0.0004125155387563545
0.0004125155406562876
0.0004125155392689074
0.000412515539251709
0.0004125155386265088
0.0004125155391446377
0.0004125155395105699
0.0004125155395866303
0.0004125155396335228
0.000412515539121022
0.0004125155386023734
0.0004125155401434914
0.0004125155384708623
0.0004125155390952099
0.0004125155399811806
0.0004125155385016841
0.0004125155389145468
0.0004125155397953305
0.0004125155391360252
0.0004125155387551643
0.000412515540006646
0.0004125155383948339
0.0004125155389079312
0.0004125155397420751
0.0004125155391895808
0.0004125155387030162
0.0004125155396699637
0.0004125155391047702
0.000412515538587876
0.0004125155397528185
0.0004125155390179035
0.000412515538674368
0.0004125155396397363
0.0004125155390485258
0.0004125155385749991
0.0004125155397106905
0.0004125155390237796
0.0004125155386644591
0.0004125155396493322
0.0004125155391854939
0.0004125155385780251
0.0004125155397252103
0.0004125155392259937
0.0004125155387434628
0.0004125155400652708
0.000412515538420785
0.0004125155389736868
0.0004125155398232945
0.0004125155393848449
0.0004125155388960029
0.000412515540270586
0.0004125155388454318
0.0004125155394520046
0.0004125155403048389
0.0004125155395391586
0.0005565899919241445
0.000556589992886036
0.0005565899917395736
0.0005565899911737745
0.0005565899943983364
0.0005565899918764785
0.0005565899919512097
0.0005565899911632397
0.0005565899916422955
0.0005565899926145222
0.0005565899925598023
0.0005565899928353018
0.0005565899914172703
0.0005565899908032058
0.0005565899934141837
0.0005565899905215569
0.000556589991620306
0.0005565899933089943
0.000556589990435424
0.0005565899914736014
0.0005565899929510357
0.0005565899916661252
0.0005565899909271526
0.0005565899933274199
0.0005565899902980315
0.0005565899914616462
0.0005565899928790085
0.0005565899916580916
0.0005565899908752865
0.0005565899928611694
0.0005565899914826658
0.0005565899907728798
0.0005565899929021379
0.0005565899914530852
0.0005565899908132497
0.0005565899928081091
0.0005565899913683073
0.0005565899907506994
0.0005565899928421166
0.0005565899914708807
0.0005565899908192572
0.0005565899928097368
0.0005565899917233483
0.0005565899907668916
0.0005565899928738341
0.0005565899918708501
0.000556589990962197
0.0005565899934709439
0.0005565899903756432
0.000556589991608352
0.0005565899930920422
0.000556589992017489
0.0005565899913321427
0.0005565899937942728
0.0005565899910477559
0.0005565899923126665
0.0005565899938985531
0.0005565899917147304
0.0006856352459524371
0.0006856352472366218
0.0006856352454705024
0.0006856352449472856
0.0006856352490797766
0.0006856352457411153
0.0006856352448207416
0.0006856352450028125
0.0006856352444506776
0.0006856352468010408
0.0006856352465973039
0.0006856352470661233
0.0006856352449608901
0.000685635244341206
0.0006856352476780935
0.0006856352437958274
0.0006856352453855593
0.0006856352476372273
0.0006856352437269953
0.0006856352452655702
0.0006856352471590331
0.000685635245285408
0.0006856352445480542
0.0006856352475693993
0.0006856352437794955
0.0006856352452597316
0.0006856352470828603
0.0006856352452155743
0.0006856352443777173
0.0006856352471006345
0.0006856352451302138
0.0006856352442658956
0.0006856352470941632
0.0006856352451104524
0.0006856352442808855
0.0006856352470094423
0.0006856352449911208
0.0006856352442320655
0.0006856352469993079
0.0006856352452573374
0.0006856352443064657
0.0006856352469902646
0.000685635245548588
0.0006856352442884029
0.0006856352470621996
0.0006856352457123727
0.0006856352445160165
0.0006856352478667092
0.0006856352436979327
0.0006856352455009052
0.0006856352476123539
0.0006856352448941604
0.0006856352457424252
0.0006856352482185478
0.0006856352444902914
0.0006856352462731337
0.0006856352483461886
0.0006856352451126869
0.0008057667142134953
0.0008057667158645911
0.0008057667135415174
0.0008057667129776335
0.0008057667177767741
0.0008057667139286655
0.0008057667129964867
0.0008057667116213511
0.0008057667128522203
0.0008057667152497808
0.0008057667147777061
0.0008057667155079456
0.0008057667128301321
0.0008057667121857172
0.0008057667161367802
0.0008057667113265054
0.0008057667134305551
0.0008057667161669868
0.0008057667113333659
0.0008057667133812735
0.0008057667158691695
0.0008057667122221983
0.0008057667132730642
0.0008057667159579136
0.0008057667118136047
0.0008057667133353398
0.000805766715532612
0.0008057667130238261
0.0008057667121996498
0.0008057667155625412
0.0008057667130546475
0.0008057667120825062
0.0008057667155016521
0.000805766713034371
0.0008057667120646726
0.0008057667154674225
0.0008057667129522754
0.0008057667119985182
0.0008057667153542889
0.0008057667135159251
0.0008057667121160731
0.0008057667154121513
0.0008057667135282532
0.0008057667121257156
0.0008057667154724968
0.000805766713814181
0.0008057667123715609
0.0008057667164352798
0.000805766711384288
0.0008057667136229464
0.0008057667161791101
0.0008057667124457349
0.0008057667139652376
0.000805766716735675
0.0008057667122674857
0.0008057667144089876
0.00080576671686108
0.000805766713055666
0.0009205363884123562
0.0009205363905091133
0.0009205363877100054
0.0009205363869101563
0.0009205363921867277
0.0009205363882892912
0.0009205363875691737
0.00092053638509009
0.0009205363868056714
0.0009205363896539562
0.0009205363890110986
0.0009205363898777483
0.0009205363867473673
0.0009205363860066927
0.0009205363905238359
0.0009205363848689242
0.0009205363874655488
0.000920536390590261
0.0009205363849781818
0.0009205363874561564
0.0009205363904609931
0.0009205363853780323
0.0009205363874104157
0.0009205363903136938
0.0009205363858259845
0.0009205363873835646
0.0009205363899238111
0.0009205363869285031
0.0009205363860121431
0.0009205363900168549
0.0009205363867469834
0.0009205363860515022
0.0009205363898920798
0.000920536386778212
0.0009205363860058452
0.0009205363898896928
0.0009205363868889553
0.0009205363857685565
0.0009205363896701811
0.0009205363877885598
0.0009205363859298579
0.0009205363898238392
0.0009205363873326162
0.000920536385929578
0.000920536389840634
0.0009205363879016165
0.0009205363861783572
0.0009205363908728941
0.0009205363851818306
0.0009205363876505452
0.0009205363905282533
0.0009205363863785109
0.0009205363879794496
0.0009205363909975447
0.000920536386439165
0.0009205363884316321
0.0009205363912143726
0.0009205363872149804
0.001032993329291421
0.00103299333209028
0.001032993328895325
0.001032993327675418
0.001032993333297476
0.001032993329386053
0.001032993328713456
0.001032993325795425
0.001032993327614014
0.001032993330943116
0.001032993330238589
0.001032993331065377
0.001032993327597997
0.00103299332668071
0.001032993331646285
0.001032993325626242
0.001032993328356671
0.001032993331755405
0.001032993325710805
0.001032993328315195
0.001032993331596811
0.001032993326362099
0.001032993328104386
0.001032993331552633
0.00103299332664999
0.001032993328320464
0.001032993331165308
0.00103299332775038
0.001032993326735105
0.001032993331743887
0.001032993326072796
0.001032993327938769
0.001032993331485689
0.001032993326383481
0.001032993327851901
0.001032993331225068
0.001032993327412287
0.001032993326606869
0.001032993330863743
0.00103299332881036
0.001032993326616027
0.001032993331129238
0.001032993327977253
0.001032993326564546
0.001032993331102462
0.001032993328870303
0.001032993326826421
0.001032993332117852
0.001032993325873533
0.001032993328501307
0.00103299333152777
0.001032993327756057
0.001032993328604542
0.001032993332070109
0.001032993327581528
0.00103299332925711
0.001032993332265076
0.001032993328715093
0.001146825839760081
0.001146825844319548
0.001146825840958714
0.001146825839043626
0.001146825844768668
0.001146825841273708
0.001146825840710096
0.001146825837278038
0.001146825839147092
0.001146825842974708
0.001146825842301521
0.001146825842885954
0.001146825839109114
0.001146825837985499
0.00114682584342486
0.001146825837163672
0.001146825839869053
0.001146825843264219
0.001146825838146688
0.00114682583958348
0.001146825842880197
0.001146825839867101
0.001146825838295542
0.001146825843510599
0.001146825838010468
0.001146825839979457
0.001146825843069884
0.001146825839275583
0.00114682583814288
0.001146825843995039
0.001146825836658943
0.001146825839899709
0.001146825843759852
0.001146825836686838
0.001146825839770809
0.001146825843760041
0.001146825836999896
0.001146825839290709
0.001146825842735225
0.001146825840390273
0.001146825837946485
0.001146825843044038
0.001146825839509417
0.001146825837888157
0.001146825843037227
0.001146825840467446
0.001146825838162022
0.001146825844029826
0.00114682583714736
0.001146825840053559
0.001146825843158321
0.001146825839712776
0.001146825838738321
0.001146825843932136
0.001146825838887374
0.001146825840751823
0.001146825843896064
0.001146825841015126
0.001266977592829481
0.00126697759832698
0.001266977594473341
0.001266977592133084
0.001266977597253416
0.001266977596127133
0.001266977595980082
0.001266977591130053
0.001266977592320977
0.001266977596853546
0.001266977596163303
0.001266977596409538
0.001266977592356825
0.001266977590960991
0.001266977596771837
0.001266977591218475
0.00126697759290771
0.001266977596620113
0.0012669775922934
0.001266977591283971
0.001266977596424116
0.001266977593453276
0.001266977591129831
0.00126697759731445
0.00126697759082257
0.001266977593470446
0.001266977596733304
0.00126697759262222
0.001266977591294444
0.001266977597818736
0.001266977589348694
0.001266977593469944
0.001266977597522012
0.001266977589388735
0.001266977593310829
0.00126697759771274
0.00126697758938413
0.001266977592984947
0.001266977596383788
0.001266977593624395
0.001266977590968849
0.001266977596613496
0.00126697759289123
0.001266977591225349
0.001266977596795402
0.001266977593266494
0.001266977591531953
0.001266977597750276
0.001266977589907851
0.001266977593446968
0.001266977596734807
0.001266977592769202
0.001266977591514453
0.001266977597649077
0.001266977591382172
0.001266977594057672
0.001266977597437867
0.001266977594434282
0.001399980205267926
0.001399980212251453
0.001399980203787297
0.001399980205571322
0.001399980209224665
0.001399980208831505
0.001399980208982471
0.001399980204712842
0.001399980203034558
0.001399980209920813
0.001399980208800475
0.001399980208866583
0.001399980204862567
0.001399980202992463
0.001399980209135516
0.00139998020534757
0.001399980203388846
0.001399980209428853
0.001399980204939816
0.001399980203152565
0.001399980209244344
0.001399980205725545
0.001399980203292877
0.001399980210266865
0.001399980202521816
0.00139998020617057
0.00139998020954213
0.001399980205269643
0.001399980203443857
0.001399980210634558
0.001399980201363098
0.001399980206063091
0.001399980210198694
0.001399980201716933
0.001399980205685441
0.001399980210628659
0.001399980201001118
0.001399980205701149
0.001399980209238732
0.001399980205858647
0.001399980203087286
0.001399980209688823
0.001399980203796814
0.001399980205642636
0.001399980210397782
0.001399980202245604
0.001399980205875247
0.001399980210581028
0.001399980201574932
0.001399980206025417
0.001399980209412295
0.001399980205150085
0.001399980203533114
0.00139998021046968
0.001399980202685993
0.001399980206525694
0.001399980210078483
0.001399980207120996
0.001554174848121186
0.001554174855078912
0.001554174849203036
0.001554174847019164
0.001554174851941829
0.001554174851674555
0.001554174852465944
0.001554174848085524
0.001554174846209912
0.001554174853599818
0.001554174851434743
0.001554174851520709
0.001554174848344265
0.001554174845835579
0.001554174852551024
0.001554174848454245
0.001554174846006047
0.001554174852838626
0.001554174848299216
0.00155417484606763
0.001554174852662052
0.001554174848625681
0.001554174846180123
0.001554174853898828
0.001554174844880218
0.001554174849638511
0.001554174853076977
0.001554174848852549
0.001554174846192947
0.001554174853801553
0.00155417484498303
0.001554174849006013
0.001554174852792103
0.001554174847869121
0.001554174846456379
0.00155417485410252
0.001554174843424048
0.001554174849243736
0.001554174852691022
0.00155417484875552
0.001554174845883284
0.001554174853182592
0.001554174846673921
0.001554174849059524
0.001554174853967268
0.001554174843972352
0.001554174849590071
0.001554174854023038
0.001554174843993914
0.001554174849358242
0.001554174852783429
0.001554174848527905
0.001554174846176259
0.001554174853856416
0.001554174844890195
0.00155417484975725
0.001554174853445309
0.001554174850253982
0.001740570298201559
0.001740570305263712
0.001740570299705582
0.001740570300865461
0.001740570302260852
0.001740570301651276
0.001740570304042508
0.001740570295133869
0.001740570299833377
0.001740570304313736
0.001740570300254371
0.001740570300785685
0.001740570299329367
0.001740570295867466
0.001740570303008258
0.00174057029876802
0.001740570296527068
0.001740570303342997
0.001740570299033807
0.001740570296705152
0.001740570303141564
0.001740570298914335
0.001740570296734384
0.001740570304331288
0.001740570296014385
0.001740570300277792
0.001740570303753519
0.001740570300052678
0.001740570296446239
0.001740570303591679
0.001740570298812081
0.001740570297042763
0.001740570303354359
0.001740570299552714
0.001740570296389452
0.001740570304514429
0.00174057029416866
0.001740570299873082
0.001740570303139439
0.001740570298994763
0.001740570296457543
0.001740570303291209
0.001740570299630734
0.001740570296730123
0.001740570304249895
0.001740570294337134
0.001740570299942661
0.001740570304118981
0.001740570295468603
0.001740570299902868
0.001740570303320182
0.001740570299530223
0.001740570296295841
0.001740570303901073
0.001740570296362388
0.001740570300196857
0.001740570303900654
0.001740570300615524
0.001977321275048041
0.001977321281201415
0.001977321276831302
0.001977321278919053
0.001977321279127182
0.001977321279132591
0.00197732128082661
0.001977321272396056
0.001977321277601556
0.001977321280683729
0.001977321276935175
0.001977321278259803
0.001977321276545263
0.001977321272348606
0.001977321280268828
0.001977321272456625
0.001977321276606394
0.001977321280286232
0.001977321274267397
0.001977321277032424
0.00197732128038737
0.00197732127260276
0.001977321276739208
0.001977321280135497
0.001977321276965001
0.001977321274696488
0.00197732128020226
0.001977321277783756
0.001977321273768803
0.001977321280090816
0.001977321276877673
0.001977321274429765
0.001977321279789435
0.00197732127732569
0.001977321273637275
0.001977321279914799
0.001977321276381308
0.001977321274406346
0.001977321280429465
0.00197732127215317
0.001977321276711366
0.001977321279763401
0.001977321276817766
0.00197732127358993
0.001977321279397774
0.001977321276144055
0.001977321274046387
0.001977321279731209
0.001977321276453647
0.001977321274396451
0.001977321279720925
0.001977321277167143
0.00197732127356679
0.001977321279720425
0.001977321276605144
0.001977321274557998
0.001977321280098435
0.001977321277623048
0.002314125084716962
0.002314125086618162
0.002314125085362268
0.002314125084829359
0.00231412508606945
0.002314125086246518
0.002314125086873161
0.002314125082223718
0.002314125085223925
0.002314125086478405
0.002314125084332909
0.0023141250846871
0.002314125084500049
0.002314125082428817
0.002314125085698094
0.002314125084135758
0.002314125083136613
0.002314125085837118
0.002314125084186496
0.002314125083185866
0.002314125085719175
0.002314125084104592
0.002314125083301933
0.002314125086085906
0.002314125084746769
0.00231412508327224
0.002314125086179908
0.002314125084973769
0.002314125083081466
0.002314125085879096
0.002314125084399821
0.002314125083115237
0.002314125085701445
0.002314125084341448
0.002314125083776579
0.00231412508585688
0.002314125085411808
0.002314125082938598
0.0023141250860547
0.002314125081569724
0.002314125084438956
0.002314125085651074
0.002314125082861448
0.002314125083817162
0.0023141250854529
0.002314125083946547
0.002314125084147639
0.002314125085584515
0.002314125084314501
0.002314125083747107
0.002314125085721565
0.002314125084429526
0.002314125083704122
0.002314125085766349
0.002314125084721662
0.002314125083738107
0.002314125086227565
0.002314125084968321
0.002810716580233318
0.00281071658084211
0.002810716580481939
0.002810716580223797
0.002810716580849693
0.002810716580735855
0.002810716581044554
0.002810716579721882
0.002810716580399844
0.002810716580847613
0.002810716580091072
0.002810716579975683
0.002810716579875047
0.002810716579453419
0.002810716579891617
0.00281071658016903
0.002810716579634322
0.00281071658001661
0.002810716580066606
0.002810716579933161
0.002810716580021419
0.002810716579790653
0.002810716579568426
0.002810716580048786
0.002810716580108044
0.002810716579914745
0.002810716580058866
0.002810716580202279
0.002810716579816717
0.002810716579547381
0.002810716579509685
0.002810716579590948
0.002810716579767404
0.002810716579964227
0.002810716579144952
0.002810716579591892
0.00281071657999806
0.00281071657942882
0.002810716579614561
0.00281071657894735
0.002810716579398826
0.002810716579452729
0.002810716579283717
0.0028107165794298
0.002810716579422485
0.002810716579345905
0.002810716579733532
0.002810716579170244
0.002810716579876406
0.002810716579888413
0.002810716579503058
0.0028107165798961
0.002810716579888936
0.002810716579488647
0.002810716579941339
0.002810716580114824
0.002810716580222675
0.002810716580035994
0.003458992034560149
0.003458992035219462
0.003458992035214424
0.003458992035391202
0.003458992035331525
0.003458992034680365
0.003458992035730156
0.003458992035302433
0.003458992034624656
0.003458992035271461
0.003458992035650752
0.003458992033861353
0.003458992036058077
0.003458992034862083
0.003458992034187296
0.003458992034876951
0.003458992035507886
0.003458992034142299
0.003458992034713496
0.003458992035282182
0.003458992033685787
0.003458992035858745
0.003458992034426343
0.003458992033574035
0.003458992035485414
0.003458992034561216
0.003458992033678428
0.003458992035505429
0.003458992034332179
0.003458992033634069
0.003458992034532639
0.003458992034956325
0.003458992033404467
0.003458992035227935
0.003458992034039285
0.003458992033517625
0.003458992034391842
0.003458992034680278
0.003458992032969171
0.003458992035049625
0.003458992033794229
0.003458992032919497
0.003458992035091944
0.003458992033880503
0.003458992033042505
0.003458992035204912
0.003458992034068536
0.003458992033054696
0.003458992035516336
0.003458992034253091
0.003458992033531018
0.003458992034553119
0.003458992034852798
0.003458992033501799
0.003458992034553869
0.003458992035261218
0.003458992033908494
0.003458992034908193
0.004251099378758225
0.004251099382068075
0.004251099381670875
0.004251099382709047
0.004251099380408897
0.004251099379667209
0.004251099380809996
0.004251099382143494
0.004251099379510339
0.004251099380988484
0.004251099381740855
0.004251099378436827
0.004251099382638337
0.00425109938027048
0.004251099379030216
0.004251099380598935
0.004251099381566985
0.004251099378873969
0.004251099380325563
0.00425109938097502
0.004251099378253891
0.00425109938222752
0.004251099379844458
0.004251099378386402
0.004251099379751223
0.004251099380899534
0.004251099377948615
0.004251099381921023
0.004251099379375678
0.004251099378251224
0.00425109938004818
0.004251099380725518
0.004251099377878554
0.00425109938091655
0.004251099379100882
0.004251099378007636
0.004251099379542389
0.004251099380402639
0.004251099377192726
0.004251099381044694
0.004251099378975316
0.004251099377338995
0.004251099380610857
0.004251099378982029
0.004251099377714888
0.004251099379475484
0.004251099380330489
0.004251099377259784
0.004251099381673121
0.004251099379028589
0.004251099377437204
0.004251099381452979
0.004251099379405513
0.00425109937796669
0.004251099379747426
0.004251099381110666
0.004251099378311762
0.00425109937967164
0.005160475409280258
0.005160475410030138
0.005160475409427304
0.005160475413870958
0.005160475411239427
0.005160475409312085
0.005160475412341534
0.005160475411018058
0.005160475408617785
0.005160475413898085
0.005160475410552704
0.005160475408164958
0.005160475413773383
0.00516047541016316
0.005160475408109773
0.005160475413409859
0.005160475410441551
0.005160475408475637
0.005160475410418813
0.005160475411836429
0.005160475408400486
0.005160475410447715
0.005160475411347822
0.005160475407306779
0.005160475412509275
0.005160475409393578
0.005160475407147634
0.005160475412711554
0.005160475409199029
0.005160475407236136
0.005160475412054864
0.005160475409116629
0.005160475406866051
0.005160475412356903
0.005160475409027093
0.005160475407188873
0.005160475410645416
0.005160475409113472
0.005160475407025548
0.005160475408747751
0.005160475410352347
0.005160475406925892
0.005160475408959932
0.005160475410224253
0.005160475406936663
0.005160475408990744
0.005160475410321519
0.005160475406601522
0.005160475411224106
0.00516047540879323
0.005160475407103
0.005160475409445369
0.005160475410588203
0.005160475407340904
0.005160475409647716
0.005160475411394891
0.005160475407667477
0.0051604754089019
0.006165280381615468
0.006165280379704623
0.006165280379486355
0.006165280381942454
0.00616528038325352
0.006165280379638921
0.006165280381588472
0.006165280382991249
0.006165280378536087
0.006165280384575686
0.006165280380669011
0.006165280378248462
0.006165280384324613
0.006165280380278436
0.00616528037799213
0.006165280384021118
0.006165280380422705
0.006165280378379022
0.006165280380524147
0.006165280382161471
0.006165280378287428
0.006165280380091742
0.0061652803818023
0.00616528037711596
0.006165280382936197
0.006165280379349413
0.006165280376879396
0.006165280382878385
0.006165280379114352
0.006165280376681661
0.006165280382781244
0.006165280378828819
0.006165280376521435
0.006165280382560554
0.006165280378961699
0.006165280377087232
0.006165280379630089
0.00616528038029221
0.006165280375988605
0.006165280381571862
0.006165280378625547
0.006165280376357604
0.006165280378486298
0.006165280380235472
0.006165280376336887
0.006165280378430048
0.006165280380410386
0.006165280376385508
0.006165280378700114
0.006165280380112143
0.006165280376415464
0.006165280378610854
0.006165280380589131
0.006165280376767748
0.006165280379544419
0.006165280380837472
0.00616528037637438
0.006165280380670143
0.007246271213228947
0.007246271211990321
0.007246271210274859
0.007246271215819064
0.007246271213120685
0.007246271211571084
0.007246271212705936
0.007246271214812934
0.007246271210394537
0.007246271216069219
0.007246271212372273
0.007246271210230191
0.007246271215710662
0.007246271211960659
0.007246271209885115
0.007246271215250887
0.007246271211954406
0.00724627121004217
0.007246271212135716
0.007246271213443257
0.007246271210038457
0.007246271211222664
0.007246271213482344
0.007246271209297438
0.007246271211635282
0.007246271212525851
0.007246271208626492
0.007246271213883259
0.007246271210633259
0.007246271208204319
0.007246271214044107
0.007246271210165594
0.007246271208164333
0.00724627121341464
0.007246271210178231
0.007246271207914473
0.007246271213129068
0.007246271209790095
0.007246271207405983
0.007246271212518768
0.00724627120968732
0.007246271207537506
0.007246271209438868
0.007246271211341402
0.007246271207520237
0.007246271209143098
0.007246271211453493
0.007246271207336017
0.0072462712092716
0.007246271211186588
0.007246271207406604
0.007246271209150719
0.007246271211477166
0.007246271207014758
0.007246271212720166
0.007246271209569364
0.007246271207130869
0.007246271212367752
0.0083341838555612
0.008334183857539786
0.008334183854983856
0.008334183859028616
0.008334183856813684
0.008334183856073442
0.008334183856838385
0.008334183856931535
0.00833418385542567
0.008334183858659144
0.008334183856370095
0.008334183855630201
0.008334183857138917
0.008334183856854055
0.00833418385480995
0.008334183857821243
0.008334183855637698
0.008334183854458789
0.008334183857224137
0.00833418385573704
0.008334183854672375
0.008334183855312153
0.008334183856153535
0.008334183853754829
0.008334183855027799
0.008334183854937916
0.00833418385359418
0.008334183856383109
0.008334183854687942
0.008334183853371908
0.008334183856551046
0.008334183854335131
0.008334183853219896
0.008334183855902413
0.008334183854159261
0.008334183853018129
0.008334183856084316
0.00833418385376635
0.008334183852592856
0.008334183853650598
0.008334183854544552
0.00833418385217962
0.008334183853452276
0.008334183854504261
0.00833418385214613
0.008334183853228452
0.008334183854515708
0.008334183852056637
0.00833418385335139
0.008334183854419914
0.008334183852105707
0.008334183853340383
0.008334183854721035
0.008334183852022198
0.008334183855761363
0.008334183853566378
0.008334183852400222
0.008334183855898646
0.009351963531205426
0.009351963531652588
0.009351963531340535
0.009351963532787728
0.009351963531444237
0.009351963531784033
0.009351963532238146
0.009351963531444621
0.009351963531783589
0.009351963532479969
0.009351963531625099
0.009351963531551155
0.00935196353208771
0.009351963531076583
0.00935196353100619
0.009351963531783865
0.009351963530739315
0.009351963530715933
0.009351963531748594
0.009351963530482076
0.009351963530605857
0.009351963530935144
0.009351963530031608
0.009351963529662935
0.00935196353030656
0.009351963530332439
0.009351963530162816
0.009351963529919301
0.00935196353007761
0.009351963530173094
0.009351963530166423
0.009351963529835633
0.009351963529897591
0.009351963529643301
0.009351963529497223
0.009351963529995604
0.009351963530090653
0.009351963529309193
0.00935196352840106
0.009351963529034973
0.009351963529247236
0.009351963528071846
0.009351963528907964
0.00935196352925923
0.009351963528081278
0.009351963528732084
0.009351963529155637
0.009351963528320876
0.009351963528837187
0.009351963529224325
0.009351963528233968
0.009351963528930727
0.009351963529601827
0.009351963528435439
0.009351963529932183
0.009351963529721305
0.00935196352918591
0.009351963530606144
0.01028442694697579
0.01028442694592827
0.01028442694648127
0.01028442694840776
0.01028442694534624
0.01028442694688207
0.01028442694836841
0.01028442694530889
0.01028442694677036
0.01028442694798011
0.01028442694692092
0.01028442694582964
0.01028442694784841
0.0102844269457151
0.01028442694605928
0.010284426947232
0.01028442694566997
0.01028442694592962
0.01028442694778204
0.01028442694441511
0.0102844269458396
0.01028442694694212
0.01028442694452683
0.01028442694514377
0.01028442694565225
0.0102844269459324
0.01028442694653044
0.01028442694363297
0.0102844269453278
0.01028442694677923
0.0102844269440771
0.01028442694519764
0.01028442694616975
0.01028442694448376
0.01028442694386054
0.01028442694645686
0.01028442694457199
0.01028442694480159
0.0102844269429049
0.01028442694419531
0.01028442694550138
0.01028442694249214
0.01028442694421004