/*--------------------------------*- C++ -*----------------------------------*\
| =========                 |                                                 |
| \\      /  F ield         | OpenFOAM: The Open Source CFD Toolbox           |
|  \\    /   O peration     | Version:  v1812                                 |
|   \\  /    A nd           | Web:      www.OpenFOAM.com                      |
|    \\/     M anipulation  |                                                 |
\*---------------------------------------------------------------------------*/
FoamFile
{
    version     2.0;
    format      ascii;
    class       volScalarField;
    location    "20000";
    object      p;
}
// * * * * * * * * * * * * * * * * * * * * * * * * * * * * * * * * * * * * * //

dimensions      [0 2 -2 0 0 0 0];


internalField   nonuniform List<scalar> 
3770
(
3.202736644116566e-14
1.488423241541037e-10
1.18783546714827e-10
1.432768456234708e-10
1.544068839299049e-10
1.449418244521165e-10
1.730776902243526e-10
1.614008483209296e-10
2.039352863137853e-10
1.804993230189853e-10
2.194856693407008e-10
2.033082373850259e-10
2.317983255675871e-10
2.348335110916621e-10
2.54730141004448e-10
2.458987424536726e-10
2.813890949033279e-10
2.69263295584997e-10
2.894632574759914e-10
2.989416491110206e-10
3.106904522405378e-10
3.085371121486864e-10
3.377875797395562e-10
3.30917165444481e-10
3.444696112935854e-10
3.593033588010667e-10
3.668431660907713e-10
3.683124336525004e-10
3.936655080522065e-10
3.895404924752631e-10
4.004051226156382e-10
4.173482312790065e-10
4.216632609046225e-10
4.245880801996001e-10
4.482898535203052e-10
4.454912853204985e-10
4.54865250726769e-10
4.726132501273473e-10
4.744845316930164e-10
4.786264684651513e-10
5.005906980970307e-10
4.974151738430837e-10
5.055030525794743e-10
5.234458322481788e-10
5.245925054939358e-10
5.288496577406975e-10
5.504555836961248e-10
5.475067531910501e-10
5.546887333947417e-10
5.740866977228423e-10
5.767468199845944e-10
5.819651305394584e-10
6.056513684454301e-10
6.042503639709983e-10
6.066789887293782e-10
6.404657711676001e-10
6.572412091838797e-10
4.369676265584122e-10
-9.097644872630288e-14
1.485310856473635e-10
1.188800708738627e-10
1.432963281758534e-10
1.54454589683376e-10
1.448798859911025e-10
1.730411499486501e-10
1.613657521980608e-10
2.039451572925e-10
1.805189723896211e-10
2.194957965669117e-10
2.032887778257448e-10
2.317860384055952e-10
2.348823134649018e-10
2.54703830281717e-10
2.458784378173385e-10
2.814209610356651e-10
2.692488494896848e-10
2.894424992340768e-10
2.989848923109191e-10
3.106694584529606e-10
3.085161036179781e-10
3.378188229444473e-10
3.309008723601339e-10
3.444590201109044e-10
3.59346724661792e-10
3.668203212309659e-10
3.682879156528301e-10
3.93700225907575e-10
3.895206411861845e-10
4.003864937196048e-10
4.173886896411948e-10
4.216397766420072e-10
4.245699423558018e-10
4.483285544958036e-10
4.454730672523325e-10
4.548457060667761e-10
4.726539679345383e-10
4.744680500797907e-10
4.786093673154459e-10
5.006262198981781e-10
4.973939367255038e-10
5.054895493369103e-10
5.234873581880129e-10
5.245725683865805e-10
5.288238066654733e-10
5.504902144021342e-10
5.474932139171162e-10
5.546700436255967e-10
5.741250669114872e-10
5.767288614895219e-10
5.819425255358834e-10
6.056815205441098e-10
6.042268900038008e-10
6.066679014312647e-10
6.404849707274772e-10
6.572709144999916e-10
4.373163078179775e-10
-5.873171107747683e-13
1.479736531923656e-10
1.193410775393345e-10
1.430491799508353e-10
1.543387867704033e-10
1.44841631979177e-10
1.730753814322429e-10
1.613580362501761e-10
2.03920644624887e-10
1.806227394314106e-10
2.19377822283043e-10
2.033051498610392e-10
2.320045672217098e-10
2.347215674703396e-10
2.546261522256402e-10
2.460669803927919e-10
2.81262122207868e-10
2.69261408775119e-10
2.89629064232781e-10
2.987871747913997e-10
3.106590139004396e-10
3.087070700538282e-10
3.376156573898815e-10
3.308999344697364e-10
3.446855322518328e-10
3.591638787338379e-10
3.667970334581525e-10
3.684595167252184e-10
3.935085451059686e-10
3.895343810231046e-10
4.005913108758709e-10
4.171877182159988e-10
4.216041285155063e-10
4.247720288108539e-10
4.481602451347348e-10
4.454794009315996e-10
4.55048271134887e-10
4.724575578081237e-10
4.744580951941646e-10
4.787995449433141e-10
5.004366642773223e-10
4.973850525677924e-10
5.056964421718756e-10
5.233003914012357e-10
5.245613404519474e-10
5.290050851545303e-10
5.502912539499276e-10
5.474842010460581e-10
5.548708370569567e-10
5.739274408240986e-10
5.766720241963451e-10
5.82095370495787e-10
6.054573039275341e-10
6.041581367459266e-10
6.067996364133923e-10
6.402429728737644e-10
6.57497876993279e-10
4.383895997976303e-10
-1.527129182890505e-12
1.471543804302618e-10
1.20220843283335e-10
1.423161374328303e-10
1.54038879122392e-10
1.449618733883859e-10
1.732986402910295e-10
1.61467899678881e-10
2.037310705859311e-10
1.807483072960932e-10
2.191200793345556e-10
2.034288594942271e-10
2.325205376380059e-10
2.342339346895731e-10
2.545480104619085e-10
2.46550506980311e-10
2.807765937940708e-10
2.693484421484795e-10
2.900878391874494e-10
2.982270692743881e-10
3.106996621151917e-10
3.091919470765924e-10
3.370559764085934e-10
3.309515787150312e-10
3.452255629880976e-10
3.586380046867098e-10
3.668253586832422e-10
3.68908049968856e-10
3.929583704924548e-10
3.896433506728553e-10
4.010907427599483e-10
4.166083742463633e-10
4.216153877455511e-10
4.252771943864615e-10
4.476557291386223e-10
4.455643969397762e-10
4.555428201614937e-10
4.71888104101235e-10
4.744944531883985e-10
4.79273705695333e-10
4.999094451858206e-10
4.974340996101712e-10
5.061900488582945e-10
5.227546589439798e-10
5.246039294815273e-10
5.294743016604259e-10
5.497280821454569e-10
5.474921293977719e-10
5.553778863930257e-10
5.733885207783456e-10
5.76572325459327e-10
5.82497810724348e-10
6.048792886468781e-10
6.040865583648653e-10
6.071353076257851e-10
6.395912003874377e-10
6.58009090187514e-10
4.40332249739311e-10
-2.863637854528599e-12
1.462058908943077e-10
1.212094995299617e-10
1.413662595187259e-10
1.537152241922564e-10
1.451961702588657e-10
1.737077076347125e-10
1.616057852245655e-10
2.033495549808033e-10
1.808332493078897e-10
2.188851364264419e-10
2.03610052721192e-10
2.331438208517529e-10
2.336372950570691e-10
2.544945067399657e-10
2.471336183516036e-10
2.801698750171932e-10
2.694387217710813e-10
2.90642422324684e-10
2.975687812068244e-10
3.107323165488685e-10
3.097647355705303e-10
3.36400765463647e-10
3.309968154644866e-10
3.458742968857647e-10
3.580152738996184e-10
3.668860407243968e-10
3.694487030697312e-10
3.922739269597886e-10
3.897796489495339e-10
4.016862520042123e-10
4.159045383152166e-10
4.216564398219261e-10
4.258837888493817e-10
4.470328490581241e-10
4.45676133111525e-10
4.561287312265601e-10
4.711929125196381e-10
4.745542256221091e-10
4.798329841743103e-10
4.992691017648497e-10
4.97500781094076e-10
5.067691198795064e-10
5.220900439078379e-10
5.246708161671302e-10
5.300296110929284e-10
5.490291810343156e-10
5.474724268075538e-10
5.55994808566358e-10
5.727667605377461e-10
5.764810928873231e-10
5.829934652174606e-10
6.041911077514986e-10
6.040527253619192e-10
6.075784577725587e-10
6.388506958688261e-10
6.58708046281923e-10
4.425822500806134e-10
-4.465135434433933e-12
1.452216094460689e-10
1.221506452516507e-10
1.404101945953453e-10
1.534668321428805e-10
1.454175354948407e-10
1.742136366528201e-10
1.61714402744095e-10
2.028346982463017e-10
1.809213345972047e-10
2.187500634225114e-10
2.037875970359731e-10
2.337145435238964e-10
2.330872028539224e-10
2.544791471038864e-10
2.476656105529394e-10
2.795965519684715e-10
2.69514116397229e-10
2.911409016073116e-10
2.969823560178929e-10
3.107666421754139e-10
3.102740691869812e-10
3.358013675599721e-10
3.310342276080491e-10
3.464603724291195e-10
3.57455705038695e-10
3.669654525859175e-10
3.699404514224022e-10
3.916363696198284e-10
3.898928855637868e-10
4.022157893303649e-10
4.152783620802783e-10
4.217130692672192e-10
4.264281800330767e-10
4.464609072778263e-10
4.45787261079099e-10
4.566453532684812e-10
4.705562655458614e-10
4.746430879818423e-10
4.803235099610422e-10
4.986683800221801e-10
4.975845228760676e-10
5.072766240107807e-10
5.214715406977219e-10
5.247596604752591e-10
5.305144337358961e-10
5.483617942702918e-10
5.474436072422399e-10
5.565606696505983e-10
5.722113543763852e-10
5.764540251396754e-10
5.834497023778128e-10
6.035271772740009e-10
6.040492729558415e-10
6.079992839465764e-10
6.382448671067885e-10
6.59561792683455e-10
4.447617342551378e-10
-6.253082559466384e-12
1.443165486258162e-10
1.230528205859237e-10
1.394776199697616e-10
1.532629457381815e-10
1.455220878336458e-10
1.748129541549484e-10
1.619133315093787e-10
2.022190363029182e-10
1.809906260663488e-10
2.186827460769238e-10
2.039348809312918e-10
2.3422001281314e-10
2.325843178759137e-10
2.545085897383383e-10
2.481368037301134e-10
2.790579087518889e-10
2.695910264952814e-10
2.915729089046716e-10
2.96457242712787e-10
3.108290381128463e-10
3.107181668013352e-10
3.352443589917298e-10
3.310817187034435e-10
3.46968486321172e-10
3.569544992717822e-10
3.670360990974046e-10
3.703817016172747e-10
3.910867089061455e-10
3.899631655581363e-10
4.026705271402643e-10
4.147603761917752e-10
4.217635828172276e-10
4.268966090732962e-10
4.45966363127521e-10
4.458823638070583e-10
4.570854915526423e-10
4.700024582244638e-10
4.747507390140887e-10
4.807387001531081e-10
4.981201448747042e-10
4.9769507024413e-10
5.077095447650854e-10
5.20901939166466e-10
5.248644180403661e-10
5.309231398896285e-10
5.477469013347351e-10
5.474301961745959e-10
5.570670019996191e-10
5.717215358916648e-10
5.764547268191517e-10
5.838563610377224e-10
6.029240941074804e-10
6.040776979292059e-10
6.083868043739608e-10
6.377818789236152e-10
6.605355023095859e-10
4.4672597683288e-10
-8.214174393872084e-12
1.435739573359117e-10
1.239453063773608e-10
1.385572454386742e-10
1.531059146173657e-10
1.455194070253913e-10
1.754601211015701e-10
1.622306420823426e-10
2.015269307470988e-10
1.809832271721613e-10
2.18662054942044e-10
2.040772170743621e-10
2.346799022074359e-10
2.32109991717943e-10
2.545721737056336e-10
2.485699396873602e-10
2.785384203687827e-10
2.696701772186193e-10
2.919606974813892e-10
2.959808314452026e-10
3.108804694277302e-10
3.11115083311297e-10
3.3474022592538e-10
3.311411654722374e-10
3.474239888949656e-10
3.56485898766054e-10
3.670793838527788e-10
3.70793266058737e-10
3.9061552595531e-10
3.90003463768999e-10
4.030784914817124e-10
4.143161652384507e-10
4.218040090065265e-10
4.273175017649504e-10
4.455299888820125e-10
4.459361377892393e-10
4.574755901029453e-10
4.695306914080522e-10
4.748560528042619e-10
4.811040681025028e-10
4.976148943046448e-10
4.978207117581791e-10
5.080971437442681e-10
5.203710344400037e-10
5.249728728526864e-10
5.312801066728658e-10
5.471743417237146e-10
5.474391868410919e-10
5.575385922403637e-10
5.712810823950455e-10
5.76442281598443e-10
5.842203147170945e-10
6.023880727804852e-10
6.041245108828503e-10
6.087537508682283e-10
6.374595268869739e-10
6.616315756627467e-10
4.483961430943935e-10
-1.039201858895521e-11
1.43041773768507e-10
1.248323364601872e-10
1.376525767088348e-10
1.530275835402983e-10
1.454843455502808e-10
1.760570961733805e-10
1.625472311054289e-10
2.00841645187664e-10
1.809438845474947e-10
2.186638156906463e-10
2.042349362289697e-10
2.351090057229042e-10
2.316532418002267e-10
2.546433495698589e-10
2.489799674567508e-10
2.780445337396266e-10
2.697364933187864e-10
2.923159484837945e-10
2.955538288057082e-10
3.109138229464581e-10
3.114785906115376e-10
3.342731186652997e-10
3.312180098078232e-10
3.478472040387653e-10
3.560296201040066e-10
3.67107251536637e-10
3.711853654049776e-10
3.901817795794456e-10
3.900547516540336e-10
4.034635985390298e-10
4.138847446488555e-10
4.218609518006119e-10
4.277174753274753e-10
4.451080957652576e-10
4.459562830861644e-10
4.578410568130649e-10
4.691181030278212e-10
4.749533510532283e-10
4.814405255992908e-10
4.971372446145133e-10
4.979461405046903e-10
5.084595454920284e-10
5.198779181594367e-10
5.250739285504487e-10
5.316047247447383e-10
5.46637541316266e-10
5.47475123380711e-10
5.579862205735534e-10
5.708648161086326e-10
5.764216907567687e-10
5.845498627661072e-10
6.018938654363543e-10
6.041609603815035e-10
6.090998203825078e-10
6.373049179808095e-10
6.629146507693705e-10
4.497049253400648e-10
-1.289468840758496e-11
1.427530495731615e-10
1.257004593427605e-10
1.368003312698379e-10
1.530794944346431e-10
1.454252480753516e-10
1.765476143217193e-10
1.628010688521465e-10
2.002083170144604e-10
1.808967831793877e-10
2.186619777605759e-10
2.044358827119694e-10
2.355201751817457e-10
2.312030914127663e-10
2.546930932167533e-10
2.493735289525279e-10
2.775796995071616e-10
2.698066025369335e-10
2.926464639384364e-10
2.95141744804338e-10
3.109724942576024e-10
3.118271926463007e-10
3.337886654368815e-10
3.313216718455708e-10
3.482530220383262e-10
3.555686637291672e-10
3.671486184336332e-10
3.715646241301689e-10
3.897378004626037e-10
3.901403555830662e-10
4.038427326338445e-10
4.134330919349937e-10
4.219384891076272e-10
4.281099403536038e-10
4.446751196466345e-10
4.459844198728658e-10
4.582020938644774e-10
4.687119279628679e-10
4.750585546835526e-10
4.817658544444414e-10
4.966652563765112e-10
4.980608892113849e-10
5.088118490825041e-10
5.194224078930792e-10
5.251525986224278e-10
5.319126184135309e-10
5.461327669529585e-10
5.475413134763334e-10
5.584161834620948e-10
5.704378451159771e-10
5.764317891913666e-10
5.848567990096777e-10
6.013876312515496e-10
6.041897627739321e-10
6.09428275474349e-10
6.37337179659922e-10
6.645111459924124e-10
4.505673119672973e-10
-1.583888664699038e-11
1.428260659981993e-10
1.266102758762797e-10
1.35974327422834e-10
1.532781156007576e-10
1.452887451301824e-10
1.768776891268182e-10
1.629735258578e-10
1.996424693790343e-10
1.80923348862656e-10
2.186299126436667e-10
2.046524693431593e-10
2.359196779574348e-10
2.307404912663482e-10
2.547444355176152e-10
2.497567928032473e-10
2.770959295960554e-10
2.699378661649367e-10
2.929626300200131e-10
2.946897893214042e-10
3.110799209061419e-10
3.12177609370355e-10
3.332560739820038e-10
3.314592302912984e-10
3.48649244816995e-10
3.550846502326845e-10
3.672365018152434e-10
3.71939156747381e-10
3.892463144159075e-10
3.902648785734355e-10
4.042233700421408e-10
4.129580600995079e-10
4.220190943199519e-10
4.284979863274551e-10
4.442302686624396e-10
4.460547920432684e-10
4.585680395401053e-10
4.682692667924777e-10
4.751929553446051e-10
4.820914705156912e-10
4.96173125989804e-10
4.981771218029263e-10
5.091699891908022e-10
5.189816775721162e-10
5.252091017884085e-10
5.322233520623779e-10
5.456461642186389e-10
5.476436101212131e-10
5.58829046540264e-10
5.699674361508654e-10
5.764956331317504e-10
5.851511544108617e-10
6.008322519623836e-10
6.042251163707362e-10
6.097413677847585e-10
6.375928757058028e-10
6.665484986722138e-10
4.508618377286377e-10
-1.929940520287729e-11
1.433689232039849e-10
1.275812760925919e-10
1.351592514407876e-10
1.536089464014362e-10
1.449702952215076e-10
1.771099470260659e-10
1.630838777979156e-10
1.990268103575345e-10
1.810302863645777e-10
2.186408331617382e-10
2.048760251259239e-10
2.362882869372806e-10
2.302612840971485e-10
2.548512185603176e-10
2.501371131801172e-10
2.765378393112853e-10
2.701502897564154e-10
2.932629375399508e-10
2.941937270115881e-10
3.11235128334009e-10
3.125318028120146e-10
3.326703860306892e-10
3.316383434023779e-10
3.490292692342903e-10
3.545688562771838e-10
3.673853132953699e-10
3.723109653630263e-10
3.887045623914477e-10
3.904201209022386e-10
4.045936253982846e-10
4.124668092936807e-10
4.221162186737902e-10
4.288793498799293e-10
4.437649947080854e-10
4.461874343921456e-10
4.589309591563198e-10
4.677790900376978e-10
4.753690968965564e-10
4.824140427812195e-10
4.956521317755542e-10
4.983270524605411e-10
5.095291524288865e-10
5.185185472906412e-10
5.252989582297534e-10
5.325413794438993e-10
5.451321331673346e-10
5.47792552538882e-10
5.592148696358213e-10
5.694420245539116e-10
5.766055403814341e-10
5.854281553421312e-10
6.002352961238554e-10
6.042779210466235e-10
6.10033955023845e-10
6.381582138225825e-10
6.691223506612087e-10
4.5046299868896e-10
-2.327701643887545e-11
1.442958997730007e-10
1.285094649018264e-10
1.343507791930706e-10
1.540647798730811e-10
1.444020131923263e-10
1.773337978366443e-10
1.631447579462962e-10
1.983315214231449e-10
1.811705194524792e-10
2.18777454043287e-10
2.051240846670823e-10
2.365635678320261e-10
2.298169205376509e-10
2.549928465207995e-10
2.505058700498354e-10
2.759454166511391e-10
2.7040487009864e-10
2.935228231831027e-10
2.937136668045986e-10
3.114053382472431e-10
3.128697666127753e-10
3.320745472172952e-10
3.318484468900884e-10
3.493625828172207e-10
3.54052392741983e-10
3.675644552415299e-10
3.726580951921726e-10
3.88159711212434e-10
3.906257622688324e-10
4.049146014450846e-10
4.11953181976969e-10
4.222805817897883e-10
4.292345349423838e-10
4.432802759796072e-10
4.463787305572036e-10
4.592587591783334e-10
4.672870107347935e-10
4.755672610848369e-10
4.827083672927629e-10
4.951482131274373e-10
4.985271459989907e-10
5.098499749861852e-10
5.180379675212647e-10
5.254562398557457e-10
5.32836318231469e-10
5.445998468900733e-10
5.479800272752761e-10
5.595367210979409e-10
5.68892165954222e-10
5.767277339498697e-10
5.856613406125926e-10
5.996517400498063e-10
6.043294471130447e-10
6.102884850122908e-10
6.391631122732704e-10
6.722920663825288e-10
4.493989376330534e-10
-2.771608922026997e-11
1.453294577554027e-10
1.29372640324721e-10
1.333026949070807e-10
1.545614961829013e-10
1.436554436431051e-10
1.775727296564503e-10
1.631109076872976e-10
1.97733600312605e-10
1.81372302348843e-10
2.189583552874751e-10
2.053556196185973e-10
2.367070391624586e-10
2.294889605703266e-10
2.550872018495172e-10
2.508304939267662e-10
2.754374076704069e-10
2.706429615950511e-10
2.9369884390645e-10
2.933485437924296e-10
3.115182908757393e-10
3.131525958572459e-10
3.315686416661426e-10
3.320523487168993e-10
3.495979661930715e-10
3.536214809976861e-10
3.677267077799177e-10
3.72930286341137e-10
3.876961452666441e-10
3.908763305615259e-10
4.051402835988655e-10
4.114724051595041e-10
4.224878382975534e-10
4.295119459801035e-10
4.428583569198864e-10
4.465918249518095e-10
4.59492433216643e-10
4.668855249160983e-10
4.757585159700296e-10
4.829333996669651e-10
4.947448899027347e-10
4.987391704435763e-10
5.100829244577265e-10
5.176232965464858e-10
5.256333619868932e-10
5.330442178159767e-10
5.441447767665019e-10
5.481726496354388e-10
5.597337974481786e-10
5.68399795020752e-10
5.76816400611773e-10
5.857898609058278e-10
5.991679049791479e-10
6.043444955790003e-10
6.104863727885377e-10
6.407234643310533e-10
6.760540582971227e-10
4.480633527759112e-10
-3.259519088374526e-11
1.458038029839499e-10
1.302496929081689e-10
1.317367955248106e-10
1.550716596072464e-10
1.428089269078003e-10
1.778046280059608e-10
1.629338147629002e-10
1.974077240031079e-10
1.816911533457902e-10
2.189909815871823e-10
2.055081639602024e-10
2.367567553279277e-10
2.293489957676203e-10
2.550855357027606e-10
2.510622244140967e-10
2.751083765739005e-10
2.708475150423492e-10
2.937276321660253e-10
2.931776132172743e-10
3.115469019833857e-10
3.133295168451379e-10
3.312363335463807e-10
3.322375644362631e-10
3.496901744399369e-10
3.533691074373071e-10
3.678377144436969e-10
3.730745164319814e-10
3.874010981621001e-10
3.91095560868845e-10
4.052386287426364e-10
4.111583344334709e-10
4.226369628013404e-10
4.296481930458741e-10
4.426147586371581e-10
4.467815031371538e-10
4.595691821109817e-10
4.666702767817317e-10
4.759261464462582e-10
4.83035624401258e-10
4.94530099237024e-10
4.989036399158555e-10
5.101784170162158e-10
5.173854611884749e-10
5.257573947255198e-10
5.331078906313799e-10
5.438672096031411e-10
5.48328970100669e-10
5.597511589996106e-10
5.680590543312151e-10
5.768353220561763e-10
5.857331205819544e-10
5.988443996731703e-10
6.043022827646409e-10
6.10622004609792e-10
6.42808936332104e-10
6.803569519452917e-10
4.474109553648566e-10
-3.814965665630876e-11
1.446458062469105e-10
1.313236422282529e-10
1.295823678614306e-10
1.556881566779232e-10
1.417944806248477e-10
1.780481380829045e-10
1.626259174452437e-10
1.973306254787496e-10
1.820922919021236e-10
2.188266020793463e-10
2.056040813646277e-10
2.367476567512643e-10
2.293787457535174e-10
2.550194132349748e-10
2.512071216390147e-10
2.749144007316979e-10
2.710570095729758e-10
2.936065458590422e-10
2.931664904043734e-10
3.115318373924509e-10
3.134152814848259e-10
3.310417586328301e-10
3.324289125636544e-10
3.496621068790425e-10
3.532745846669199e-10
3.679064558863593e-10
3.731101333452479e-10
3.872376999743732e-10
3.912791109418545e-10
4.052256354220814e-10
4.109990735993909e-10
4.22723849804761e-10
4.296659899304425e-10
4.425301147748046e-10
4.469471962852773e-10
4.595225798246218e-10
4.666172996736688e-10
4.76052544032961e-10
4.830143507573879e-10
4.944784507941688e-10
4.99042813907177e-10
5.101472896451501e-10
5.173080301961402e-10
5.258301044995811e-10
5.330393637305353e-10
5.437544951095444e-10
5.48443513693355e-10
5.596159216914946e-10
5.678548425013787e-10
5.767794557984128e-10
5.855061188059326e-10
5.986371862665303e-10
6.042314074990505e-10
6.107550064057456e-10
6.450970988046733e-10
6.851752610447705e-10
4.489186778158029e-10
-4.462622461615634e-11
1.40822961167311e-10
1.327670150831999e-10
1.267543562631459e-10
1.565156598101699e-10
1.405087351570237e-10
1.78370598907152e-10
1.622416572490364e-10
1.973355014324557e-10
1.824949186409277e-10
2.18600181655159e-10
2.057228005584079e-10
2.366939791215097e-10
2.294767372698747e-10
2.549341445284896e-10
2.513466190427882e-10
2.747345645078181e-10
2.712994566688795e-10
2.93420786745242e-10
2.932069809570632e-10
3.115052479077707e-10
3.134887080057319e-10
3.308674339778759e-10
3.326447403063466e-10
3.49582107532667e-10
3.532274727629039e-10
3.679739290310396e-10
3.731239566468589e-10
3.870819048167937e-10
3.91467476519841e-10
4.051741801152524e-10
4.108761278137724e-10
4.227988560330376e-10
4.296610150654295e-10
4.424913236418043e-10
4.471290695608538e-10
4.594376192641662e-10
4.666119458236951e-10
4.761720394614464e-10
4.829377782706965e-10
4.94459065651967e-10
4.991920671980531e-10
5.100608570820105e-10
5.172926991827994e-10
5.259186866265421e-10
5.329131138975267e-10
5.436802422125285e-10
5.485534405613995e-10
5.594105264185319e-10
5.676773507360627e-10
5.766854761817989e-10
5.851970547261529e-10
5.984237894899074e-10
6.042122253761785e-10
6.109605988472505e-10
6.470457760708911e-10
6.904393996553076e-10
4.542038867560268e-10
-5.189102249744897e-11
1.337035180784135e-10
1.346159786399088e-10
1.231324411464775e-10
1.575700722996214e-10
1.389411028170304e-10
1.787973213131648e-10
1.617818275881061e-10
1.973840965326073e-10
1.828631937559404e-10
2.183731079114714e-10
2.058663075452493e-10
2.366294308204783e-10
2.295950186106015e-10
2.548338154084531e-10
2.515275564728127e-10
2.745268838574188e-10
2.715657463653082e-10
2.932302017076806e-10
2.932442797788109e-10
3.114704154236202e-10
3.135967788774354e-10
3.306570634333229e-10
3.328778184976322e-10
3.495028659722434e-10
3.531706472472864e-10
3.680448409949678e-10
3.731720149695703e-10
3.868849746949202e-10
3.9167633384298e-10
4.051382183008491e-10
4.107295067468712e-10
4.228710093440516e-10
4.29681234126222e-10
4.424431863296319e-10
4.473364735998724e-10
4.593478878493194e-10
4.666117174323705e-10
4.763085995350449e-10
4.828609427949566e-10
4.944257941794917e-10
4.99356304332451e-10
5.099615167951287e-10
5.172846909602217e-10
5.260254238859287e-10
5.327873297955458e-10
5.435907049138913e-10
5.486656433628602e-10
5.591818643448885e-10
5.674782814079766e-10
5.765684828083978e-10
5.84847206796409e-10
5.981374768636352e-10
6.042855282126736e-10
6.112696686336062e-10
6.482236932865513e-10
6.958714160809494e-10
4.644422749688589e-10
-5.946181067004263e-11
1.231718053118601e-10
1.367489015503653e-10
1.187366651490801e-10
1.587998904965085e-10
1.371336788598318e-10
1.793533107466347e-10
1.612138471620418e-10
1.975068758649327e-10
1.83182387935005e-10
2.181529981895519e-10
2.060215163327532e-10
2.365839393420092e-10
2.297064002288419e-10
2.547301383290253e-10
2.51751935944839e-10
2.742874689693132e-10
2.718450703422768e-10
2.930617054140383e-10
2.932520742729691e-10
3.11438074661776e-10
3.137512985553547e-10
3.303956338731482e-10
3.33126071291348e-10
3.494506331661567e-10
3.530791776981369e-10
3.681244975219686e-10
3.732777939072959e-10
3.866298195316641e-10
3.919074985149921e-10
4.05138895611584e-10
4.105395905477855e-10
4.229437554589847e-10
4.297462190507739e-10
4.423689344779229e-10
4.475644932525085e-10
4.592667398181438e-10
4.666051977144741e-10
4.764554267379219e-10
4.828040511701431e-10
4.943766904337717e-10
4.995488642730095e-10
5.098599849597681e-10
5.172598062820312e-10
5.261579671200916e-10
5.32677918702769e-10
5.434742986107393e-10
5.487910120844278e-10
5.589424194189051e-10
5.672443604019088e-10
5.764440725933028e-10
5.844708315295644e-10
5.977512992625174e-10
6.044593055010857e-10
6.116900672444001e-10
6.484283152132563e-10
7.009998887396721e-10
4.799743633585933e-10
-6.672314604410895e-11
1.096086831056813e-10
1.389703193667197e-10
1.137222337938966e-10
1.601395581702018e-10
1.351502729067435e-10
1.800440349614996e-10
1.605245598145819e-10
1.977150602147774e-10
1.834411635020397e-10
2.179610106290944e-10
2.061717442664527e-10
2.365811094212012e-10
2.297807837298683e-10
2.546377555288169e-10
2.52016111272047e-10
2.74026943505738e-10
2.721193108888549e-10
2.929277530494583e-10
2.932158996828954e-10
3.114236377185531e-10
3.13949111321338e-10
3.300826202522407e-10
3.333969961699172e-10
3.494322467116538e-10
3.529358205963945e-10
3.682146922216513e-10
3.734488443085299e-10
3.863151749866824e-10
3.921572078358982e-10
4.051892130834831e-10
4.102991430892924e-10
4.230114543075061e-10
4.298697176038081e-10
4.422710960289295e-10
4.47795020137436e-10
4.591993607400631e-10
4.666020919056397e-10
4.766184177501477e-10
4.827665960313279e-10
4.943036877370365e-10
4.997825335096061e-10
5.097564087952659e-10
5.172098741827258e-10
5.263242222124576e-10
5.325862703586713e-10
5.433318182777485e-10
5.489346175071986e-10
5.586875936371524e-10
5.669755881206821e-10
5.763361085663516e-10
5.840756178952898e-10
5.972655286663522e-10
6.047176886093521e-10
6.121984583115998e-10
6.476985207309727e-10
7.053330674594195e-10
5.002774144625765e-10
-7.31090012640797e-11
9.380201131008169e-11
1.410611645111036e-10
1.083052679154259e-10
1.615462893654465e-10
1.330374894124507e-10
1.808534750898056e-10
1.597442710681959e-10
1.979991520866011e-10
1.836294296890064e-10
2.178369096489732e-10
2.062793446816866e-10
2.366269696534913e-10
2.298223939176277e-10
2.545628386578986e-10
2.523066329828112e-10
2.737732599444904e-10
2.723598370451539e-10
2.928246622207826e-10
2.93150598438093e-10
3.114266394521674e-10
3.141794605137843e-10
3.297398431956326e-10
3.336735570254263e-10
3.494485237265881e-10
3.527533510262295e-10
3.683082844068782e-10
3.736818930506632e-10
3.859564989423311e-10
3.924087247125857e-10
4.052913444788745e-10
4.10021160653678e-10
4.230585504662749e-10
4.300446740000646e-10
4.42172464249057e-10
4.480403514741301e-10
4.591297366684174e-10
4.665994640214934e-10
4.768128327996665e-10
4.82736633791643e-10
4.942069532707539e-10
5.000491861649074e-10
5.09647416479479e-10
5.171512904172706e-10
5.265174219229214e-10
5.325015342205125e-10
5.431727996238188e-10
5.490999578539654e-10
5.58409143043468e-10
5.666828680839155e-10
5.762383058771139e-10
5.836595230452184e-10
5.967073924755187e-10
6.049888066073388e-10
6.127423089005719e-10
6.462666888389897e-10
7.085186705958178e-10
5.242048970350791e-10
-7.819496243776842e-11
7.682256640710429e-11
1.428466641008792e-10
1.026585456342067e-10
1.630254233830069e-10
1.308065424602754e-10
1.817284788880529e-10
1.589692758337402e-10
1.983389406596118e-10
1.837064162343209e-10
2.178462269540003e-10
2.06314136737657e-10
2.366909186616152e-10
2.298802567397038e-10
2.54500720178682e-10
2.52579323586704e-10
2.735849538941553e-10
2.725276380146542e-10
2.927386004275124e-10
2.931228608717417e-10
3.1141497240051e-10
3.144021937871806e-10
3.294170254728384e-10
3.339276393693097e-10
3.494794611396874e-10
3.525890994214259e-10
3.68395017706509e-10
3.739483823154028e-10
3.856006673309606e-10
3.926358815545501e-10
4.054142076675693e-10
4.097600703170945e-10
4.230707371504769e-10
4.302327263968231e-10
4.421263310271307e-10
4.483014915800665e-10
4.590189679415146e-10
4.666345927392945e-10
4.770100867153103e-10
4.826711905281575e-10
4.941564332010837e-10
5.003410767190433e-10
5.094971240791985e-10
5.171341326475261e-10
5.267218957156734e-10
5.323881473208521e-10
5.430510497694703e-10
5.492765778945975e-10
5.580810643383857e-10
5.664208684162672e-10
5.761343356669938e-10
5.831828460832319e-10
5.961253771123717e-10
6.051994511312602e-10
6.132277177297818e-10
6.444642344923166e-10
7.103410396150296e-10
5.50229788359329e-10
-8.178081416344868e-11
5.969262077780405e-11
1.442849739755198e-10
9.692103313769691e-11
1.645766204921732e-10
1.285279768505871e-10
1.826134016507961e-10
1.582703428451677e-10
1.987093953061195e-10
1.836421235927479e-10
2.180297371420802e-10
2.062727933458022e-10
2.367361936867182e-10
2.299962336491777e-10
2.544471610377039e-10
2.527886500005368e-10
2.734997008743175e-10
2.726333322565232e-10
2.926482048031091e-10
2.931685560902171e-10
3.113783054686126e-10
3.145735705839724e-10
3.291496727105084e-10
3.341659716740491e-10
3.494978369344674e-10
3.524735236496329e-10
3.684708213666713e-10
3.742120904599823e-10
3.85296327797489e-10
3.928340508610736e-10
4.055205183408488e-10
4.095629638540382e-10
4.230419391710367e-10
4.303873725800419e-10
4.421843235516451e-10
4.485625854858533e-10
4.588238667062645e-10
4.667619120004398e-10
4.772110517035397e-10
4.825280838458589e-10
4.941917448274917e-10
5.006504091994893e-10
5.092718997710051e-10
5.172110094488631e-10
5.269289177181692e-10
5.322088384998455e-10
5.430157205708895e-10
5.494515228695936e-10
5.576737383585553e-10
5.662418512945133e-10
5.760092575032581e-10
5.826069558281997e-10
5.955716386480812e-10
6.053147022981245e-10