/*--------------------------------*- C++ -*----------------------------------*\
| =========                 |                                                 |
| \\      /  F ield         | OpenFOAM: The Open Source CFD Toolbox           |
|  \\    /   O peration     | Version:  v1812                                 |
|   \\  /    A nd           | Web:      www.OpenFOAM.com                      |
|    \\/     M anipulation  |                                                 |
\*---------------------------------------------------------------------------*/
FoamFile
{
    version     2.0;
    format      ascii;
    class       surfaceScalarField;
    location    "20000";
    object      phi;
}
// * * * * * * * * * * * * * * * * * * * * * * * * * * * * * * * * * * * * * //

dimensions      [0 3 -1 0 0 0 0];
oriented        oriented;


internalField   nonuniform List<scalar> 
7417
(
-0.001050853179095537
2.872539155017777e-13
-0.001050853179001044
-9.43735503004731e-14
-0.001050853179060211
5.916684292014802e-14
-0.001050853179049494
-1.099384876494827e-14
-0.001050853179002526
-4.718537738441228e-14
-0.001050853179002232
-1.63846642365664e-16
-0.001050853178964235
-3.775353146686296e-14
-0.001050853178998242
3.389662114977087e-14
-0.001050853178978283
-2.044367750175647e-14
-0.00105085317899663
1.28412013640311e-14
-0.001050853178970358
-2.065747332996308e-14
-0.001050853178986262
1.627527959009055e-14
-0.001050853178978059
-8.265998470934021e-15
-0.001050853178990998
1.266567813477008e-14
-0.001050853178962729
-2.841694032216698e-14
-0.001050853178995556
3.284533608070823e-14
-0.001050853178973074
-2.240265442040279e-14
-0.001050853178970406
-2.622672286416185e-15
-0.001050853178979826
9.46452258682196e-15
-0.001050853178978966
-5.2366255548159e-16
-0.001050853178956726
-2.252790815562515e-14
-0.001050853178983098
2.638211062341103e-14
-0.001050853178969681
-1.339886369108605e-14
-0.001050853178962336
-7.277924652261609e-15
-0.001050853178977611
1.52813329373486e-14
-0.001050853178971761
-5.866286836901169e-15
-0.001050853178955363
-1.640723442422997e-14
-0.001050853178978161
2.282400963249225e-14
-0.001050853178965906
-1.226788837394113e-14
-0.001050853178955913
-1.001163146787247e-14
-0.001050853178974538
1.862902724714179e-14
-0.001050853178968865
-5.067134000316975e-15
-0.00105085317895467
-1.473449608930456e-14
-0.001050853178976055
2.143719154063805e-14
-0.001050853178964187
-1.184798653399575e-14
-0.001050853178954162
-1.045733908513658e-14
-0.00105085317897331
1.939925498453581e-14
-0.001050853178966712
-6.610366954624568e-15
-0.001050853178954761
-1.198112078584674e-14
-0.001050853178976078
2.128532152574236e-14
-0.001050853178966711
-9.320397733058165e-15
-0.00105085317895711
-9.403159093003538e-15
-0.001050853178975963
1.86861902409396e-14
-0.001050853178968434
-7.559846373780389e-15
-0.001050853178957202
-1.127373669595053e-14
-0.001050853178979521
2.227449057284314e-14
-0.00105085317897345
-6.079176824088592e-15
-0.001050853178963403
-1.059397113836629e-14
-0.001050853178982588
1.99952020586784e-14
-0.001050853178973406
-9.110710894091665e-15
-0.001050853178954666
-1.872656479407811e-14
-0.001050853178959398
4.746124486993613e-15
-0.001050853178929916
-2.947291426294881e-14
-0.001050853178888386
-4.142236418300602e-14
-0.001050853178871366
-1.688333651281719e-14
-0.001050853178828319
-4.286945511010472e-14
-0.001050853178758712
-6.946376428339758e-14
4.294631889245206e-14
-0.001154386441963047
5.879250857515422e-13
-0.00115438644186129
-1.960159504377548e-13
-0.001154386441925221
1.23052677808714e-13
-0.001154386441970687
3.40014907809589e-14
-0.001154386441898971
-1.193418444940359e-13
-0.001154386441856858
-4.203496066827032e-14
-0.001154386441780192
-1.139940331486228e-13
-0.00115438644179885
5.234079526854864e-14
-0.001154386441814858
-5.12442987501052e-15
-0.001154386441827734
2.129098295090263e-14
-0.001154386441807889
-3.575872416021379e-14
-0.001154386441795533
4.48753218827271e-15
-0.001154386441782144
-2.176657122762407e-14
-0.001154386441831098
6.119259168964155e-14
-0.00115438644177704
-8.273352548106205e-14
-0.001154386441803916
5.981088425973592e-14
-0.001154386441815034
-1.111431180812887e-14
-0.001154386441770273
-4.739020485721281e-14
-0.001154386441784042
2.329788217039185e-14
-0.001154386441819482
3.520116063136076e-14
-0.001154386441759255
-8.300900667537545e-14
-0.001154386441778979
4.610249875917908e-14
-0.001154386441807178
1.482711173945373e-14
-0.001154386441758848
-5.549991867992713e-14
-0.001154386441775161
3.161703870644899e-14
-0.001154386441805495
2.4405196481298e-14
-0.001154386441753554
-6.835215382662222e-14
-0.001154386441772946
4.226621504836478e-14
-0.001154386441797982
1.275260239360852e-14
-0.001154386441746872
-6.118029500587796e-14
-0.001154386441767647
3.941793903857107e-14
-0.001154386441799153
2.695208256974042e-14
-0.001154386441751368
-6.297844782140119e-14
-0.001154386441769147
3.934317967455961e-14
-0.001154386441792486
1.15561999601177e-14
-0.001154386441743029
-6.034656207002833e-14
-0.001154386441764316
4.084933635272423e-14
-0.00115438644179617
2.520873545990468e-14
-0.001154386441750033
-5.818790743692723e-14
-0.001154386441769839
4.107511521710062e-14
-0.001154386441798219
1.916352948781771e-14
-0.001154386441751427
-5.602408417597371e-14
-0.001154386441771441
3.855874344865035e-14
-0.001154386441800913
2.187647925187043e-14
-0.001154386441753655
-5.859479431089218e-14
-0.001154386441773595
4.210821480183304e-14
-0.001154386441810957
3.12455792353049e-14
-0.00115438644176669
-5.520321392743498e-14
-0.001154386441786058
4.013188840436344e-14
-0.001154386441817924
2.280489121893335e-14
-0.001154386441769026
-6.759636678678074e-14
-0.001154386441768129
3.826343122518369e-15
-0.001154386441774779
-2.28604202495285e-14
-0.001154386441692226
-1.238625858853908e-13
-0.001154386441671456
-3.744971053481116e-14
-0.001154386441657461
-5.659466381072193e-14
-0.001154386441563471
-1.63210736553231e-13
1.417596312974898e-13
-0.00127289058649402
8.383384358043238e-13
-0.001272890586418737
-2.712226534468917e-13
-0.001272890586479617
1.839572744613856e-13
-0.001272890586539092
9.343490919234401e-14
-0.001272890586468624
-1.89867862103453e-13
-0.001272890586414167
-9.64826596020072e-14
-0.001272890586323909
-2.041643846831707e-13
-0.001272890586328162
5.658380175894572e-14
-0.001272890586366352
3.284160928561024e-14
-0.001272890586387787
3.947630448645754e-14
-0.001272890586361851
-5.84911901661787e-14
-0.001272890586340653
-1.656311941191424e-14
-0.001272890586328491
-3.393051520969193e-14
-0.001272890586378681
1.112730648652895e-13
-0.001272890586319159
-1.422926020098812e-13
-0.001272890586342976
8.362058227728579e-14
-0.001272890586364976
1.088785942863263e-14
-0.00127289058631842
-9.391491003605275e-14
-0.001272890586332198
3.710130170290189e-14
-0.001272890586368326
7.152616045238369e-14
-0.001272890586308471
-1.430245405086358e-13
-0.001272890586321439
5.908372114727862e-14
-0.00127289058635504
4.843397504076316e-14
-0.001272890586303572
-1.069401192762469e-13
-0.001272890586318001
4.603983653568395e-14
-0.001272890586351746
5.815413074288129e-14
-0.001272890586296961
-1.231451456103314e-13
-0.001272890586312615
5.79301149966598e-14
-0.001272890586345484
4.561741425332118e-14
-0.001272890586289182
-1.174811494946997e-13
-0.001272890586308456
5.868991861342768e-14
-0.001272890586344494
6.333566903950688e-14
-0.001272890586290653
-1.171248784945276e-13
-0.001272890586305926
5.462534556854858e-14
-0.00127289058633865
4.427997987668859e-14
-0.001272890586283436
-1.157767011154832e-13
-0.001272890586304168
6.174062900487129e-14
-0.001272890586341475
6.251642054662654e-14
-0.00127289058629168
-1.07980476094638e-13
-0.001272890586307956
5.732769340629949e-14
-0.001272890586341915
5.313492946530823e-14
-0.001272890586290611
-1.072212846144861e-13
-0.001272890586310146
5.799812754266824e-14
-0.001272890586344689
5.640626640454365e-14
-0.001272890586293593
-1.097000478033746e-13
-0.001272890586308622
5.713257594586462e-14
-0.001272890586351385
7.400796605635143e-14
-0.001272890586306064
-1.008841787824827e-13
-0.001272890586321184
5.56814910995936e-14
-0.001272890586354695
5.636009014392745e-14
-0.001272890586308085
-1.142013634333203e-13
-0.001272890586308714
4.478917564094891e-15
-0.001272890586325055
-6.481071054478208e-15
-0.001272890586249483
-1.993758799515293e-13
-0.001272890586239345
-4.754557917490347e-14
-0.001272890586246525
-4.934448830732445e-14
-0.001272890586164345
-2.45344856443296e-13
2.212770164046149e-13
-0.001341770327670467
9.539874715278333e-13
-0.00134177032763613
-3.054867238736223e-13
-0.001341770327675408
2.231885205588334e-13
-0.001341770327689139
1.068237474487071e-13
-0.001341770327654358
-2.24997487386123e-13
-0.00134177032762822
-1.224489849239665e-13
-0.001341770327574156
-2.578990655804908e-13
-0.001341770327579661
6.194308858872956e-14
-0.001341770327594571
4.724415096443464e-14
-0.001341770327615688
5.804266302302964e-14
-0.001341770327594214
-7.71862799714775e-14
-0.001341770327584914
-2.542305690131238e-14
-0.001341770327579234
-3.969909263380945e-14
-0.001341770327593449
1.251534329411018e-13
-0.001341770327565584
-1.703329835667976e-13
-0.001341770327583024
1.011344819925282e-13
-0.001341770327583988
1.196933549565649e-14
-0.001341770327571227
-1.066952061151429e-13
-0.001341770327578595
4.452094163827632e-14
-0.001341770327581004
7.410841598617894e-14
-0.001341770327562807
-1.613767705970682e-13
-0.00134177032757063
6.690200856554713e-14
-0.001341770327573666
5.149436131923452e-14
-0.00134177032755509
-1.254293373641033e-13
-0.001341770327564135
5.50993777406438e-14
-0.001341770327566931
6.088957178632709e-14
-0.001341770327548057
-1.420192154502631e-13
-0.001341770327558342
6.825744028807157e-14
-0.001341770327565695
5.295742403952382e-14
-0.001341770327545369
-1.378582610606232e-13
-0.001341770327557023
7.035818577495201e-14
-0.001341770327561157
6.777302066440874e-14
-0.001341770327541001
-1.37544631810707e-13
-0.00134177032755072
6.444659681786837e-14
-0.001341770327559332
5.294723682766626e-14
-0.001341770327538167
-1.372153504418255e-13
-0.001341770327551911
7.556120686540023e-14
-0.001341770327556691
6.726752757937368e-14
-0.001341770327538123
-1.265964711525663e-13
-0.001341770327549213
6.840465663009308e-14
-0.001341770327556343
6.034764413867323e-14
-0.001341770327536211
-1.272496562267338e-13
-0.00134177032755092
7.2622372839882e-14
-0.001341770327554317
5.977678173486245e-14
-0.001341770327535985
-1.2807334472707e-13
-0.001341770327545528
6.658388153909773e-14
-0.001341770327554959
8.340783742884056e-14
-0.001341770327538554
-1.17441244042626e-13
-0.001341770327547161
6.476817336429566e-14
-0.001341770327546291
5.551656546673307e-14
-0.001341770327524499
-1.359725010321613e-13
-0.001341770327527901
7.862040614760751e-15
-0.001341770327525654
-8.752266513121615e-15
-0.001341770327492064
-2.328815446223605e-13
-0.001341770327488568
-5.08846189590262e-14
-0.001341770327480878
-5.682210043211277e-14
-0.001341770327474626
-2.514110274953329e-13
3.01436487233458e-13
-0.001387028424340599
9.625402517499773e-13
-0.001387028424324586
-3.21460000092968e-13
-0.001387028424343719
2.423596283973318e-13
-0.001387028424327825
9.100597827719993e-14
-0.001387028424327198
-2.255567413246352e-13
-0.001387028424325688
-1.240045867238795e-13
-0.001387028424301222
-2.823996741847992e-13
-0.001387028424308821
6.957519297959342e-14
-0.001387028424303982
4.237403450781958e-14
-0.001387028424309686
6.21653180626054e-14
-0.001387028424298257
-8.715091112309077e-14
-0.001387028424303833
-1.987210283157211e-14
-0.001387028424298951
-4.455515781220614e-14
-0.001387028424293285
1.195019822071054e-13
-0.001387028424287955
-1.756491403887788e-13
-0.001387028424296569
1.097184385050017e-13
-0.001387028424286243
1.613192115083098e-15
-0.001387028424291915
-1.00994127587053e-13
-0.001387028424292448
4.506127074846864e-14
-0.001387028424280126
6.188188968482015e-14
-0.001387028424283438
-1.581341806867072e-13
-0.001387028424285785
6.926530632949126e-14
-0.001387028424276479
4.21867123726524e-14
-0.00138702842427694
-1.249729107235684e-13
-0.001387028424280064
5.821340529601221e-14
-0.001387028424267481
4.833035434708343e-14
-0.00138702842427261
-1.368970906170647e-13
-0.001387028424275088
7.072997105502713e-14
-0.001387028424267573
4.544333921844365e-14
-0.001387028424271267
-1.341432095378842e-13
-0.001387028424274421
7.350559999698142e-14
-0.001387028424261037
5.454898562783441e-14
-0.001387028424265268
-1.334519649227595e-13
-0.001387028424266985
6.613810881491818e-14
-0.00138702842426126
4.72043099771696e-14
-0.001387028424263022
-1.355270627293204e-13
-0.001387028424267965
8.058844671471275e-14
-0.001387028424255238
5.45458489089751e-14
-0.001387028424258414
-1.234053207674964e-13
-0.001387028424261829
7.18011364410065e-14
-0.001387028424253996
5.24994437523238e-14
-0.001387028424253184
-1.280172175322105e-13
-0.001387028424260718
8.011188934397305e-14
-0.001387028424248531
4.758902977923935e-14
-0.001387028424251335
-1.252613192622874e-13
-0.001387028424253767
6.904236469621307e-14
-0.00138702842424497
7.461865414402244e-14
-0.001387028424245453
-1.171631604334109e-13
-0.001387028424248285
6.776955188333136e-14
-0.00138702842423217
3.943354367999807e-14
-0.001387028424229981
-1.381595391694637e-13
-0.001387028424230489
8.40249841693996e-15
-0.001387028424219197
-2.000086816980472e-14
-0.001387028424214379
-2.376735589540703e-13
-0.001387028424215005
-5.02689474317327e-14
-0.001387028424204314
-6.751712825905807e-14
-0.001387028424249811
-2.059371571173164e-13
3.83899487241411e-13
-0.001427084728650164
9.000864483204399e-13
-0.001427084728636546
-3.350205406361538e-13
-0.001427084728643674
2.494504232232499e-13
-0.001427084728616596
6.368490070988326e-14
-0.001427084728640015
-2.023819407168437e-13
-0.001427084728653685
-1.102220321248939e-13
-0.001427084728640802
-2.950520619083295e-13
-0.001427084728641561
7.024754432920616e-14
-0.00142708472863307
3.353249436507777e-14
-0.001427084728632461
6.010043502373173e-14
-0.001427084728628762
-8.927357589369884e-14
-0.001427084728637762
-1.055743654536513e-14
-0.001427084728632369
-5.001459881414222e-14
-0.001427084728621772
1.08662283130537e-13
-0.001427084728625666
-1.718550067895771e-13
-0.001427084728626131
1.102246264922266e-13
-0.001427084728615099
-9.358985839216974e-15
-0.001427084728626266
-8.982559119307092e-14
-0.001427084728621288
4.011870877413714e-14
-0.001427084728607877
4.856489204082791e-14
-0.001427084728619475
-1.466187034437921e-13
-0.001427084728616275
6.606055656637102e-14
-0.001427084728605471
3.140200933828156e-14
-0.001427084728612622
-1.177606595949205e-13
-0.001427084728611058
5.665476902789429e-14
-0.00142708472859643
3.366053991017661e-14
-0.001427084728611552
-1.217736010885334e-13
-0.00142708472860705
6.625580981968995e-14
-0.001427084728595482
3.386295491974605e-14
-0.001427084728607579
-1.220820829697447e-13
-0.001427084728604945
7.088427459407883e-14
-0.001427084728588246
3.802752756845195e-14
-0.001427084728602344
-1.194958337706217e-13
-0.001427084728597591
6.145634845244499e-14
-0.001427084728588583
3.823476489728416e-14
-0.001427084728599605
-1.246749228738335e-13
-0.001427084728597671
7.869094452459178e-14
-0.001427084728581322
3.817490927051929e-14
-0.001427084728594066
-1.10688609848513e-13
-0.001427084728590304
6.802371499018905e-14
-0.001427084728579472
4.172160966778511e-14
-0.001427084728585429
-1.219939457251992e-13
-0.001427084728585916
8.055215343972412e-14
-0.001427084728572031
3.367894004655937e-14
-0.00142708472858328
-1.140465516364389e-13
-0.001427084728579404
6.510202562666113e-14
-0.00142708472856695
6.215251014563548e-14
-0.001427084728572953
-1.112278695248573e-13
-0.001427084728571534
6.663966704273455e-14
-0.00142708472855524
2.316433138921045e-14
-0.001427084728565297
-1.280905103419485e-13
-0.001427084728561768
4.862050517057903e-15
-0.001427084728549797
-3.19757390972376e-14
-0.001427084728558894
-2.285005053691134e-13
-0.001427084728561679
-4.736248885373642e-14
-0.001427084728556876
-7.215554040339709e-14
-0.001427084728627213
-1.354672803384282e-13
4.692847631023904e-13
-0.001476578698070529
7.921511867835412e-13
-0.001476578698055334
-3.501922521723077e-13
-0.001476578698058555
2.527163202773469e-13
-0.001476578698026586
3.186175509516487e-14
-0.001476578698060977
-1.678860152833159e-13
-0.001476578698078695
-9.257715175371557e-14
-0.001476578698079189
-2.946309107014688e-13
-0.001476578698076983
6.809108531143727e-14
-0.001476578698064628
2.121164124486383e-14
-0.001476578698063098
5.775798693301075e-14
-0.001476578698063931
-8.779119752008234e-14
-0.001476578698068996
-5.572794920153506e-15
-0.001476578698064163
-5.480483058271171e-14
-0.001476578698054045
9.859853978778014e-14
-0.00147657869806106
-1.648071430851013e-13
-0.001476578698055919
1.050486060500705e-13
-0.001476578698046205
-1.911442528934776e-14
-0.001476578698058286
-7.772094649327215e-14
-0.001476578698050246
3.208129819093433e-14
-0.001476578698038716
3.70857436980754e-14
-0.001476578698053972
-1.31390706574533e-13
-0.001476578698047532
5.963717297945084e-14
-0.001476578698036808
2.067208094160007e-14
-0.001476578698045058
-1.095248923665972e-13
-0.001476578698041454
5.304043651703582e-14
-0.001476578698028823
2.105786896713759e-14
-0.001476578698045168
-1.054364961048816e-13
-0.001476578698036884
5.796301295160301e-14
-0.001476578698026304
2.328800012205536e-14
-0.001476578698038095
-1.102667135847858e-13
-0.001476578698033434
6.621547951801976e-14
-0.001476578698018714
2.33829459468722e-14
-0.001476578698033981
-1.042932881406264e-13
-0.001476578698026042
5.348275102610753e-14
-0.001476578698017927
3.009737562200916e-14
-0.001476578698030979
-1.116270970989438e-13
-0.001476578698025921
7.36843820672243e-14
-0.001476578698010592
2.285487843950822e-14
-0.00147657869802562
-9.564236072410955e-14
-0.001476578698017604
5.999103659519942e-14
-0.001476578698008451
3.254708291287778e-14
-0.001476578698016066
-1.143670336326814e-13
-0.001476578698011688
7.615377851999551e-14
-0.001476578697999718
2.171208228712197e-14
-0.001476578698013634
-1.001115340965302e-13
-0.001476578698006123
5.762614939050915e-14
-0.001476578697995153
5.119231217686715e-14
-0.001476578698001992
-1.045256174965716e-13
-0.001476578697999062
6.375463538880036e-14
-0.001476578697986826
1.095247919162503e-14
-0.001476578698001687
-1.132269496865808e-13
-0.001476578697996772
-1.754555516722635e-17
-0.00147657869798855
-4.015065863202779e-14
-0.001476578698003995
-2.130441567260351e-13
-0.001476578698008059
-4.333533541664721e-14
-0.001476578698007833
-7.24127342988382e-14
-0.001476578698088452
-5.489568229899646e-14
5.59511358792542e-13
-0.00155358322437083
6.553568124354588e-13
-0.001553583224355008
-3.659511372694931e-13
-0.001553583224359458
2.571433662346016e-13
-0.001553583224323445
-4.334570153949844e-15
-0.001553583224361233
-1.302525117509167e-13
-0.001553583224377304
-7.64364121559032e-14
-0.001553583224393098
-2.786897312521955e-13
-0.001553583224393178
6.81254016477942e-14
-0.00155358322437487
2.657526251268426e-15
-0.001553583224370505
5.247709261266233e-14
-0.001553583224373012
-8.433296731427794e-14
-0.001553583224374244
-4.14248168683843e-15
-0.001553583224370401
-5.869671862558691e-14
-0.001553583224361922
8.99560687449309e-14
-0.001553583224370353
-1.564309611048686e-13
-0.001553583224362231
9.693702470819527e-14
-0.001553583224352587
-2.873866642380414e-14
-0.001553583224364035
-6.62483251715752e-14
-0.001553583224355266
2.333258862020279e-14
-0.00155358322434593
2.779972163071584e-14
-0.001553583224359307
-1.180502598445223e-13
-0.00155358322435222
5.254745325834133e-14
-0.001553583224344164
1.263090388008207e-14
-0.001553583224350679
-1.029732157152485e-13
-0.001553583224346897
4.925715155783255e-14
-0.001553583224336494
1.063639327033216e-14
-0.00155358322434991
-9.201593289926854e-14
-0.001553583224340435
4.849827414204557e-14
-0.001553583224333154
1.599619358617366e-14
-0.001553583224340591
-1.028436762168442e-13
-0.001553583224335926
6.155684151186303e-14
-0.001553583224325229
1.279402501415057e-14
-0.001553583224337527
-9.206484860380273e-14
-0.001553583224328537
4.453462054441762e-14
-0.001553583224322495
2.407616404779629e-14
-0.00155358322433378
-1.004476433023566e-13
-0.001553583224328238
6.816460363551169e-14
-0.001553583224314951
9.546828065582173e-15
-0.001553583224328846
-8.175830095909854e-14
-0.001553583224319189
5.031697164619916e-14
-0.001553583224312623
2.601037716930838e-14
-0.001553583224320469
-1.064742801998954e-13
-0.001553583224313488
6.91454929131597e-14
-0.001553583224303086
1.128659840002703e-14
-0.001553583224317974
-8.525621023652733e-14
-0.001553583224309157
4.877106240841269e-14
-0.001553583224300435
4.247548983780202e-14
-0.001553583224306766
-9.824254346176784e-14
-0.001553583224304253
6.142124042812588e-14
-0.001553583224296049
2.781910987154405e-15
-0.001553583224310686
-9.858099824754521e-14
-0.001553583224306803
-3.901628484315987e-15
-0.001553583224303811
-4.312198446705665e-14
-0.00155358322432178
-1.949996871256179e-13
-0.00155358322432668
-3.833683932936349e-14
-0.001553583224327898
-7.10622744951184e-14
-0.001553583224411842
2.914237169117943e-14
6.552808251443843e-13
-0.00168285756090023
5.030637932586201e-13
-0.001682857560887289
-3.788795563264857e-13
-0.001682857560895256
2.651640547148615e-13
-0.001682857560855732
-4.370487631452039e-14
-0.001682857560893759
-9.20965190216098e-14
-0.001682857560908379
-6.188745936035171e-14
-0.001682857560934254
-2.529105922511138e-13
-0.001682857560935341
6.925579210407217e-14
-0.001682857560914037
-1.85740620149345e-14
-0.001682857560908044
4.60440488053777e-14
-0.001682857560910362
-8.174059155213325e-14
-0.001682857560908947
-5.668912336606598e-15
-0.00168285756090575
-6.185334199237264e-14
-0.001682857560898496
8.278279511912677e-14
-0.001682857560906827
-1.480696933750372e-13
-0.001682857560898023
8.809608168862732e-14
-0.001682857560888281
-3.851855176258541e-14
-0.001682857560896829
-5.768525075082258e-14
-0.001682857560889021
1.552629245878445e-14
-0.001682857560882597
2.140755421287785e-14
-0.001682857560891142
-1.09514383615182e-13
-0.001682857560884534
4.595641859078336e-14
-0.001682857560879681
7.770545815293341e-15
-0.001682857560884404
-9.826809276675009e-14
-0.001682857560881103
4.594788288716517e-14
-0.001682857560871871
1.433999380729402e-15
-0.001682857560881676
-8.221952320125381e-14
-0.001682857560872301
3.911556413970534e-14
-0.001682857560868161
1.186268901502797e-14
-0.001682857560871763
-9.921668112645511e-14
-0.001682857560867415
5.71988888710118e-14
-0.00168285756085932
4.739034217960486e-15
-0.001682857560869197
-8.221819521273555e-14
-0.001682857560859915
3.521194335868625e-14
-0.001682857560855218
1.935601985845175e-14
-0.001682857560862157
-9.348814550866068e-14
-0.001682857560857374
6.341021374257145e-14
-0.001682857560847346
-4.621729878229557e-16
-0.001682857560858507
-7.058246507174836e-14
-0.001682857560848639
4.043271790592348e-14
-0.001682857560844155
2.149984872829971e-14
-0.001682857560851936
-9.869420599049933e-14
-0.001682857560844002
6.120113965497747e-14
-0.001682857560834256
1.55019444814107e-15
-0.001682857560849933
-6.955886792018425e-14
-0.001682857560841101
3.998110894519832e-14
-0.001682857560834076
3.545734268753075e-14
-0.001682857560840225
-9.218748155527201e-14
-0.001682857560839037
6.023005381838654e-14
-0.001682857560833606
-2.632414151282318e-15
-0.001682857560845509
-8.6672378854149e-14
-0.001682857560843112
-6.26033052459118e-15
-0.001682857560845304
-4.088579512529754e-14
-0.001682857560863424
-1.768808316638878e-13
-0.001682857560868743
-3.30582972655034e-14
-0.001682857560870286
-6.95749066659561e-14
-0.00168285756095435
1.131395020694482e-13
7.536423668023943e-13
-0.001895308010362552
3.471297185359574e-13
-0.001895308010354495
-3.86879013393867e-13
-0.001895308010363527
2.741859154435268e-13
-0.001895308010326011
-8.133040826442822e-14
-0.001895308010364248
-5.392401465084312e-14
-0.00189530801037775
-4.836197759619783e-14
-0.001895308010408101
-2.224961830035661e-13
-0.00189530801041045
7.158575316901462e-14
-0.001895308010390047
-3.91377659613398e-14
-0.001895308010380654
3.605445715212254e-14
-0.001895308010379861
-8.198540268368047e-14
-0.001895308010380371
-5.078657304828262e-15
-0.001895308010376905
-6.534131665477964e-14
-0.001895308010370071
7.586061527905679e-14
-0.001895308010375291
-1.428838285710546e-13
-0.0018953080103676
8.03917763668278e-14
-0.00189530801035925
-4.687174905542016e-14
-0.001895308010364157
-5.274345623152644e-14
-0.00189530801035736
8.739863570378634e-15
-0.001895308010352891
1.696497067997223e-14
-0.001895308010358492
-1.039254994510234e-13
-0.001895308010352385
3.985611758313595e-14
-0.001895308010348454
3.848789801942833e-15
-0.001895308010352779
-9.393029484667062e-14
-0.001895308010349596
4.275923108809714e-14
-0.001895308010340465
-7.691988658211575e-15
-0.001895308010347722
-7.495835218800196e-14
-0.001895308010338569
2.996112372392949e-14
-0.001895308010336055
9.341344971159301e-15
-0.001895308010338508
-9.675563391964456e-14
-0.001895308010333898
5.258881140668436e-14
-0.001895308010325587
-3.509867339028837e-15
-0.001895308010335147
-7.267951345570934e-14
-0.00189530801032526
2.533902020045663e-14
-0.001895308010320645
1.474455686674064e-14
-0.001895308010324037
-9.014947715132186e-14
-0.001895308010319994
5.938030595142356e-14
-0.001895308010312327
-8.151850062492646e-15
-0.00189530801032115
-6.175967871900495e-14
-0.001895308010311431
3.069607952520241e-14
-0.001895308010308211
1.828948378201247e-14
-0.00189530801031475
-9.212694159160718e-14
-0.001895308010306651
5.308518581414681e-14
-0.001895308010298238
-6.882022780562868e-15
-0.001895308010314185
-5.363682395782044e-14
-0.001895308010305681
3.14637381831768e-14
-0.001895308010300435
3.022275651480908e-14
-0.001895308010307344
-8.532403837837662e-14
-0.001895308010307306
6.029544220677607e-14
-0.001895308010302961
-6.934252439807196e-15
-0.00189530801031346
-7.616186516128488e-14
-0.001895308010311657
-8.047268861254438e-15
-0.001895308010316231
-3.626613337632068e-14
-0.001895308010333363
-1.596763419023523e-13
-0.001895308010338098
-2.824678980387884e-14
-0.001895308010339713
-6.785491078915363e-14
-0.001895308010424892
1.983816149269028e-13
8.472519404525956e-13
-0.002222679264597052
2.080969878884196e-13
-0.002222679264600703
-3.83218748177986e-13
-0.002222679264612532
2.860695798395496e-13
-0.002222679264580755
-1.12952357816435e-13
-0.002222679264615012
-1.954604881072645e-14
-0.002222679264627791
-3.564797105489996e-14
-0.002222679264656224
-1.941523569510772e-13
-0.002222679264660232
7.562700961766117e-14
-0.002222679264642423
-5.688003466984738e-14
-0.00222267926463194
2.534194384160095e-14
-0.002222679264623887
-8.996343683083009e-14
-0.002222679264629763
6.898825079225999e-16
-0.002222679264624797
-7.027201631762472e-14
-0.002222679264617131
6.827087778009113e-14
-0.00222267926461858
-1.414094398819476e-13
-0.002222679264611863
7.364106203509081e-14
-0.002222679264604494
-5.427160004545315e-14
-0.002222679264609413
-4.781584021064586e-14
-0.002222679264602024
1.354205630882232e-15
-0.002222679264597176
1.213968576499736e-14
-0.002222679264602809
-9.829180870988446e-14
-0.002222679264596438
3.350030140739594e-14
-0.002222679264591339
-1.257270240758031e-15
-0.002222679264596891
-8.839372467002535e-14
-0.002222679264592763
3.862674507688322e-14
-0.002222679264582939
-1.749004896644317e-14
-0.002222679264589952
-6.79555111795028e-14
-0.002222679264580237
2.024276429056468e-14
-0.002222679264577216
6.329949475053839e-15
-0.002222679264580431
-9.351928378388635e-14
-0.002222679264575021
4.716561821146851e-14
-0.002222679264565515
-1.299023116424512e-14
-0.002222679264573975
-6.423550995022511e-14
-0.002222679264563342
1.466867828938827e-14
-0.002222679264559462
1.084446944688229e-14
-0.002222679264561682
-8.789631870502177e-14
-0.002222679264557257
5.496444611990601e-14
-0.002222679264549123
-1.625874820625024e-14
-0.002222679264557965
-5.290454592319695e-14
-0.00222267926454769
2.040286752584048e-14
-0.00222267926454431
1.488498568757743e-14
-0.002222679264549644
-8.680104228686028e-14
-0.002222679264543024
4.645953533662974e-14
-0.002222679264536152
-1.374409223290948e-14
-0.002222679264549905
-3.985987916189993e-14
-0.002222679264542453
2.405183009986014e-14
-0.002222679264540024
2.779556036786952e-14
-0.002222679264548066
-7.73461828397533e-14
-0.002222679264548275
6.047749046074866e-14
-0.002222679264543243
-1.195453257476103e-14
-0.002222679264555241
-6.415638229688488e-14
-0.002222679264552262
-1.098576994630272e-14
-0.0022226792645551
-3.339096982095055e-14
-0.002222679264571111
-1.436677669268471e-13
-0.002222679264573549
-2.585299047150457e-14
-0.002222679264574861
-6.659766484697536e-14
-0.002222679264660479
2.839366170153204e-13
9.230303029639066e-13
-0.002687543348787429
1.239943903305458e-13
-0.00268754334881167
-3.589507447869198e-13
-0.002687543348829657
3.040614786282653e-13
-0.002687543348806462
-1.361478784091488e-13
-0.002687543348829491
3.495270645508774e-15
-0.002687543348842118
-2.304645773991479e-14
-0.002687543348864692
-1.715836186205508e-13
-0.002687543348869819
8.074779571811588e-14
-0.002687543348847896
-7.889063013910603e-14
-0.002687543348842511
1.959546472651394e-14
-0.002687543348825474
-1.067727387460296e-13
-0.00268754334883853
1.373505371807469e-14
-0.002687543348830296
-7.849823434994421e-14
-0.002687543348821542
5.949431752841739e-14
-0.002687543348823191
-1.397819992293845e-13
-0.002687543348816131
6.655479306836724e-14
-0.002687543348805646
-6.477213303241211e-14
-0.002687543348815589
-3.784721452269696e-14
-0.002687543348804859
-9.368886820520522e-15
-0.002687543348798449
5.745921717956478e-15
-0.002687543348806901
-8.984036500033105e-14
-0.00268754334879865
2.526248229095707e-14
-0.002687543348790264
-9.63960912278007e-15
-0.002687543348799046
-7.96147622593618e-14
-0.002687543348792249
3.182466681124731e-14