/*--------------------------------*- C++ -*----------------------------------*\
| =========                 |                                                 |
| \\      /  F ield         | OpenFOAM: The Open Source CFD Toolbox           |
|  \\    /   O peration     | Version:  v1812                                 |
|   \\  /    A nd           | Web:      www.OpenFOAM.com                      |
|    \\/     M anipulation  |                                                 |
\*---------------------------------------------------------------------------*/
FoamFile
{
    version     2.0;
    format      ascii;
    class       volVectorField;
    location    "20000";
    object      U;
}
// * * * * * * * * * * * * * * * * * * * * * * * * * * * * * * * * * * * * * //

dimensions      [0 1 -1 0 0 0 0];


internalField   nonuniform List<vector> 
3770
(
(-1.109091764899695 7.236716836850549e-12 -2.353541317361866e-06)
(-1.109091764866936 -2.966819160185943e-12 -2.353547552087095e-06)
(-1.109091764926486 1.113079778090407e-12 -2.353507976055217e-06)
(-1.109091764922006 -9.092043256926041e-13 -2.353547374189707e-06)
(-1.109091764919489 -2.816090377776784e-13 -2.353506597567655e-06)
(-1.109091764840656 5.175463663226014e-13 -2.353547419650261e-06)
(-1.109091764885222 -6.230226914466161e-13 -2.353504347091729e-06)
(-1.109091764796346 9.224525891709675e-13 -2.353547886225652e-06)
(-1.109091764909873 -8.928161978004624e-13 -2.353502081054011e-06)
(-1.10909176481384 4.601588704471454e-13 -2.353548080517701e-06)
(-1.109091764893005 -4.903059604818296e-13 -2.353500200330675e-06)
(-1.109091764805266 6.618009416050484e-13 -2.353547808851314e-06)
(-1.109091764885872 -6.28515887261315e-13 -2.353498762722515e-06)
(-1.109091764815614 2.631237625695384e-13 -2.353547091362026e-06)
(-1.109091764894283 -2.612213990011756e-13 -2.353497708114852e-06)
(-1.109091764783392 6.186803406039127e-13 -2.353546006104246e-06)
(-1.109091764924939 -7.433068219358939e-13 -2.353496948755783e-06)
(-1.109091764773797 5.349469175954687e-13 -2.353544642057492e-06)
(-1.109091764893194 -2.731621220409833e-13 -2.353496399787946e-06)
(-1.109091764805557 -2.658764014070581e-14 -2.3535430756558e-06)
(-1.109091764884668 -4.140994621360895e-14 -2.353495995906161e-06)
(-1.109091764772796 3.257671670148145e-13 -2.353541365329192e-06)
(-1.109091764914654 -4.887044291532065e-13 -2.353495685118514e-06)
(-1.109091764773061 3.852556747493185e-13 -2.353539561442749e-06)
(-1.109091764881331 -1.334401249843299e-13 -2.353495426711559e-06)
(-1.109091764807255 -1.629262692242317e-13 -2.353537700067669e-06)
(-1.109091764872432 6.391111325278187e-14 -2.353495197016511e-06)
(-1.109091764778862 2.295942808226016e-13 -2.353535806898552e-06)
(-1.109091764901038 -3.864096524028145e-13 -2.353494979409955e-06)
(-1.109091764775185 2.754955830133311e-13 -2.353533907205546e-06)
(-1.109091764868658 -6.433162238636219e-14 -2.353494762627874e-06)
(-1.109091764811961 -1.739419537331261e-13 -2.353532020821371e-06)
(-1.109091764863037 1.711210717334389e-13 -2.35349454784714e-06)
(-1.109091764785856 1.912744830567302e-13 -2.353530163866036e-06)
(-1.109091764891223 -3.822771861377559e-13 -2.353494340240183e-06)
(-1.109091764779448 2.498064523010762e-13 -2.353528358860154e-06)
(-1.109091764861599 -5.429093342891869e-14 -2.353494149540873e-06)
(-1.109091764815538 -2.371997592800038e-13 -2.353526629449865e-06)
(-1.109091764856488 1.834876887069151e-13 -2.353493998303371e-06)
(-1.109091764790608 1.470530258244338e-13 -2.353525001671551e-06)
(-1.1090917648881 -2.805333883602463e-13 -2.353493915445384e-06)
(-1.109091764788031 2.593094111700311e-13 -2.353523514507938e-06)
(-1.109091764859555 -2.334255895364078e-14 -2.35349393761854e-06)
(-1.109091764822178 -2.427386580763154e-13 -2.353522213967328e-06)
(-1.109091764854012 2.172033580355019e-13 -2.353494117880704e-06)
(-1.109091764797047 1.265119788472481e-13 -2.35352115347322e-06)
(-1.109091764888964 -3.277390290202843e-13 -2.35349451672137e-06)
(-1.10909176480274 2.383690094314117e-13 -2.353520398268651e-06)
(-1.10909176485926 7.020502843508295e-14 -2.353495193438522e-06)
(-1.109091764834266 -3.285122963966168e-13 -2.353520001934911e-06)
(-1.109091764853134 2.071574466911517e-14 -2.353496190842655e-06)
(-1.109091764792902 -1.900181308493829e-13 -2.35351996566001e-06)
(-1.109091764849659 -6.776586889121225e-13 -2.353497403983907e-06)
(-1.109091764748366 -2.580769144870809e-13 -2.353520114675623e-06)
(-1.109091764761198 -4.64843347662442e-13 -2.35349895520278e-06)
(-1.109091764694937 -7.791914859182038e-13 -2.353519183654722e-06)
(-1.109091764631278 -1.622280464649615e-12 -2.353492962807821e-06)
(-1.109091764601184 -2.915495106050619e-13 -2.353526037675226e-06)
(-1.218213009831416 1.983932886453536e-11 -4.79513836399465e-06)
(-1.218213009723743 -6.464181853164895e-12 -4.795164597378236e-06)
(-1.218213009790944 3.248794394575253e-12 -4.795094009676905e-06)
(-1.218213009805116 6.760858515132621e-13 -4.795170826921587e-06)
(-1.218213009898783 -3.092660123002082e-12 -4.795086889993312e-06)
(-1.218213009667579 -6.243291009625631e-13 -4.795173163446028e-06)
(-1.218213009783893 -3.402945039580041e-12 -4.795081449210616e-06)
(-1.218213009533492 1.659516553120552e-12 -4.795174223428405e-06)
(-1.21821300978687 -8.355504548854097e-13 -4.795077163822636e-06)
(-1.218213009613289 7.297806334668777e-13 -4.795174122515621e-06)
(-1.218213009771175 -7.809228647814295e-13 -4.795073940620541e-06)
(-1.218213009607588 2.543729136326132e-13 -4.795172986828631e-06)
(-1.218213009713658 -1.027555138196991e-12 -4.795071600148525e-06)
(-1.218213009600655 1.949695511205339e-12 -4.795171018090474e-06)
(-1.218213009802469 -2.501339840351625e-12 -4.79506994005832e-06)
(-1.218213009507667 1.78764046445379e-12 -4.795168413256413e-06)
(-1.2182130098294 -3.151031061131741e-13 -4.795068766511749e-06)
(-1.218213009560381 -9.505723625214479e-13 -4.795165349666676e-06)
(-1.218213009714758 2.801415606768512e-13 -4.795067922410206e-06)
(-1.218213009598574 1.065107127782477e-12 -4.795161959963594e-06)
(-1.218213009784437 -2.182143237094214e-12 -4.795067296917925e-06)
(-1.218213009482369 1.158298774968037e-12 -4.795158344642213e-06)
(-1.218213009806232 3.295652704238933e-13 -4.795066796169161e-06)
(-1.218213009563991 -1.234885694365989e-12 -4.795154591199608e-06)
(-1.21821300969045 6.115051262523294e-13 -4.795066354385419e-06)
(-1.2182130095999 7.900291130597958e-13 -4.795150752589821e-06)
(-1.218213009757201 -1.794883522350656e-12 -4.795065936764375e-06)
(-1.218213009495031 9.878289809297755e-13 -4.795146870935033e-06)
(-1.218213009783046 4.164164416101877e-13 -4.795065511056499e-06)
(-1.218213009565059 -1.525378315854448e-12 -4.795142990042195e-06)
(-1.218213009666432 7.590765050404661e-13 -4.7950650605754e-06)
(-1.218213009606915 8.428383618676363e-13 -4.795139135839954e-06)
(-1.218213009737895 -1.61915284000405e-12 -4.795064591821503e-06)
(-1.218213009508991 1.005876928532298e-12 -4.795135334593229e-06)
(-1.218213009762329 4.295277942010062e-13 -4.79506410821174e-06)
(-1.218213009572694 -1.501873651939718e-12 -4.795131625659945e-06)
(-1.218213009651381 7.616384942213968e-13 -4.795063627527886e-06)
(-1.218213009614248 7.600057996341282e-13 -4.795128041959613e-06)
(-1.21821300972548 -1.504801859880133e-12 -4.795063191492276e-06)
(-1.218213009517059 9.804932365980091e-13 -4.795124626917412e-06)
(-1.218213009756935 6.710638454663328e-13 -4.795062843393063e-06)
(-1.218213009590292 -1.39383571922015e-12 -4.795121449007126e-06)
(-1.218213009651743 7.929855495181054e-13 -4.795062647708104e-06)
(-1.218213009628152 7.004528690971523e-13 -4.795118581969713e-06)
(-1.218213009721995 -1.457717176419484e-12 -4.795062702001778e-06)
(-1.218213009527281 9.191738117857863e-13 -4.795116123715363e-06)
(-1.218213009754669 7.878525961765825e-13 -4.79506311550007e-06)
(-1.218213009620462 -1.270906390669521e-12 -4.795114207723659e-06)
(-1.218213009654664 9.658031498783923e-13 -4.795064022972101e-06)
(-1.218213009654399 6.220413061483788e-13 -4.795112970952771e-06)
(-1.218213009732197 -1.739150356203847e-12 -4.795065581962093e-06)
(-1.218213009549775 -2.653417226736979e-13 -4.79511254646102e-06)
(-1.218213009719882 -8.053373954205453e-13 -4.79506787365972e-06)
(-1.218213009577525 -3.457403603209741e-12 -4.795113060663804e-06)
(-1.218213009544992 -1.651594942637067e-12 -4.795071352991155e-06)
(-1.218213009520185 -1.792838643929502e-12 -4.79511264245629e-06)
(-1.218213009485395 -5.152514827669924e-12 -4.79507290484029e-06)
(-1.21821300936259 3.278477674697775e-12 -4.795136947135478e-06)
(-1.342718007974575 3.432418571659258e-11 -7.682762729690617e-06)
(-1.342718007806993 -1.204196055167311e-11 -7.682813977436557e-06)
(-1.342718007966662 8.191938993368975e-12 -7.682688258571924e-06)
(-1.342718007889792 2.788380094015318e-12 -7.682826462527934e-06)
(-1.34271800810191 -8.342586773122402e-12 -7.68267607808662e-06)
(-1.342718007753217 -2.983429737521878e-12 -7.682829775220271e-06)
(-1.342718007964492 -7.307503547887158e-12 -7.682668790972965e-06)
(-1.342718007586925 1.887483053399187e-12 -7.682829619777245e-06)
(-1.342718007941814 -8.876285967108174e-14 -7.682664112572908e-06)
(-1.342718007707295 1.80310610096114e-12 -7.682827339248035e-06)
(-1.34271800795003 -1.698421588418444e-12 -7.682661084946395e-06)
(-1.342718007683915 -6.245162137239802e-13 -7.682823652185655e-06)
(-1.34271800787787 -8.32531220651334e-13 -7.682659121722153e-06)
(-1.34271800767707 4.094443643718534e-12 -7.682819029426611e-06)
(-1.34271800797101 -6.662620020693033e-12 -7.68265784539617e-06)
(-1.342718007569596 4.230494611637038e-12 -7.682813778454801e-06)
(-1.342718007995766 4.688745352554959e-13 -7.682656989453258e-06)
(-1.342718007641189 -3.649391680075179e-12 -7.682808119169461e-06)
(-1.342718007879987 1.87762072157163e-12 -7.682656371428123e-06)
(-1.342718007678463 2.30669270076114e-12 -7.682802193372305e-06)
(-1.34271800795149 -5.721243569453983e-12 -7.682655875006993e-06)
(-1.342718007561643 2.966577505469158e-12 -7.682796099952669e-06)
(-1.342718007961918 1.286709219357918e-12 -7.682655407296491e-06)
(-1.342718007651447 -4.053524647151126e-12 -7.682789920376748e-06)
(-1.342718007841348 2.456881195016172e-12 -7.682654906961398e-06)
(-1.34271800768348 1.853441357063688e-12 -7.682783698835721e-06)
(-1.342718007914647 -4.96416421641563e-12 -7.682654343890797e-06)
(-1.342718007571991 2.775013119320841e-12 -7.682777469672851e-06)
(-1.342718007934846 1.407011837039488e-12 -7.682653688466621e-06)
(-1.342718007656035 -4.747986070461236e-12 -7.682771270155303e-06)
(-1.342718007808424 2.803707235077167e-12 -7.682652926664606e-06)
(-1.342718007695257 2.058752582577311e-12 -7.682765118078058e-06)
(-1.342718007888536 -4.990768417222263e-12 -7.682652067484152e-06)
(-1.342718007584111 3.042682533373904e-12 -7.682759033215277e-06)
(-1.342718007909721 1.598115404673678e-12 -7.682651113928211e-06)
(-1.342718007665478 -4.686749022089255e-12 -7.682753050069395e-06)
(-1.342718007787464 2.769488778486189e-12 -7.682650083687524e-06)
(-1.342718007706569 1.964419963410433e-12 -7.682747194255607e-06)
(-1.342718007871896 -4.53027356530009e-12 -7.682649018986088e-06)
(-1.342718007601619 2.909698841477144e-12 -7.682741504059889e-06)
(-1.342718007897536 1.911684449191888e-12 -7.68264796157795e-06)
(-1.342718007684636 -4.343501871322402e-12 -7.682736045176154e-06)
(-1.342718007783637 2.749817348126366e-12 -7.68264697780008e-06)
(-1.342718007722342 1.845601958280337e-12 -7.682730890657081e-06)
(-1.342718007863257 -4.392593956941087e-12 -7.682646173552212e-06)
(-1.342718007613533 2.688613526996103e-12 -7.682726148397605e-06)
(-1.342718007887072 2.195398323266366e-12 -7.682645679209943e-06)
(-1.34271800771591 -3.818015507356028e-12 -7.682721986230514e-06)
(-1.342718007785734 2.969925173890825e-12 -7.682645687924364e-06)
(-1.342718007742086 1.749913767597248e-12 -7.682718627940783e-06)
(-1.342718007865094 -4.541348736090794e-12 -7.682646497305512e-06)
(-1.34271800764249 3.232737883474848e-13 -7.682716419106316e-06)
(-1.342718007857636 -1.077313937042271e-12 -7.682648531036706e-06)
(-1.342718007688629 -8.051674397511401e-12 -7.682715997674272e-06)
(-1.342718007697617 -1.891534445943008e-12 -7.682652953428092e-06)
(-1.342718007655821 -2.880519417615222e-12 -7.68271592332347e-06)
(-1.342718007686381 -9.666328788397588e-12 -7.68265918859864e-06)
(-1.342718007517498 1.009230342934985e-11 -7.682754812749293e-06)
(-1.413614601155427 4.228012458177299e-11 -9.385746103188054e-06)
(-1.413614600871064 -1.391034942782179e-11 -9.385848429879347e-06)
(-1.413614601199563 1.012978404850932e-11 -9.385660201880624e-06)
(-1.413614600919719 4.325463673892003e-12 -9.385857822055098e-06)
(-1.413614601235217 -1.14028003991635e-11 -9.385650931248064e-06)
(-1.413614600855857 -4.573485134678557e-12 -9.385857082796242e-06)
(-1.413614601162807 -9.465531163049279e-12 -9.385646289446784e-06)
(-1.413614600760795 1.942214797542318e-12 -9.385853306610727e-06)
(-1.413614601149871 4.724372421725219e-13 -9.385643785617795e-06)
(-1.413614600822647 2.488974344323414e-12 -9.38584786918792e-06)
(-1.413614601166086 -2.378194297989435e-12 -9.38564246741848e-06)
(-1.413614600801548 -8.067959908567783e-13 -9.385841461340655e-06)
(-1.413614601125065 -1.309193769509274e-12 -9.385641799132837e-06)
(-1.413614600804674 5.313740396562815e-12 -9.385834488187157e-06)
(-1.413614601144732 -8.633304562932885e-12 -9.385641469416633e-06)
(-1.413614600759741 5.176499889858322e-12 -9.385827186119493e-06)
(-1.413614601162388 1.136132596518538e-12 -9.38564128366618e-06)
(-1.413614600780806 -5.32814533149984e-12 -9.385819705122851e-06)
(-1.413614601121856 2.431275294667727e-12 -9.385641118146316e-06)
(-1.413614600803215 3.392724420726329e-12 -9.385812134995153e-06)
(-1.41361460112272 -7.4676199040562e-12 -9.385640897744105e-06)
(-1.41361460077223 3.393628931605703e-12 -9.385804531854161e-06)
(-1.413614601126633 2.085471583636071e-12 -9.385640569756043e-06)
(-1.413614600792688 -5.630207242963189e-12 -9.385796936327725e-06)
(-1.413614601078238 2.957284577736918e-12 -9.385640099101911e-06)
(-1.413614600813551 2.630900517498618e-12 -9.385789370071196e-06)
(-1.413614601085177 -6.511889163213522e-12 -9.385639468751759e-06)
(-1.413614600776985 3.410433557059471e-12 -9.385781846095121e-06)
(-1.41361460109743 2.228576838986263e-12 -9.385638665382706e-06)
(-1.413614600803321 -6.509023143614546e-12 -9.385774378324911e-06)
(-1.413614601048699 3.567222471098135e-12 -9.385637682129815e-06)
(-1.413614600827309 2.943226269251518e-12 -9.385766972385114e-06)
(-1.413614601060034 -6.721545921700134e-12 -9.385636524495812e-06)
(-1.413614600786659 3.653512011213187e-12 -9.385759633764261e-06)
(-1.413614601072563 2.575217010299443e-12 -9.38563519771525e-06)
(-1.413614600813841 -6.415003873789097e-12 -9.385752376290922e-06)
(-1.413614601023476 3.558780272465831e-12 -9.385633713081689e-06)
(-1.413614600841286 2.845179159245651e-12 -9.385745211673141e-06)
(-1.413614601037428 -6.112559322916263e-12 -9.385632095785082e-06)
(-1.413614600802237 3.53370072325522e-12 -9.385738158300982e-06)
(-1.413614601054594 2.905687141973508e-12 -9.38563037475893e-06)
(-1.413614600825578 -5.921500850594855e-12 -9.385731251624266e-06)
(-1.413614601007755 3.458889400446392e-12 -9.385628592441703e-06)
(-1.413614600854399 2.644874480532078e-12 -9.385724536991256e-06)
(-1.413614601019584 -5.893236591841207e-12 -9.385626817838337e-06)
(-1.413614600815021 3.15823386309013e-12 -9.385718083720445e-06)
(-1.413614601034106 3.278104012765973e-12 -9.385625145171722e-06)
(-1.413614600843724 -5.194790840249127e-12 -9.385712007461366e-06)
(-1.413614600995134 3.57790102893076e-12 -9.38562371959084e-06)
(-1.413614600858001 2.453839301527914e-12 -9.385706483412732e-06)
(-1.413614600999452 -6.029987196336645e-12 -9.385622780284448e-06)
(-1.413614600811112 4.960446527048219e-13 -9.385701804940653e-06)
(-1.413614601000332 -6.499007370758109e-13 -9.385622710461646e-06)
(-1.413614600814872 -1.050695204056372e-11 -9.385698510997545e-06)
(-1.413614600929134 -1.919526579538648e-12 -9.385624476402954e-06)
(-1.413614600799239 -2.694164498546056e-12 -9.385696193882314e-06)
(-1.413614600891824 -1.16935509116683e-11 -9.385626204766146e-06)
(-1.413614600812939 1.308554952555089e-11 -9.385724199064264e-06)
(-1.456288894568711 4.48911038342403e-11 -1.044680794084689e-05)
(-1.456288894172106 -1.473060274473976e-11 -1.044696695845115e-05)
(-1.45628889462739 1.095965147926707e-11 -1.04467239930254e-05)
(-1.456288894186328 4.20456888076973e-12 -1.044696934618593e-05)
(-1.456288894598528 -1.180496440288776e-11 -1.044672032587904e-05)
(-1.456288894192534 -5.245437807334745e-12 -1.04469632883102e-05)
(-1.456288894581674 -1.13440767852453e-11 -1.044671949765765e-05)
(-1.456288894156386 2.571472806657339e-12 -1.044695566154044e-05)
(-1.456288894578121 9.295107849957594e-13 -1.044671961401858e-05)
(-1.456288894169989 2.422249380764091e-12 -1.04469473470493e-05)
(-1.456288894567933 -2.967973547527196e-12 -1.044672010983876e-05)
(-1.456288894165089 -1.302863251392048e-13 -1.044693873112183e-05)
(-1.456288894562542 -2.081357985997502e-12 -1.044672069913531e-05)
(-1.456288894167285 5.322603253915639e-12 -1.044693001549291e-05)
(-1.456288894542025 -8.896507570997589e-12 -1.044672123075086e-05)
(-1.456288894166867 5.420200003432496e-12 -1.044692130239218e-05)
(-1.456288894545552 1.008315773167273e-12 -1.044672162372006e-05)
(-1.45628889415988 -5.541394436206686e-12 -1.044691264495702e-05)
(-1.456288894546533 2.339222980236325e-12 -1.044672183205186e-05)
(-1.456288894166988 3.492821237726702e-12 -1.044690406844774e-05)
(-1.456288894516816 -7.680624628841671e-12 -1.044672183145125e-05)
(-1.456288894179793 3.264980067596602e-12 -1.044689558208671e-05)
(-1.456288894512274 2.146087686281242e-12 -1.044672160940301e-05)
(-1.456288894170869 -5.760860589581188e-12 -1.044688718796484e-05)
(-1.456288894505918 2.805738707097062e-12 -1.044672115772537e-05)
(-1.456288894179406 2.400601723728521e-12 -1.044687888350477e-05)
(-1.456288894479744 -6.513724056625038e-12 -1.044672047394408e-05)
(-1.456288894192789 3.442978374294933e-12 -1.044687066227599e-05)
(-1.456288894477964 2.262409545508707e-12 -1.044671955811957e-05)
(-1.456288894185066 -6.628543952573565e-12 -1.044686251788335e-05)
(-1.456288894481075 3.523460714952109e-12 -1.044671841030643e-05)
(-1.456288894191759 2.837673827173496e-12 -1.04468544438094e-05)
(-1.456288894454514 -6.680198028927947e-12 -1.044671703336884e-05)
(-1.456288894202059 3.471992268317506e-12 -1.044684643283815e-05)
(-1.456288894452366 2.629380472594647e-12 -1.044671543228558e-05)
(-1.456288894196701 -6.582937681023415e-12 -1.044683848041858e-05)
(-1.456288894452511 3.625228047958853e-12 -1.044671361181216e-05)
(-1.456288894206375 2.784814483895969e-12 -1.044683058388467e-05)
(-1.456288894428323 -6.123902024359243e-12 -1.04467115807931e-05)
(-1.456288894213132 3.474899903157859e-12 -1.044682274227052e-05)
(-1.456288894431055 2.931054889449504e-12 -1.044670935199353e-05)
(-1.456288894202814 -6.152114553584665e-12 -1.044681496110469e-05)
(-1.456288894425842 3.556819458860753e-12 -1.044670694140651e-05)
(-1.456288894217403 2.562917163961819e-12 -1.044680725304293e-05)
(-1.456288894403422 -5.950765507706168e-12 -1.044670437620665e-05)
(-1.456288894222769 3.034153340422576e-12 -1.044679964020284e-05)
(-1.456288894404571 3.387192578141167e-12 -1.04467016978573e-05)
(-1.456288894210734 -5.258376579859179e-12 -1.044679216673966e-05)
(-1.456288894402129 3.4980685295005e-12 -1.044669897175547e-05)
(-1.456288894214176 2.019398459868181e-12 -1.044678491090865e-05)
(-1.456288894372611 -6.221580211306871e-12 -1.044669631171093e-05)
(-1.456288894208849 3.659816666356181e-13 -1.044677801285404e-05)
(-1.456288894369176 -9.629861869904692e-13 -1.044669391186645e-05)
(-1.456288894191341 -1.122085652838638e-11 -1.044677173293946e-05)
(-1.456288894358761 -2.121686790811903e-12 -1.044669228473522e-05)
(-1.456288894186648 -2.750571856828161e-12 -1.044676597145794e-05)
(-1.456288894318881 -1.060322893355457e-11 -1.044668899001239e-05)
(-1.456288894303313 1.623878560938519e-11 -1.044678024974916e-05)
(-1.485554036298809 4.344232948206529e-11 -1.119985094996902e-05)
(-1.485554035810527 -1.524367428173588e-11 -1.120005909734461e-05)
(-1.485554036347526 1.137483351530608e-11 -1.119977335383254e-05)
(-1.485554035804607 3.108133045298547e-12 -1.120005408059456e-05)
(-1.485554036294191 -1.081796046386618e-11 -1.119977531950052e-05)
(-1.485554035859736 -4.990037356874459e-12 -1.120004311803221e-05)
(-1.485554036311243 -1.288230407961672e-11 -1.119977803646983e-05)
(-1.485554035845862 2.926665469509316e-12 -1.120003220080251e-05)
(-1.485554036296521 1.112555307520905e-12 -1.119978043870164e-05)
(-1.485554035847705 2.666429268070947e-12 -1.120002159118746e-05)
(-1.485554036276928 -3.258106423860159e-12 -1.119978243149564e-05)
(-1.485554035855926 2.191492147503568e-13 -1.120001131615011e-05)
(-1.485554036281378 -2.50948549774356e-12 -1.1199784008001e-05)
(-1.485554035855405 4.702028817547119e-12 -1.120000135891017e-05)
(-1.485554036251711 -8.468870828178433e-12 -1.119978518620559e-05)
(-1.485554035872443 5.469049054205915e-12 -1.119999168722035e-05)
(-1.485554036240951 3.184343343385821e-13 -1.119978599304339e-05)
(-1.485554035861465 -5.025164082520482e-12 -1.119998226558541e-05)
(-1.485554036254954 2.173819895952796e-12 -1.119978645347259e-05)
(-1.48555403585652 2.863846810593013e-12 -1.119997306093988e-05)
(-1.485554036223455 -7.184863413678124e-12 -1.119978658894822e-05)
(-1.485554035885551 3.148057613848203e-12 -1.119996404286211e-05)
(-1.485554036209267 1.636004985244037e-12 -1.119978641897913e-05)
(-1.485554035871502 -5.379365356616759e-12 -1.119995518323364e-05)
(-1.485554036218077 2.7015454379731e-12 -1.119978595760697e-05)
(-1.485554035870319 1.604046484090787e-12 -1.119994645887652e-05)
(-1.485554036187342 -5.904119342705879e-12 -1.11997852152143e-05)
(-1.485554035904062 3.358411963888229e-12 -1.119993784811158e-05)
(-1.485554036172523 1.762067220504809e-12 -1.119978420082958e-05)
(-1.485554035886269 -6.054643726240053e-12 -1.119992932994156e-05)
(-1.485554036193868 3.387928404728551e-12 -1.119978291978646e-05)
(-1.48555403588124 2.081423288636932e-12 -1.119992088736372e-05)
(-1.485554036159968 -5.924997637980599e-12 -1.119978137397352e-05)
(-1.485554035911776 3.176763364163978e-12 -1.119991250313685e-05)
(-1.485554036145676 2.099488346327824e-12 -1.119977956614092e-05)
(-1.485554035898184 -6.05745559619935e-12 -1.119990415955094e-05)
(-1.485554036165695 3.58358603239938e-12 -1.11997774954283e-05)
(-1.485554035893937 2.085694104444122e-12 -1.119989584116486e-05)
(-1.48555403613334 -5.566152088842198e-12 -1.119977515829901e-05)
(-1.485554035920598 3.295064292813551e-12 -1.119988753124722e-05)
(-1.485554036122155 2.418370250421236e-12 -1.119977255205641e-05)
(-1.485554035902795 -5.874154713170362e-12 -1.119987921166833e-05)
(-1.485554036131646 3.634812005443464e-12 -1.119976967003799e-05)
(-1.485554035903146 1.930083282691641e-12 -1.119987086559428e-05)
(-1.485554036104962 -5.466882143855879e-12 -1.119976650404702e-05)
(-1.485554035926222 2.871944803785134e-12 -1.119986247338892e-05)
(-1.485554036093929 2.880508850522793e-12 -1.119976304546462e-05)
(-1.485554035905212 -4.911814249202949e-12 -1.119985401457811e-05)
(-1.485554036103599 3.440244570869749e-12 -1.119975928347792e-05)
(-1.485554035900603 1.155934454948103e-12 -1.11998454707372e-05)
(-1.485554036072811 -5.987534256826056e-12 -1.11997552079665e-05)
(-1.485554035921001 2.934209116761524e-13 -1.119983682447468e-05)
(-1.485554036062081 -1.506320920994407e-12 -1.119975081112122e-05)
(-1.485554035900815 -1.09855341764717e-11 -1.119982806008494e-05)
(-1.485554036080815 -2.056239150369894e-12 -1.119974618308922e-05)
(-1.485554035902026 -3.102637867076777e-12 -1.119981895810562e-05)
(-1.48555403605571 -7.836425979171796e-12 -1.119973881893516e-05)
(-1.485554036065953 1.995249127588948e-11 -1.119982249702944e-05)
(-1.507652857235852 3.930035084631116e-11 -1.178848825868088e-05)
(-1.507652856678907 -1.58913823423654e-11 -1.178873252103482e-05)
(-1.507652857272825 1.154100822625999e-11 -1.178841677830768e-05)
(-1.507652856667936 1.788309461309677e-12 -1.17887211968549e-05)
(-1.50765285720957 -9.231892165715398e-12 -1.178842339708518e-05)
(-1.507652856743927 -4.396781637845354e-12 -1.1788706337382e-05)
(-1.507652857235652 -1.339217118106261e-11 -1.178842889085064e-05)
(-1.507652856756536 3.068762125026567e-12 -1.178869292645027e-05)
(-1.50765285721682 8.539209424611215e-13 -1.178843300723553e-05)
(-1.507652856748198 2.599713607186853e-12 -1.178868064767682e-05)
(-1.507652857197698 -3.348926346749666e-12 -1.178843607588217e-05)
(-1.507652856763942 5.177664202237439e-13 -1.17886692121526e-05)
(-1.507652857195445 -2.824777671150995e-12 -1.17884383298557e-05)
(-1.507652856763755 4.141591153351411e-12 -1.178865841875737e-05)
(-1.507652857167698 -7.881961351865628e-12 -1.178843992893451e-05)
(-1.507652856785967 5.262156316976248e-12 -1.178864812508228e-05)
(-1.507652857147199 -3.886587851749643e-13 -1.178844098621006e-05)
(-1.507652856776451 -4.336927954928798e-12 -1.178863822605152e-05)
(-1.507652857163625 1.867122523758671e-12 -1.178844158225193e-05)
(-1.507652856765137 2.223199869563854e-12 -1.178862864338061e-05)
(-1.507652857136658 -6.605206780213838e-12 -1.178844177400401e-05)
(-1.507652856800588 2.904948296957716e-12 -1.178861931674237e-05)
(-1.507652857117164 1.206779008459508e-12 -1.178844160455825e-05)
(-1.507652856785791 -4.98851935994809e-12 -1.17886101961234e-05)
(-1.507652857128721 2.563063359846026e-12 -1.178844110414204e-05)
(-1.507652856780572 9.038839898603899e-13 -1.178860124331052e-05)
(-1.507652857102286 -5.199842832191724e-12 -1.178844029297798e-05)
(-1.507652856816011 3.061520197627073e-12 -1.17885924253704e-05)
(-1.507652857080879 1.27894367227629e-12 -1.178843918588102e-05)
(-1.507652856799608 -5.476248117352857e-12 -1.178858371183023e-05)
(-1.507652857101598 3.184982276762702e-12 -1.178843779143305e-05)
(-1.507652856790788 1.397468370582095e-12 -1.178857507767508e-05)
(-1.507652857071974 -5.153739148162355e-12 -1.178843611142782e-05)
(-1.507652856823032 2.79022451024624e-12 -1.17885664981875e-05)
(-1.507652857052197 1.618843772082899e-12 -1.178843414587183e-05)
(-1.507652856810686 -5.439865966014014e-12 -1.178855794702064e-05)
(-1.507652857076311 3.400993550815455e-12 -1.178843188922386e-05)
(-1.507652856800433 1.36290263623922e-12 -1.178854939879055e-05)
(-1.507652857046163 -4.854304511432417e-12 -1.178842932912068e-05)
(-1.507652856831291 2.938926587076178e-12 -1.178854082473983e-05)
(-1.507652857027086 1.890973063821672e-12 -1.178842645033011e-05)
(-1.507652856816502 -5.467955086241232e-12 -1.178853218970129e-05)
(-1.507652857040118 3.546321224557056e-12 -1.178842322859949e-05)
(-1.507652856807231 1.294885972708414e-12 -1.178852345364033e-05)
(-1.507652857017294 -4.841678018857584e-12 -1.178841962885972e-05)
(-1.507652856835458 2.566434599674849e-12 -1.178851456458191e-05)
(-1.50765285699958 2.357358382313016e-12 -1.178841560276805e-05)
(-1.507652856817022 -4.554880660581638e-12 -1.178850545193634e-05)
(-1.507652857011128 3.316142108905032e-12 -1.1788411078972e-05)
(-1.507652856809931 4.857976512423254e-13 -1.178849601985623e-05)
(-1.507652856988505 -5.448522731410373e-12 -1.178840594901985e-05)
(-1.507652856839867 9.107342474223862e-14 -1.178848612456868e-05)
(-1.507652856975791 -1.960241064758257e-12 -1.178840004189488e-05)
(-1.507652856826886 -1.030283173587112e-11 -1.178847553381387e-05)
(-1.507652857007202 -1.894642131229454e-12 -1.178839312848755e-05)
(-1.507652856831477 -3.252083164442172e-12 -1.178846379608738e-05)
(-1.507652856992961 -4.265064496334538e-12 -1.178838270655351e-05)
(-1.507652857011438 2.396214767037428e-11 -1.178845984243178e-05)
(-1.52554797490402 3.34512202392502e-11 -1.228246305412244e-05)
(-1.525547974304639 -1.666741591623837e-11 -1.228272747990518e-05)
(-1.525547974936559 1.167073209313053e-11 -1.228239472045674e-05)
(-1.525547974297651 2.803064883068453e-13 -1.228271175501938e-05)
(-1.52554797486711 -7.412764588125494e-12 -1.228240455854507e-05)
(-1.525547974377431 -3.570011046866846e-12 -1.228269424332709e-05)
(-1.525547974889154 -1.311043676905542e-11 -1.228241187184604e-05)
(-1.525547974419446 2.953929634353592e-12 -1.228267920216692e-05)
(-1.525547974876012 3.721574385331589e-13 -1.228241705819543e-05)
(-1.525547974398952 2.397082142541006e-12 -1.228266586694822e-05)
(-1.52554797485264 -3.334746483209968e-12 -1.228242076162683e-05)
(-1.525547974417004 6.410017177194568e-13 -1.228265372125613e-05)
(-1.525547974843316 -3.068416527996096e-12 -1.228242338601026e-05)
(-1.525547974418684 3.758314374068724e-12 -1.228264243490657e-05)
(-1.525547974819689 -7.311578271409425e-12 -1.228242518976527e-05)
(-1.525547974442673 4.868482329553068e-12 -1.228263178956529e-05)
(-1.525547974794676 -1.009703736774513e-12 -1.228242634485141e-05)
(-1.525547974433129 -3.609036886276832e-12 -1.228262163308928e-05)
(-1.525547974809402 1.452987959141445e-12 -1.228242696934365e-05)
(-1.525547974420957 1.652571250077031e-12 -1.22826118572166e-05)
(-1.525547974787642 -5.986709716075845e-12 -1.228242714405471e-05)
(-1.525547974451219 2.546914131806381e-12 -1.228260238163125e-05)
(-1.525547974768049 8.593751866770846e-13 -1.228242692742688e-05)
(-1.525547974441753 -4.658532437122036e-12 -1.228259314296107e-05)
(-1.525547974775951 2.3929929012373e-12 -1.228242635982868e-05)
(-1.525547974436604 3.877202423376372e-13 -1.228258409306349e-05)
(-1.525547974754575 -4.522436059990741e-12 -1.228242546802924e-05)
(-1.525547974464925 2.629526459102544e-12 -1.228257519185127e-05)
(-1.525547974732035 8.936145386760714e-13 -1.228242427010749e-05)
(-1.525547974455226 -5.138259682965112e-12 -1.22825664036404e-05)
(-1.525547974743493 2.994741162139857e-12 -1.228242277607133e-05)
(-1.525547974446974 9.757791312171551e-13 -1.228255769802548e-05)
(-1.525547974722648 -4.658234632721024e-12 -1.228242098795846e-05)
(-1.525547974472107 2.403895548972715e-12 -1.228254904540614e-05)