/*--------------------------------*- C++ -*----------------------------------*\
| =========                 |                                                 |
| \\      /  F ield         | OpenFOAM: The Open Source CFD Toolbox           |
|  \\    /   O peration     | Version:  v1812                                 |
|   \\  /    A nd           | Web:      www.OpenFOAM.com                      |
|    \\/     M anipulation  |                                                 |
\*---------------------------------------------------------------------------*/
FoamFile
{
    version     2.0;
    format      ascii;
    class       volVectorField;
    location    "20000";
    object      wallShearStress;
}
// * * * * * * * * * * * * * * * * * * * * * * * * * * * * * * * * * * * * * //

dimensions      [0 2 -2 0 0 0 0];


internalField   uniform (0 0 0);

boundaryField
{
    inlet
    {
        type            cyclic;
    }
    outlet
    {
        type            cyclic;
    }
    bottomWall
    {
        type            calculated;
        value           nonuniform List<vector> 
58
(
(0.002064042111895561 -2.192080277628052e-13 4.452956092136104e-08)
(0.002064042111274426 7.114923888514676e-14 4.45296788837997e-08)
(0.00206404211240316 -3.567383719971793e-14 4.452893009595343e-08)
(0.00206404211231882 2.390142442524319e-14 4.452967551801287e-08)
(0.00206404211227046 1.832235053459769e-14 4.452890401463182e-08)
(0.002064042110774372 -8.330602164752652e-15 4.452967637802801e-08)
(0.002064042111620191 2.182736571865102e-14 4.452886143504652e-08)
(0.002064042109933251 -2.667031388933924e-14 4.452968520568571e-08)
(0.002064042112088325 2.011071495893856e-14 4.452881856110761e-08)
(0.002064042110265191 -9.282305699416635e-15 4.452968888176092e-08)
(0.002064042111767985 1.35513878197681e-14 4.45287829773526e-08)
(0.002064042110102534 -1.571158671553224e-14 4.452968374175682e-08)
(0.002064042111632707 1.442849052891427e-14 4.452875577745503e-08)
(0.002064042110298868 -7.797703219031002e-15 4.452967016670291e-08)
(0.00206404211179221 1.103335876257028e-14 4.452873582403878e-08)
(0.002064042109687389 -1.983503767260297e-14 4.452964963332457e-08)
(0.002064042112374237 2.007447974320635e-14 4.452872145682598e-08)
(0.002064042109505063 -9.117379191799824e-15 4.452962382522299e-08)
(0.002064042111771734 2.511318658153767e-15 4.45287110701814e-08)
(0.002064042110107996 1.846516490451016e-15 4.452959418857348e-08)
(0.002064042111609691 5.562554348369695e-15 4.452870342863062e-08)
(0.002064042109486239 -1.235327244907385e-14 4.452956182874366e-08)
(0.002064042112178966 1.229192922794193e-14 4.452869754849481e-08)
(0.00206404210949111 -5.123484557806602e-15 4.452952769878392e-08)
(0.00206404211154653 -1.349115490746975e-15 4.452869265932903e-08)
(0.002064042110140231 5.337371245864692e-15 4.45294924811711e-08)
(0.002064042111377407 2.303166514861124e-15 4.452868831343216e-08)
(0.002064042109601388 -9.736815268455837e-15 4.452945666192342e-08)
(0.002064042111920493 1.025492594520478e-14 4.452868419630287e-08)
(0.002064042109531441 -2.484784120688873e-15 4.452942071927544e-08)
(0.002064042111305957 -3.448466219454933e-15 4.452868009469086e-08)
(0.002064042110229552 5.163264810141281e-15 4.452938502848813e-08)
(0.002064042111199069 -7.170356341761985e-16 4.452867603098081e-08)
(0.002064042109734186 -8.712221088974936e-15 4.452934989441685e-08)
(0.002064042111734181 1.0527436738145e-14 4.452867210304574e-08)
(0.002064042109612359 -2.216704392636765e-15 4.452931574326809e-08)
(0.002064042111171956 -3.607188794907656e-15 4.452866849492964e-08)
(0.00206404211029745 6.688732603583394e-15 4.452928302246304e-08)
(0.002064042111074749 -1.191035899582747e-15 4.452866563347333e-08)
(0.002064042109824366 -8.069117440735058e-15 4.452925222447704e-08)
(0.002064042111674895 7.432374081015784e-15 4.452866406582302e-08)
(0.002064042109775295 -2.605208101430209e-15 4.452922408698471e-08)
(0.002064042111133166 -4.119980537720955e-15 4.452866448530601e-08)
(0.002064042110423494 6.887962243237717e-15 4.452919948049323e-08)
(0.002064042111027763 -2.013871060254679e-15 4.452866789590154e-08)
(0.00206404210994661 -8.011293231884512e-15 4.452917941565897e-08)
(0.002064042111691282 7.48273635185212e-15 4.452867544210867e-08)
(0.002064042110054483 -1.917155672775754e-15 4.452916512701674e-08)
(0.002064042111127573 -6.118515311581078e-15 4.452868824571805e-08)
(0.002064042110653017 9.132229125359921e-15 4.452915762833059e-08)
(0.002064042111011132 5.181515825614921e-15 4.452870711683299e-08)
(0.002064042109867957 5.272817066574954e-15 4.452915694194524e-08)
(0.002064042110945209 2.323684816936846e-14 4.452873006974902e-08)
(0.002064042109022362 1.870936038628599e-14 4.452915976129618e-08)
(0.002064042109266089 1.909447460698235e-14 4.452875941905978e-08)
(0.002064042108008432 3.757268637826975e-14 4.452914214608773e-08)
(0.002064042106799683 5.385391812795468e-14 4.452864604134873e-08)
(0.002064042106226688 -2.965995341289415e-14 4.452927182565812e-08)
)
;
    }
    topWall
    {
        type            calculated;
        value           nonuniform List<vector> 
58
(
(0.01393564052816159 2.364563838135012e-13 9.843653872494239e-08)
(0.01393564053135796 1.956373509136623e-13 9.844054447347276e-08)
(0.01393564053810406 -3.076194172810997e-14 9.843740819337883e-08)
(0.01393564053251928 1.181823868343275e-13 9.844004475333496e-08)
(0.01393564053964756 -5.894107166483729e-14 9.84377712390554e-08)
(0.0139356405335877 7.152268220684568e-14 9.843964183342361e-08)
(0.0139356405397755 -3.387513768170351e-14 9.843801306738036e-08)
(0.01393564053446011 4.417845982533446e-14 9.843933699257111e-08)
(0.01393564053935115 -3.157845544152986e-14 9.843817093414742e-08)
(0.01393564053511423 1.515522655536732e-14 9.843910286566853e-08)
(0.0139356405381798 -3.26270947895148e-14 9.84382683821597e-08)
(0.01393564053546488 2.9470187739113e-14 9.843891969298742e-08)
(0.01393564053818582 -1.475524899313993e-14 9.843832214162372e-08)
(0.01393564053568588 9.935361622070323e-16 9.843877322466543e-08)
(0.0139356405375289 -6.815359973415412e-15 9.843834430864032e-08)
(0.01393564053605213 1.098984474285744e-14 9.843865309821416e-08)
(0.01393564053731926 -1.330119224336794e-14 9.843834369912142e-08)
(0.01393564053613246 1.164532300949862e-14 9.843855174483416e-08)
(0.01393564053737387 -5.984832857354535e-15 9.843832670913846e-08)
(0.01393564053628772 3.005535120153788e-15 9.843846366124782e-08)
(0.01393564053721353 2.358993132720065e-15 9.843829794572546e-08)
(0.01393564053657437 -1.275061231290218e-15 9.843838487650628e-08)
(0.01393564053664099 -7.595830697580658e-15 9.84382607099589e-08)
(0.01393564053633249 8.087406587155861e-15 9.843831251201936e-08)
(0.01393564053683785 1.073384085295091e-14 9.843821733775926e-08)
(0.01393564053659658 -6.126660309351157e-15 9.843824449564723e-08)
(0.01393564053654165 -1.837838958691235e-14 9.843816946992392e-08)
(0.01393564053616141 1.362497632218231e-14 9.843817932622389e-08)
(0.01393564053706405 -2.122503883932452e-16 9.84381182295699e-08)
(0.01393564053639894 -1.623523238211022e-14 9.843811591564101e-08)
(0.01393564053616229 2.73319494215968e-15 9.843806434454016e-08)
(0.01393564053659913 -1.881937418284926e-15 9.843805343767691e-08)
(0.01393564053639213 -1.088603339636362e-14 9.843800832387991e-08)
(0.01393564053592396 -4.001386693598217e-15 9.843799123858248e-08)
(0.01393564053622068 2.587597311376592e-15 9.843795039749892e-08)
(0.01393564053608465 -5.109093988742792e-15 9.843792880582574e-08)
(0.01393564053583523 -1.417964170974843e-14 9.843789065370776e-08)
(0.01393564053581196 4.385596289326291e-15 9.843786564928529e-08)
(0.01393564053591651 -9.666275334888667e-16 9.843782902433997e-08)
(0.01393564053557983 -1.328087034518062e-14 9.843780127453884e-08)
(0.01393564053553289 -2.787819326618407e-15 9.84377652742328e-08)
(0.01393564053546544 -1.846413748847199e-15 9.843773512752363e-08)
(0.01393564053524128 -7.553154087805364e-15 9.843769897924791e-08)
(0.01393564053525132 1.504970864142954e-15 9.843766651081251e-08)
(0.0139356405351921 -1.018318347552004e-14 9.843762947446969e-08)
(0.01393564053477475 -1.497930191129402e-14 9.8437594473986e-08)
(0.01393564053480489 5.075228208497164e-15 9.843755572756118e-08)
(0.01393564053485437 -2.171749863316431e-15 9.84375176588052e-08)
(0.01393564053447011 -1.798727800177162e-14 9.843747612588407e-08)
(0.01393564053419524 3.591996803881396e-16 9.84374339742816e-08)
(0.01393564053438013 7.228213999980521e-17 9.84373880817435e-08)
(0.01393564053387401 -2.716513552569837e-14 9.843734005199674e-08)
(0.01393564053360246 -8.29667013604799e-15 9.843728724778507e-08)
(0.01393564053298952 -2.332257885488397e-14 9.843723010514611e-08)
(0.01393564053330744 -7.281217149774709e-15 9.843716602592236e-08)
(0.01393564053113266 -5.93517406307895e-14 9.843709272895949e-08)
(0.01393564053340667 7.468766201415288e-14 9.843701324702503e-08)
(0.01393564052727899 -3.522096789755962e-13 9.84369176850305e-08)
)
;
    }
    left
    {
        type            cyclic;
    }
    right
    {
        type            cyclic;
    }
}


// ************************************************************************* //
