/*--------------------------------*- C++ -*----------------------------------*\
| =========                 |                                                 |
| \\      /  F ield         | OpenFOAM: The Open Source CFD Toolbox           |
|  \\    /   O peration     | Version:  v1812                                 |
|   \\  /    A nd           | Web:      www.OpenFOAM.com                      |
|    \\/     M anipulation  |                                                 |
\*---------------------------------------------------------------------------*/
FoamFile
{
    version     2.0;
    format      ascii;
    class       volScalarField;
    location    "10000";
    object      nut;
}
// * * * * * * * * * * * * * * * * * * * * * * * * * * * * * * * * * * * * * //

dimensions      [0 2 -1 0 0 0 0];


internalField   nonuniform List<scalar> 
3770
(
5.717877777860236e-06
5.717879270809933e-06
5.71787914195181e-06
5.717879182041782e-06
5.717879161648806e-06
5.717879162406429e-06
5.717879126762891e-06
5.717879129192844e-06
5.71787911473379e-06
5.717879075919687e-06
5.717879119776674e-06
5.717879106366836e-06
5.717879094302252e-06
5.717879110863356e-06
5.717879127358697e-06
5.717879127910615e-06
5.71787914315582e-06
5.717879152815958e-06
5.71787919194885e-06
5.717879156013093e-06
5.71787914773601e-06
5.717879145875802e-06
5.717879116696077e-06
5.717879134769771e-06
5.717879113726045e-06
5.717879143126178e-06
5.717879092504268e-06
5.717879126331495e-06
5.717879082809357e-06
5.717879126695938e-06
5.717879070363539e-06
5.717879204703148e-06
5.717879109177172e-06
5.717879147661805e-06
5.717879137421853e-06
5.717879178013919e-06
5.717879190163648e-06
5.717879136357386e-06
5.717879189228417e-06
5.717879163223432e-06
5.717879194011191e-06
5.717879078806295e-06
5.71787917338909e-06
5.717879173327895e-06
5.717879157730267e-06
5.717879181378977e-06
5.71787919977067e-06
5.717879186783683e-06
5.717879208621178e-06
5.717879181505332e-06
5.717879218607295e-06
5.717879195535506e-06
5.717879202475524e-06
5.717879209668908e-06
5.717879226205811e-06
5.717879227074935e-06
5.71787920951113e-06
5.71787907494047e-06
7.20747623707327e-07
7.20745857226949e-07
7.207462339507915e-07
7.207459750649475e-07
7.207459142452398e-07
7.207457881998548e-07
7.207457177255418e-07
7.207457741609311e-07
7.207457028840999e-07
7.207458237666121e-07
7.207458753890913e-07
7.207460729822371e-07
7.207460916447375e-07
7.207462732126013e-07
7.207463049951276e-07
7.207463459830265e-07
7.207463308259313e-07
7.207462583675127e-07
7.207464062050903e-07
7.207462688658183e-07
7.20746197697143e-07
7.207460588133816e-07
7.207461400676584e-07
7.207460434651781e-07
7.207461291787808e-07
7.207462409332292e-07
7.207462857780916e-07
7.207463660605474e-07
7.207464764405802e-07
7.207465468170169e-07
7.207466440679658e-07
7.207468693773569e-07
7.207468667404724e-07
7.207469566861622e-07
7.207469464681578e-07
7.207470011432977e-07
7.207470926522611e-07
7.20747017316417e-07
7.207471167712348e-07
7.207471200203784e-07
7.207471336708128e-07
7.207470450640257e-07
7.207470620406976e-07
7.20747207642948e-07
7.207470051889669e-07
7.207470512692738e-07
7.207471387221803e-07
7.207471061033451e-07
7.20747163894379e-07
7.207469164630836e-07
7.207470429870575e-07
7.207469890301763e-07
7.207467440750205e-07
7.207466582257898e-07
7.207467454280004e-07
7.207467508440044e-07
7.207468159559879e-07
7.207470217338159e-07
9.350135535164688e-07
9.350081030038851e-07
9.350103469544343e-07
9.350090274314853e-07
9.350088015908525e-07
9.350084587102778e-07
9.350082343317675e-07
9.350084143599999e-07
9.350082406917313e-07
9.350086698587931e-07
9.350090903241251e-07
9.350096973204048e-07
9.350098900031593e-07
9.350107115822383e-07
9.350107341769815e-07
9.350109317395264e-07
9.350109926252296e-07
9.350105613519848e-07
9.350111627313112e-07
9.350103717287716e-07
9.350103886672827e-07
9.350097938525526e-07
9.350102004703885e-07
9.350096865130406e-07
9.350101623409375e-07
9.350105774881775e-07
9.350108248737246e-07
9.350111285750238e-07
9.350118734772603e-07
9.350120697868797e-07
9.350126163819604e-07
9.350133808744534e-07
9.350133097752285e-07
9.350137702432938e-07
9.350136535895265e-07
9.350138917736974e-07
9.350141627735913e-07
9.35013813398587e-07
9.350143991545524e-07
9.35014228404031e-07
9.35014422912046e-07
9.350140390940212e-07
9.350141545626944e-07
9.350148014857162e-07
9.350137532991739e-07
9.350140297050893e-07
9.350145604058366e-07
9.350141451154478e-07
9.350143370507039e-07
9.350132454633521e-07
9.350136657730308e-07
9.350134581976138e-07
9.35012367218534e-07
9.350122348703049e-07
9.350126649549929e-07
9.350124463274829e-07
9.350126549386661e-07
9.350135044651537e-07
2.221108986561809e-06
2.221106295280751e-06
2.221108205893569e-06
2.221107101541552e-06
2.221105984982006e-06
2.221106747320983e-06
2.221106753082192e-06
2.221106974665439e-06
2.221108247967191e-06
2.221107321235021e-06
2.221109265666033e-06
2.221108850847909e-06
2.221109673932726e-06
2.221112424165223e-06
2.221110383181804e-06
2.22111257179137e-06
2.221111275267032e-06
2.221109433240373e-06
2.221111998299725e-06
2.221110373253469e-06
2.22111152946274e-06
2.221110813506168e-06
2.221112407674862e-06
2.221110185556677e-06
2.221111111070734e-06
2.22111376886153e-06
2.221112851441284e-06
2.221113388037731e-06
2.221116426598831e-06
2.221115391576039e-06
2.221115448339498e-06
2.221118062370434e-06
2.221116937668223e-06
2.221119433045383e-06
2.221116405411985e-06
2.221117343402406e-06
2.221119728241867e-06
2.22111657845381e-06
2.22111873929237e-06
2.221117530374114e-06
2.221119538648781e-06
2.221117382336109e-06
2.221117899161168e-06
2.221120078054756e-06
2.221116397541159e-06
2.221116986069574e-06
2.221119962317937e-06
2.221118318862231e-06
2.221116791205136e-06
2.22111475214338e-06
2.221114955852704e-06
2.221116751151364e-06
2.221112189585007e-06
2.221112078114092e-06
2.221114207091238e-06
2.221111556503919e-06
2.221110827338934e-06
2.221111624519842e-06
4.803696981362781e-06
4.803698284999786e-06
4.803697211892117e-06
4.803697287887952e-06
4.803699298393565e-06
4.803698037863097e-06
4.803700433662202e-06
4.803699940681854e-06
4.803701943205064e-06
4.803701061302363e-06
4.8037076920593e-06
4.803698305391629e-06
4.803702392311153e-06
4.803709002647286e-06
4.803702842370696e-06
4.803709741325827e-06
4.803704819443937e-06
4.803702166386703e-06
4.803709721836916e-06
4.803702639264976e-06
4.803708995283894e-06
4.803708138766182e-06
4.803711695078211e-06
4.803706230645178e-06
4.803706047781572e-06
4.803715693972658e-06
4.803707380469734e-06
4.803710593372781e-06
4.80371854353998e-06
4.803713273452472e-06
4.803713330809775e-06
4.803719801753573e-06
4.803718005426691e-06
4.803722287125535e-06
4.803712479754726e-06
4.803714872065526e-06
4.803721892046043e-06
4.8037123732408e-06
4.803716341759088e-06
4.80371605817412e-06
4.803718044807911e-06
4.803715821252353e-06
4.803715885656153e-06
4.803720796932538e-06
4.80371189030266e-06
4.803713055543802e-06
4.803721679849751e-06
4.803715621904906e-06
4.803711823955833e-06
4.80370805469034e-06
4.803708068437577e-06
4.803714019088085e-06
4.803705437203964e-06
4.803702624776351e-06
4.803709614349217e-06
4.803702883865755e-06
4.80370162203068e-06
4.803698959298644e-06
9.077747621576854e-06
9.077756859753477e-06
9.077747731265739e-06
9.077746819429248e-06
9.077757551804579e-06
9.077755354011742e-06
9.077760064361428e-06
9.077757708976398e-06
9.07776046619636e-06
9.077758618499794e-06
9.077771682299627e-06
9.077750466480841e-06
9.077758155418814e-06
9.077770122132389e-06
9.077757552455715e-06
9.077773613701506e-06
9.07775964422457e-06
9.077762338499e-06
9.077772458787622e-06
9.077759284313464e-06
9.077773376366226e-06
9.077772602935826e-06
9.077779115894288e-06
9.077766830588245e-06
9.077765053061533e-06
9.077785337788976e-06
9.077764671968503e-06
9.077771479195643e-06
9.077787439643436e-06
9.077774868066044e-06
9.077771032845766e-06
9.07778784994581e-06
9.077784918363336e-06
9.077792361383218e-06
9.077770669746127e-06
9.077774980451569e-06
9.077788438721406e-06
9.077770922085373e-06
9.077777911334796e-06
9.077777586619708e-06
9.077777819155623e-06
9.07777773110382e-06
9.077775788653288e-06
9.077784863232362e-06
9.077772369758284e-06
9.077768663150675e-06
9.0777875476427e-06
9.077777066547926e-06
9.07776656732599e-06
9.077762611457529e-06
9.077761289246516e-06
9.077775654041525e-06
9.077760924639524e-06
9.077754982655123e-06
9.077771414127004e-06
9.07775409469826e-06
9.077754750658318e-06
9.077749730606864e-06
1.546145351058065e-05
1.546147037247849e-05
1.546145296294855e-05
1.546145127198496e-05
1.546147235338138e-05
1.546147005495591e-05
1.54614764562146e-05
1.546147037985826e-05
1.546147191215371e-05
1.546146932236831e-05
1.546148929908995e-05
1.546146098315656e-05
1.546146835339519e-05
1.546148549679463e-05
1.546146415351287e-05
1.546149271722268e-05
1.546147266332653e-05
1.546148305830979e-05
1.546148833014214e-05
1.546147098294349e-05
1.546149483006247e-05
1.546149361474721e-05
1.546150467295366e-05
1.546148183147596e-05
1.546147728214657e-05
1.546151232514391e-05
1.546147401772934e-05
1.546148565592068e-05
1.546151378971079e-05
1.54614855906844e-05
1.546148566215002e-05
1.546151356025993e-05
1.546150787322778e-05
1.546152004689804e-05
1.546148137768073e-05
1.546148667640975e-05
1.54615061734719e-05
1.546148953581918e-05
1.546149686974599e-05
1.546148553362476e-05
1.54614884972716e-05
1.546148748670748e-05
1.546148684525373e-05
1.546150374875021e-05
1.546148544610036e-05
1.546147731545834e-05
1.546150134210355e-05
1.546150382710715e-05
1.54614691290192e-05
1.546147682260554e-05
1.546146137195941e-05
1.546149214036662e-05
1.546147100146479e-05
1.546146212995317e-05
1.546149557521438e-05
1.54614525604212e-05
1.546146271765816e-05
1.5461448815253e-05
2.454233741906481e-05
2.454236227046267e-05
2.454235193562081e-05
2.454234001922762e-05
2.454237075644647e-05
2.4542362533546e-05
2.454237629698597e-05
2.45423622386704e-05
2.454235635992781e-05
2.454235753503763e-05
2.454238323472965e-05
2.454235746275554e-05
2.45423605574562e-05
2.454238107926077e-05
2.454234706208882e-05
2.454238877688168e-05
2.454237566257162e-05
2.454239179881484e-05
2.454238054048575e-05
2.454236673113244e-05
2.45423981790634e-05
2.454239241360549e-05
2.454241216337292e-05
2.454237375406019e-05
2.454236766877063e-05
2.454242047609937e-05
2.454236044925808e-05
2.454237802107501e-05
2.454242349351026e-05
2.454236878028305e-05
2.454237937025853e-05
2.454242264185418e-05
2.454241105146931e-05
2.454243143409963e-05
2.454237110947923e-05
2.454237706820617e-05
2.454240362675255e-05
2.454238519216606e-05
2.454238751918331e-05
2.454238136314716e-05
2.454239696659348e-05
2.454236360664333e-05
2.454237067129068e-05
2.454240262260963e-05
2.454238130882076e-05
2.454236669684892e-05
2.454237661112873e-05
2.454240890809746e-05
2.454234364181585e-05
2.454237086958266e-05
2.454234099992475e-05
2.454238836273138e-05
2.454236347387274e-05
2.454235400070653e-05
2.454240187824023e-05
2.454233242340393e-05
2.454235059354108e-05
2.454233710874671e-05
3.741955394073887e-05
3.741959093404989e-05
3.74195777386499e-05
3.741958492142928e-05
3.741960330388767e-05
3.741959441697744e-05
3.741961123082795e-05
3.741958262314811e-05
3.741956650909675e-05
3.741957099650201e-05
3.741960886834644e-05
3.741958183786869e-05
3.741959355520959e-05
3.741960631822018e-05
3.741956405221953e-05
3.741962644118637e-05
3.74196070695867e-05
3.741963463907267e-05
3.741961490582918e-05
3.741961440079165e-05
3.741963993956742e-05
3.74196059950891e-05
3.74196559881402e-05
3.741958808727907e-05
3.741959958728458e-05
3.741966262626864e-05
3.741958000834771e-05
3.741960553565808e-05
3.741966784364871e-05
3.741959104875891e-05
3.741961298539222e-05
3.741967753297691e-05
3.74196374380787e-05
3.741968125763731e-05
3.741959937175044e-05
3.741960574938631e-05
3.741963944623035e-05
3.741961698206489e-05
3.741961235037959e-05
3.741960858791016e-05
3.741963284072334e-05
3.741958870217458e-05
3.741958286924903e-05
3.741963831507779e-05
3.741962024476652e-05
3.741959421267708e-05
3.741959305728915e-05
3.741964364841391e-05
3.741956279286663e-05
3.7419607824876e-05
3.741956345592432e-05
3.741961723224705e-05
3.741959333797723e-05
3.741960181331673e-05
3.741964507172923e-05
3.741955184405926e-05
3.741957025898437e-05
3.741957783123387e-05
5.656340744129466e-05
5.656343099503561e-05
5.656342762847153e-05
5.656343422898214e-05
5.656343717365956e-05
5.656345044460638e-05
5.65634352890573e-05
5.656338310143935e-05
5.65634208029947e-05
5.656338645576104e-05
5.656343566649206e-05
5.656340813083952e-05
5.656344541651653e-05
5.656342974451442e-05
5.656339506430739e-05
5.656347858268365e-05
5.656345542677118e-05
5.656349188135945e-05
5.656346323340444e-05
5.656347328657829e-05
5.656348043031419e-05
5.656343585789527e-05
5.656350266678788e-05
5.656341759930662e-05
5.656343524456311e-05
5.656350948341695e-05
5.656341074966565e-05
5.656344691639925e-05
5.656352054213048e-05
5.656343362994239e-05
5.656346659857069e-05
5.656352489220624e-05
5.656350672342273e-05
5.656354759367555e-05
5.656344929715923e-05
5.656346353648171e-05
5.656349463805447e-05
5.656347233473774e-05
5.656344546076651e-05
5.656345166972053e-05
5.656349118300876e-05
5.656344125185682e-05
5.65634290325565e-05
5.656349591948857e-05
5.656349755295565e-05
5.656347612355425e-05
5.656345110165738e-05
5.656348801473537e-05
5.656343347297217e-05
5.656347951952503e-05
5.656343954513746e-05
5.656343739249997e-05
5.65634900047489e-05
5.656347116522392e-05
5.656349719389225e-05
5.656342733880295e-05
5.656340799363023e-05
5.656339947929035e-05
8.955666856781776e-05
8.95566354563404e-05
8.955665685884105e-05
8.955665729925651e-05
8.955664856682935e-05
8.955667262942356e-05
8.955657915432397e-05
8.955656039499695e-05
8.955660098859707e-05
8.955660673619444e-05
8.955657028606492e-05
8.955656479937596e-05
8.955664996249559e-05
8.95566261769657e-05
8.955662152554522e-05
8.955671321319145e-05
8.955668403096415e-05
8.955672972043379e-05
8.955668552830695e-05
8.955669503351747e-05
8.955666764605188e-05
8.955663214143164e-05
8.955669987330706e-05
8.955662215411744e-05
8.9556608569494e-05
8.955670485937994e-05
8.955660003744324e-05
8.955665001028835e-05
8.955673737948849e-05
8.955665924911414e-05
8.955669280184941e-05
8.955679090944137e-05
8.955672485666901e-05
8.955680538113759e-05
8.955669979097153e-05
8.955671645845881e-05
8.955677053107031e-05
8.955674493728931e-05
8.955671457487264e-05
8.955671364410282e-05
8.955681081615584e-05
8.955674603386997e-05
8.955674319084614e-05
8.955683109248167e-05
8.955681293049193e-05
8.955682514806691e-05
8.955680432878082e-05
8.955680509753385e-05
8.95567677981858e-05
8.95568132777458e-05
8.955678137859881e-05
8.955675552308467e-05
8.955683917882588e-05
8.955678608204175e-05
8.955677734218325e-05
8.95567253684524e-05
8.955668865381338e-05
8.955667221494275e-05
0.0001583677611992592
0.0001583677831226722
0.0001583677539266796
0.0001583677293178374
0.0001583677019393745
0.0001583677163621502
0.0001583675772198358
0.0001583676050538797
0.0001583675895847894
0.0001583676240874718
0.0001583675861755343
0.0001583675789323861
0.0001583676947278401
0.0001583676941458223
0.0001583677067021128
0.000158367814817271
0.0001583677912710903
0.000158367841585641
0.0001583677862084542
0.0001583677685552958
0.0001583677307137796
0.0001583676975404154
0.0001583677422551076
0.0001583676779251125
0.0001583676498044679
0.0001583677403553928
0.0001583676526603564
0.0001583677187535457
0.0001583678186533806
0.0001583677901817945
0.0001583677958728223
0.0001583679300650247
0.0001583678511716052
0.0001583679581863596
0.0001583678710567282
0.0001583679017686172
0.0001583679550542385
0.0001583679028615944
0.0001583679356845084
0.0001583679319029169
0.0001583680838086045
0.0001583679937874323
0.0001583680387297064
0.0001583681259682065
0.0001583681065511576
0.0001583681429671888
0.0001583680768846954
0.0001583680480253507
0.0001583680502606086
0.0001583681074840464
0.0001583680605809357
0.0001583680767890773
0.0001583681564930803
0.000158368012656688
0.0001583679808053142
0.0001583679869878395
0.0001583678715243803
0.0001583678126420945
0.0003002744426980367
0.0003002744491643966
0.0003002743668244762
0.0003002742870804153
0.0003002742322499078
0.0003002741955541095
0.0003002740753036292
0.0003002740538807458
0.0003002740728827361
0.0003002740669532451
0.0003002740644186483
0.0003002740635909508
0.0003002742272625407
0.0003002742220244631
0.0003002742842886543
0.0003002744246895373
0.0003002744207457449
0.0003002744772963572
0.0003002744005766182
0.0003002743685738971
0.0003002743056567967
0.0003002742816741981
0.0003002742230103067
0.0003002742252527767
0.0003002742100949295
0.0003002742362293848
0.0003002741943823958
0.0003002742697540656
0.0003002744132598763
0.0003002744337610827
0.0003002744381952786
0.0003002745734632596
0.000300274552658204
0.000300274667471066
0.0003002746451656733
0.0003002746932461002
0.0003002746864085286
0.0003002747304135793
0.000300274763376988
0.0003002748067460693
0.0003002750105054354
0.0003002749075064665
0.0003002750006592049
0.000300275082779342
0.0003002750661574631
0.0003002750893034738
0.0003002750576839583
0.000300275049298053
0.0003002750763507708
0.000300275062485817
0.0003002750673125964
0.0003002750860222029
0.0003002751260734318
0.0003002749031197859
0.0003002748575695464
0.0003002748640684274
0.0003002746861609153
0.0003002745421279951
0.0005778420706749061
0.0005778420904558138
0.0005778418661924773
0.0005778417546420388
0.0005778415665601941
0.000577841459871705
0.0005778413143795461
0.0005778412619427377
0.0005778412376800312
0.0005778412115282159
0.000577841228006251
0.0005778412698271507
0.0005778415065951747
0.0005778415379112547
0.000577841716642113
0.0005778418371051433
0.00057784184469031
0.0005778419254001538
0.0005778418662981389
0.000577841778407114
0.000577841672111496
0.00057784161386232
0.0005778415216458845
0.0005778415099310424
0.000577841488762941
0.0005778414750569872
0.0005778415187370701
0.0005778416315901006
0.0005778418015176715
0.0005778418287133368
0.0005778419138673607
0.0005778420768796708
0.0005778421294377501
0.000577842265260358
0.0005778422628615678
0.0005778423464722611
0.0005778423977389436
0.0005778424989142771
0.0005778425364502469
0.0005778427025415359
0.0005778429073257327
0.0005778428532399045
0.0005778430096259787
0.0005778430273268887
0.0005778430840887635
0.0005778430383582573
0.0005778430726148209
0.0005778430871536079
0.0005778431203504548
0.0005778431470243469
0.0005778431354805596
0.000577843191427275
0.0005778430703151946
0.0005778428467777197
0.0005778427429788606
0.0005778426751827805
0.0005778424699940322
0.0005778422546837655
0.001059465943794525
0.001059465977438054
0.001059465591118093
0.001059465448165887
0.001059465094006997
0.001059464926461467
0.001059464654271775
0.001059464503644535
0.001059464436175697
0.001059464376185327
0.001059464479487718
0.001059464538399194
0.001059464869675207
0.001059464974547543
0.001059465261710687
0.001059465371950842
0.001059465446209002
0.001059465480965136
0.001059465445440814
0.001059465365919035
0.001059465186382197
0.001059465117957708
0.001059464923121249
0.00105946486582287
0.001059464794627136
0.001059464791472283
0.001059464952387186
0.001059465066132113
0.001059465274005515
0.001059465380605508
0.001059465500719944
0.001059465707333191
0.001059465859968146
0.001059466016475761
0.001059466099959177
0.001059466254183827
0.001059466360230331
0.001059466474384817
0.001059466588089331
0.001059466835194598
0.001059467029813531
0.001059467026008138
0.001059467206512866
0.00105946724920447
0.001059467294418454
0.001059467291287378
0.001059467348099137
0.001059467369177126
0.001059467438270862
0.001059467447160139
0.001059467482893952
0.001059467509634724
0.001059467336178
0.001059467074528771
0.001059466867135129
0.001059466790610726
0.001059466516544491
0.001059466254626381
0.001763775459338092
0.001763775485369634
0.001763774970961787
0.001763774783279369
0.001763774275922202
0.001763774038773789
0.001763773636588973
0.001763773395093982
0.001763773296380971
0.001763773184557605
0.00176377332442147
0.00176377338682837
0.001763773814489399
0.001763773976809186
0.001763774346869574
0.001763774495924784
0.001763774587633501
0.001763774612144214
0.001763774598810096
0.001763774537873789
0.001763774293412042
0.001763774207242404
0.001763773902630348
0.001763773800100328
0.001763773698342907
0.001763773678614557
0.001763773903573516
0.00176377401482451
0.001763774300803692
0.001763774460350248
0.001763774656664575
0.001763774898241877
0.001763775125372452
0.001763775342771624
0.001763775493005306
0.001763775722864204
0.001763775847272256
0.001763775995639267
0.001763776138977131
0.001763776422746025
0.001763776612848115
0.001763776645110226
0.001763776849850186
0.001763776916999517
0.001763776989874773
0.001763777022050338
0.00176377710493027
0.001763777134177339
0.001763777232729091
0.001763777245796703
0.001763777309479518
0.001763777307377022
0.001763777117325372
0.001763776828179182
0.001763776538876506
0.001763776467569586
0.001763776126906593
0.001763775876377959
0.002636428894470604
0.002636428865701747
0.002636428272453768
0.002636428047643208
0.002636427427953359
0.002636427137895856
0.002636426634892085
0.002636426330987363
0.002636426199101497
0.002636426063193972
0.002636426185690395
0.002636426226386466
0.002636426699312102
0.002636426889317538
0.002636427332777874
0.002636427530397885
0.002636427653404321
0.002636427683937086
0.002636427674918542
0.002636427606314408
0.002636427343316651
0.002636427238386455
0.002636426865984457
0.00263642672009752
0.002636426580207765
0.002636426535532586
0.00263642676392472
0.002636426864940099
0.002636427227788193
0.002636427405618595
0.002636427703639819
0.002636427966706086
0.002636428228164781
0.002636428515816079
0.002636428711309432
0.002636429008037274
0.00263642913755234
0.002636429309833961
0.002636429442576676
0.002636429709509889
0.002636429896377566
0.002636429972430203
0.002636430192412882
0.00263643027185099
0.002636430400007308
0.0026364304528615
0.002636430564699927
0.002636430608586562
0.002636430721270767
0.002636430754662332
0.00263643082940576
0.002636430823236451
0.002636430645410576
0.002636430348698207
0.00263642999629494
0.002636429905094646
0.002636429552243233
0.002636429349060921
0.003603498932703651
0.003603498837235093
0.003603498190015225
0.003603497927956241
0.003603497234005364
0.00360349690573966
0.003603496342600764
0.003603495994502701
0.003603495828357901
0.003603495699672318
0.003603495769399698
0.00360349577647095
0.00360349622982414
0.003603496441885463
0.003603496894491012
0.003603497174127442
0.003603497335752279
0.003603497378339145
0.003603497378551883
0.00360349726709851
0.003603497018709858
0.003603496898673422
0.003603496506550008
0.003603496318217147
0.003603496160272655
0.003603496092797983
0.003603496259578512
0.003603496349816971
0.00360349676885344
0.003603496956458597
0.003603497291286585
0.00360349760005992
0.003603497877627336
0.003603498237140079
0.003603498456020256
0.003603498814547355
0.003603498964979742
0.0036034991461843
0.003603499249616055
0.00360349947647859
0.00360349967542092
0.003603499771140405
0.003603500023642553
0.00360350009381474
0.003603500284397676
0.003603500343413497
0.003603500503442098
0.003603500570257521
0.00360350069621072
0.003603500740345844
0.003603500849620831
0.003603500837605603
0.003603500686426187
0.003603500420182977
0.003603499993184658
0.00360349986534521
0.003603499527848342
0.003603499356998507
0.004626129572240826
0.004626129387112305
0.004626128672325041
0.004626128388436102
0.004626127612949898
0.004626127280638112
0.004626126666330672
0.004626126305967417
0.004626126093193254
0.004626125988453445
0.004626126014663205
0.004626125999932547
0.004626126340920839
0.004626126616826109
0.004626127010866449
0.004626127364280182
0.004626127615427114
0.004626127629310558
0.004626127676329752
0.004626127462113056
0.004626127256907806
0.004626127106113813
0.004626126757499171
0.004626126535580686
0.004626126356879432
0.004626126275071814
0.004626126379327539
0.004626126452140588
0.004626126892594055
0.004626127131935004
0.004626127427039398
0.004626127820901848
0.004626128090359879
0.004626128520694089
0.00462612874702542
0.004626129162513599
0.00462612939683197
0.004626129508422857
0.004626129622276594
0.00462612980827699
0.004626129989228871
0.004626130089118862
0.004626130426185497
0.004626130440546991
0.004626130715397268
0.004626130792933401
0.004626131006097322
0.004626131097127284
0.004626131214627938
0.00462613127981691
0.004626131479085762
0.00462613141524405
0.004626131319861191
0.004626131142720334
0.004626130589590476
0.004626130423982504
0.004626130115583311
0.004626129916720598
0.005686224208661122
0.005686223921748815
0.005686223100647392
0.005686222764761877
0.005686221955609127
0.005686221598848328
0.005686220974399381
0.005686220682193987
0.005686220371179929
0.005686220311299251
0.005686220342344523
0.005686220265604359
0.005686220448432589
0.005686220842185619
0.005686221105759923
0.005686221422859949
0.005686221907488484
0.005686221867964017
0.005686221958720427
0.005686221577774223
0.005686221400158412
0.005686221190589131
0.005686221007852643
0.005686220750489963
0.005686220522710295
0.005686220448380288
0.005686220525529031
0.005686220573951027
0.005686220963828616
0.0056862213914796
0.005686221558562408
0.005686222100775344
0.005686222286696888
0.005686222834555978
0.005686223019192829
0.005686223398972482
0.005686223853614463
0.005686223805365482
0.005686223946835786
0.005686224167920815
0.005686224253043293
0.005686224313759821
0.005686224864214088
0.005686224783974785
0.005686225072203123
0.005686225318721584
0.005686225478512492
0.005686225734288457
0.005686225779586666
0.005686225821362513
0.00568622617656972
0.005686226034101893
0.005686225990248778
0.005686226043241989
0.005686225237586734
0.005686225024539917
0.005686224787599656
0.0056862245634815
0.006718212115600235
0.006718211671343941
0.006718210661812098
0.006718210179491072
0.006718209540832195
0.006718209073062966
0.006718208505580991
0.006718208357135201
0.006718207859263997
0.006718207853833754
0.006718207977454589
0.006718207747249842
0.006718207833954219
0.006718208505314491
0.006718208579318528
0.006718208644644563
0.006718209416228695
0.006718209367733044
0.006718209461407948
0.006718209093991051
0.006718208677701407
0.006718208519663213
0.006718208465523703
0.006718208327486885
0.006718207730404797
0.006718207714702487
0.006718207962461222
0.006718207942865889
0.006718208182850014
0.006718208987527452
0.006718208913547641
0.006718209621489373
0.006718209723490399
0.006718210253487365
0.0067182105866038
0.006718210786175763
0.006718211465386189
0.006718211328835489
0.006718211403266643
0.006718211925528284
0.006718211787711999
0.006718211797236127
0.006718212585210115
0.006718212560942909
0.006718212658710662
0.006718213400540431
0.006718213271415591
0.006718213744504247
0.006718213523764467
0.006718213735167842
0.006718214240683729
0.006718213731198529
0.006718214015571733
0.006718214301937813
0.00671821321786119
0.006718212879600639
0.006718212835383398
0.006718212699824221
0.007678395994562105
0.007678395491999061
0.00767839421120578
0.007678393395059522
0.007678393486592086
0.007678392633298351
0.007678391891174771
0.007678391646540948
0.007678391586313046
0.007678390952182357
0.007678391510954879
0.007678390990849884
0.00767839122957416
0.007678392056426587
0.007678391753427659
0.007678391913624068
0.007678392794172936
0.007678392662797872
0.007678392742332151
0.007678392347079488
0.00767839232921945
0.007678391582944828
0.00767839175201193
0.007678391097400056
0.007678391284884599
0.007678390887731252
0.007678390833955128
0.007678391686615047
0.007678391382857447
0.007678392332079975
0.00767839231336927
0.007678392944095952
0.007678393202322059
0.007678393491463311
0.007678394362027233
0.007678394339570801
0.00767839493884769
0.007678394309192421
0.007678394753437556
0.007678395294134937
0.007678395088037188
0.007678395211097652
0.007678396082175614
0.007678395998915971
0.007678396304986623
0.007678397289147276
0.007678396787654845
0.007678397459296241
0.007678397228748151
0.007678397185715793
0.007678398050940223
0.007678397246259123
0.007678397737929514
0.007678398318972495
0.007678397021499364
0.007678396574554478
0.007678396771488859
0.00767839685159703
0.008558226914986828
0.008558227010132535
0.008558224974835018
0.0085582238980985
0.008558224255250499
0.008558223216123048
0.008558222523656445
0.008558222116644934
0.008558222043402949
0.008558221494500751
0.008558221995003211
0.008558221362210263
0.008558221255814534
0.008558222405253344
0.00855822244217368
0.008558222158215176
0.008558223220681208
0.008558222881557933
0.008558222990076844
0.008558222713467257
0.008558222564951283
0.008558221505314862
0.008558221862916318
0.008558221218065125
0.008558221485314486
0.008558221126585028
0.008558220853552815
0.008558221998138618
0.008558221843310537
0.008558222672746217
0.008558222597485671
0.008558223359061066
0.008558223523411599
0.00855822375412398
0.008558224886743302
0.008558224708571273
0.008558225216181801
0.008558224359162063
0.00855822490079274
0.008558225712139236
0.008558224747085617
0.008558225417213086
0.008558226579069335
0.008558225847394275
0.008558226570073268
0.008558227800778823
0.008558227199905595
0.00855822807146832
0.008558227573210597
0.008558227826704788
0.008558228750408891
0.008558227578195177
0.008558228276251068
0.008558228923352553
0.008558228212819926
0.008558227518343099
0.008558227547506903
0.0085582273722679
0.009360091680031241
0.00936009196165318
0.009360089996403686
0.009360088844388468
0.009360088621189921
0.009360088411800407
0.009360087068026999
0.009360086640112907
0.009360086480006061
0.009360085880450311
0.009360086524593069
0.009360085730239309
0.009360085500210001
0.009360086921015687
0.009360086704601549
0.009360086462622146
0.009360087746736238
0.009360087131275464
0.009360086979295953
0.009360087268392037
0.009360086203019112
0.009360086041570516