/*--------------------------------*- C++ -*----------------------------------*\
| =========                 |                                                 |
| \\      /  F ield         | OpenFOAM: The Open Source CFD Toolbox           |
|  \\    /   O peration     | Version:  v1812                                 |
|   \\  /    A nd           | Web:      www.OpenFOAM.com                      |
|    \\/     M anipulation  |                                                 |
\*---------------------------------------------------------------------------*/
FoamFile
{
    version     2.0;
    format      ascii;
    class       volScalarField;
    location    "10000";
    object      p;
}
// * * * * * * * * * * * * * * * * * * * * * * * * * * * * * * * * * * * * * //

dimensions      [0 2 -2 0 0 0 0];


internalField   nonuniform List<scalar> 
3770
(
-1.948995049507426e-08
-7.142369632549376e-09
-7.657100037281133e-08
1.019054588157371e-08
7.441120720512832e-08
1.156476900474641e-07
1.54645065813232e-07
1.483284032454571e-07
1.568047622570469e-07
4.021602156039948e-08
4.180075370059836e-09
-1.472228560099887e-07
-2.566406654595443e-07
-3.668524603483281e-07
-4.807473435985624e-07
-5.918309768361218e-07
-6.889567900410587e-07
-7.68274510268799e-07
-8.433591317948409e-07
-9.39058656067003e-07
-9.438537763055704e-07
-9.375531831893869e-07
-9.151243143303982e-07
-8.680002624995602e-07
-8.31672804269646e-07
-8.137236108210058e-07
-8.040527175457494e-07
-8.002667247778464e-07
-8.25023739506397e-07
-8.149689005301937e-07
-8.402577458371748e-07
-7.780943736876256e-07
-8.425986692990941e-07
-8.203613927562804e-07
-8.26555824200826e-07
-7.259758237665195e-07
-7.17699321688052e-07
-6.298770365443006e-07
-5.477299681219771e-07
-4.726656664468068e-07
-4.284690953333617e-07
-4.179260400988653e-07
-4.140883613694579e-07
-4.431810573403851e-07
-4.988172625157293e-07
-5.723008936343824e-07
-6.319807451700671e-07
-7.217743127094745e-07
-7.1205927096923e-07
-7.491097488930722e-07
-7.530947302554829e-07
-7.77147276981033e-07
-7.417450833824131e-07
-6.6661466453203e-07
-5.724447856508856e-07
-5.46852579436033e-07
-5.610918403296766e-07
-4.574752482441754e-07
-3.302033212991704e-08
-1.205931569476682e-08
-7.559796988173277e-08
9.780552596699437e-09
7.454025038772547e-08
1.156272155403492e-07
1.547264281338181e-07
1.484248492487204e-07
1.568333811527623e-07
4.045790724317957e-08
4.191467266993111e-09
-1.4712426828668e-07
-2.565231202180465e-07
-3.668093994654675e-07
-4.806953081342683e-07
-5.917937686583271e-07
-6.889703645483519e-07
-7.683556677211414e-07
-8.435282238137896e-07
-9.389144240089351e-07
-9.440205194757252e-07
-9.376704567901746e-07
-9.151329341929255e-07
-8.681083959049969e-07
-8.316529974268011e-07
-8.137683320704159e-07
-8.039887879379393e-07
-8.002523188711763e-07
-8.249065622392725e-07
-8.148923778024878e-07
-8.401565022312527e-07
-7.78391900379155e-07
-8.422133434597105e-07
-8.202043737701289e-07
-8.263781761179222e-07
-7.260781138861153e-07
-7.175608233930769e-07
-6.298160858795619e-07
-5.477163090516627e-07
-4.726502112580664e-07
-4.284800793520509e-07
-4.181090538998814e-07
-4.140619191994357e-07
-4.431924319005708e-07
-4.988562471641367e-07
-5.722992217169207e-07
-6.319823438251544e-07
-7.214556136505275e-07
-7.12235741335942e-07
-7.490875206350382e-07
-7.530977575764602e-07
-7.770770137261519e-07
-7.418121377242258e-07
-6.667660847156217e-07
-5.726755704838712e-07
-5.466944369798704e-07
-5.598559700415519e-07
-4.528099785652986e-07
-4.355964811341339e-08
-1.807917213830273e-08
-7.422841973655114e-08
9.178404109132871e-09
7.485209209903773e-08
1.156299048673284e-07
1.549962781691919e-07
1.486632349381944e-07
1.568895581860871e-07
4.091569480277804e-08
4.20530739694937e-09
-1.469450076503871e-07
-2.563362189885448e-07
-3.667804073363755e-07
-4.806347398172099e-07
-5.917701649735076e-07
-6.890331440124872e-07
-7.685360468724357e-07
-8.43893719937202e-07
-9.385792064977511e-07
-9.443340463710371e-07
-9.378493599210042e-07
-9.151095290812214e-07
-8.682685741611429e-07
-8.315776402648429e-07
-8.138219700888934e-07
-8.038615017000876e-07
-8.002301714396771e-07
-8.247245364040828e-07
-8.147856064819812e-07
-8.399751060190394e-07
-7.789195004748046e-07
-8.416415548163065e-07
-8.199660655764521e-07
-8.260806792416189e-07
-7.263180150582339e-07
-7.172623208039793e-07
-6.297990906608256e-07
-5.476662413448357e-07
-4.726575647854064e-07
-4.285507831980402e-07
-4.184300025687566e-07
-4.13974141391867e-07
-4.432525080756568e-07
-4.98896455050085e-07
-5.723102245523234e-07
-6.320063004838688e-07
-7.209362448835903e-07
-7.125523939300827e-07
-7.490493000939848e-07
-7.531373166743369e-07
-7.769543691833061e-07
-7.419712175321814e-07
-6.670856701086453e-07
-5.731337478424094e-07
-5.463766887977359e-07
-5.579989759063617e-07
-4.471438932809724e-07
-5.309409666292395e-08
-2.438859458117577e-08
-7.273815690324176e-08
8.424790248904903e-09
7.530057260419063e-08
1.156868342548727e-07
1.554192813758789e-07
1.491188971624195e-07
1.570245893580982e-07
4.16936612057697e-08
4.230769530339732e-09
-1.466804030971451e-07
-2.56000771647849e-07
-3.667524795149074e-07
-4.805588426928572e-07
-5.917668022684972e-07
-6.891695560096445e-07
-7.688612663080384e-07
-8.444805069508382e-07
-9.381329007639262e-07
-9.447750623685961e-07
-9.380915128256068e-07
-9.150094747564175e-07
-8.684673339465501e-07
-8.314086138909394e-07
-8.138844537143424e-07
-8.036249830279943e-07
-8.001904040729145e-07
-8.243978771347091e-07
-8.14632063609964e-07
-8.396975336518719e-07
-7.797947396662581e-07
-8.407374994726941e-07
-8.196448378804361e-07
-8.256031422650915e-07
-7.267137539294793e-07
-7.168606335463554e-07
-6.296841322140638e-07
-5.476026872889345e-07
-4.726194482418596e-07
-4.286221416808592e-07
-4.18919888166147e-07
-4.138999471766355e-07
-4.433654301162948e-07
-4.990171574542731e-07
-5.72363127185389e-07
-6.320706783669076e-07
-7.20140320440961e-07
-7.130464273437402e-07
-7.490178202223783e-07
-7.532515122279306e-07
-7.76794070186414e-07
-7.422248117228547e-07
-6.67535026328493e-07
-5.739593834720363e-07
-5.462442402279282e-07
-5.558551921225403e-07
-4.412546369243908e-07
-6.229571252780977e-08
-3.014519305083962e-08
-7.133673486133618e-08
7.704389638092427e-09
7.587393674383149e-08
1.157626779488689e-07
1.560632778025644e-07
1.497346940804252e-07
1.572088071493944e-07
4.266090726984727e-08
4.250582100104943e-09
-1.463341515056985e-07
-2.556008348838292e-07
-3.667479821393759e-07
-4.804854206100035e-07
-5.917930621311012e-07
-6.893688612236247e-07
-7.692804194890139e-07
-8.452850437532421e-07
-9.375372552492542e-07
-9.453440047108162e-07
-9.383660527512231e-07
-9.148639036893557e-07
-8.686974708550122e-07
-8.31152773773212e-07
-8.139420888499308e-07
-8.033038810227939e-07
-8.001388484211107e-07
-8.240008167534289e-07
-8.144660221342341e-07
-8.39308278921968e-07
-7.808367479833907e-07
-8.39774717918465e-07
-8.192823787680016e-07
-8.250266565932235e-07
-7.272485605286546e-07
-7.163402637843005e-07
-6.2964795819721e-07
-5.475143380215258e-07
-4.726085544674352e-07
-4.28759331922332e-07
-4.19486919976815e-07
-4.137832483075117e-07
-4.435329795641759e-07
-4.991379597699022e-07
-5.724225333358923e-07
-6.32187895034214e-07
-7.192376232663998e-07
-7.136175491073425e-07
-7.489816907207294e-07
-7.534144652364182e-07
-7.766115537686502e-07
-7.425794933059334e-07
-6.681328340136434e-07
-5.750286711782108e-07
-5.461481044077703e-07
-5.536771778770417e-07
-4.359047681160925e-07
-7.16094683913123e-08
-3.596103973182301e-08
-7.009097069244779e-08
6.996389950988606e-09
7.652261315247046e-08
1.158829165993038e-07
1.568772333161598e-07
1.505914572900045e-07
1.5751226596242e-07
4.394608504084108e-08
4.304738494684487e-09
-1.458549987939552e-07
-2.550219036599415e-07
-3.667256131058358e-07
-4.803913924873353e-07
-5.918415882799281e-07
-6.896543847854607e-07
-7.698530247626491e-07
-8.463327244395855e-07
-9.369082229967659e-07
-9.460260263452026e-07
-9.386795029935005e-07
-9.146324305856819e-07
-8.689617948172496e-07
-8.307834232366771e-07
-8.140072754265064e-07
-8.028448779362035e-07
-8.000691938815376e-07
-8.234166893753426e-07
-8.142583533761028e-07
-8.387595726365996e-07
-7.822035307363671e-07
-8.385286574198618e-07
-8.188317201811261e-07
-8.242497575491083e-07
-7.279007808242273e-07
-7.157388762019326e-07
-6.294870569463415e-07
-5.474165618810605e-07
-4.725396009799769e-07
-4.288968051710346e-07
-4.20173245468209e-07
-4.137134831619793e-07
-4.437737386185054e-07
-4.993635345860671e-07
-5.725202488076868e-07
-6.323603445296247e-07
-7.181045362346226e-07
-7.143334001090649e-07
-7.489510701228847e-07
-7.536681681611184e-07
-7.763839755940188e-07
-7.430184120753817e-07
-6.688318120775571e-07
-5.765433828948908e-07
-5.465526677068331e-07
-5.516278655921947e-07
-4.305699486343758e-07
-8.073647011086171e-08
-4.139886306236687e-08
-6.901569411854459e-08
6.44999666331307e-09
7.72533829038304e-08
1.160056086362033e-07
1.579563507050055e-07
1.516173924851728e-07
1.578966876090608e-07
4.538942405433138e-08
4.351038807993426e-09
-1.45258327629132e-07
-2.543935964212516e-07
-3.667217040726154e-07
-4.803112604430059e-07
-5.919282771811132e-07
-6.900111862635436e-07
-7.705072224828107e-07
-8.476310353095618e-07
-9.361619850606322e-07
-9.468267341260355e-07
-9.389915958589813e-07
-9.143516617701572e-07
-8.692481780575312e-07
-8.303079650677587e-07
-8.140629687879038e-07
-8.022851483227454e-07
-7.999913246075941e-07
-8.22754864073562e-07
-8.140588190846906e-07
-8.380512563079456e-07
-7.837161125493622e-07
-8.372988721781283e-07
-8.183500154934458e-07
-8.233710337781396e-07
-7.28675680138024e-07
-7.150340140085926e-07
-6.294404814409093e-07
-5.472927375026635e-07
-4.72515415490416e-07
-4.29115861374578e-07
-4.208916317785911e-07
-4.136213278857091e-07
-4.440844291702515e-07
-4.99579731415814e-07
-5.72605061866525e-07
-6.326031992084271e-07
-7.16914795014399e-07
-7.150836667170811e-07
-7.489095063252372e-07
-7.539723416461553e-07
-7.761211021342221e-07
-7.435527843827084e-07
-6.696807805340483e-07
-5.783321769604506e-07
-5.471268801142356e-07
-5.497264986650071e-07
-4.255540156843061e-07
-8.995268004096649e-08
-4.716293684529915e-08
-6.819037314500483e-08
6.031019465222191e-09
7.799810211678563e-08
1.161874954673126e-07
1.592633918401192e-07
1.529242013958364e-07
1.584707171007772e-07
4.717646261417131e-08
4.464624224453428e-09
-1.444483899036765e-07
-2.535429249695633e-07
-3.666808105987274e-07
-4.802048928884368e-07
-5.920505873057109e-07
-6.904832695104003e-07
-7.713383659394681e-07
-8.49193709572109e-07
-9.354566967216023e-07
-9.477357970568568e-07
-9.393081246755999e-07
-9.139588017379049e-07
-8.695421978960161e-07
-8.296828309038504e-07
-8.141067269984502e-07
-8.015492818963153e-07
-7.998795175173124e-07
-8.218620748887548e-07
-8.138313197590448e-07
-8.371500302415749e-07
-7.855587904864795e-07
-8.358087801492837e-07
-8.177881211003045e-07
-8.222812042767669e-07
-7.295383730438428e-07
-7.142732569609507e-07
-6.292277511222406e-07
-5.471413408641153e-07
-4.724235302764645e-07
-4.293318282687253e-07
-4.216824274704716e-07
-4.136198671175648e-07
-4.445049555631132e-07
-4.99938177149665e-07
-5.727303631650995e-07
-6.32908055363806e-07
-7.155321508949925e-07
-7.159633891939654e-07
-7.488748112870585e-07
-7.54385724627475e-07
-7.757795446965664e-07
-7.441267365003234e-07
-6.706138289057459e-07
-5.807459439667398e-07
-5.48503182437954e-07
-5.481283658345218e-07
-4.202431743386719e-07
-9.914861765760146e-08
-5.288567249317741e-08
-6.744921186788959e-08
5.849451094860348e-09
7.878698418481647e-08
1.163944675093078e-07
1.609377511514121e-07
1.544340998658401e-07
1.591856587543647e-07
4.913843297660226e-08
4.583344815721275e-09
-1.434456702483759e-07
-2.526504538903054e-07
-3.666637892706017e-07
-4.801259975047843e-07
-5.922371194636488e-07
-6.91061052848857e-07
-7.722709192190599e-07
-8.510748904245741e-07
-9.346579587030414e-07
-9.487730916459805e-07
-9.395888308801004e-07
-9.134955446123749e-07
-8.698324261176202e-07
-8.289054961408885e-07
-8.141172718170338e-07
-8.006811044354754e-07
-7.99741761114696e-07
-8.208824406446307e-07
-8.136314966452854e-07
-8.360512325352861e-07
-7.875458356820798e-07
-8.343841048540104e-07
-8.172194650632815e-07
-8.21085161123665e-07
-7.305223477527117e-07
-7.134273209331739e-07
-6.291560828727791e-07
-5.469471581237193e-07
-4.724080168876105e-07
-4.296577378304264e-07
-4.224821221509261e-07
-4.136160687864616e-07
-4.450372663509204e-07
-5.002956303946949e-07
-5.728215966736433e-07
-6.333053052056458e-07
-7.141293611396756e-07
-7.168604578196129e-07
-7.488223122817237e-07
-7.548497542044432e-07
-7.753670437091289e-07
-7.447976541354291e-07
-6.717676133026546e-07
-5.835942219127816e-07
-5.501315755289376e-07
-5.465920918018505e-07
-4.148347239416737e-07
-1.088801369327415e-07
-5.941399374901048e-08
-6.687356282536424e-08
5.888481327656369e-09
7.950002217875884e-08
1.167738975138299e-07
1.62976532393179e-07
1.562938755873384e-07
1.602356431233439e-07
5.153518784786564e-08
4.858248785954145e-09
-1.420566529892373e-07
-2.515103519850652e-07
-3.665857168646518e-07
-4.800219975301696e-07
-5.925017849778675e-07
-6.918257657735239e-07
-7.734754861833401e-07
-8.532751825749933e-07
-9.339839983905348e-07
-9.499534292872843e-07
-9.398497107757378e-07
-9.128928280483385e-07
-8.700708033901487e-07
-8.279104436081146e-07
-8.140498700588938e-07
-7.995871230830681e-07
-7.994990632449299e-07
-8.19647596257185e-07
-8.133922953493597e-07
-8.347717595436162e-07
-7.898195995997779e-07
-8.327424079880184e-07
-8.165847658189599e-07
-8.196724504070387e-07
-7.315532102864272e-07
-7.125359224034359e-07
-6.288411333985996e-07
-5.46682347675563e-07
-4.723310569311506e-07
-4.299895163126494e-07
-4.233170134401615e-07
-4.137219005084453e-07
-4.45777581759895e-07
-5.008356972146567e-07
-5.729686830565735e-07
-6.337644005124032e-07
-7.125902460573792e-07
-7.179107829787773e-07
-7.487862496983445e-07
-7.554254475167863e-07
-7.748164754795909e-07
-7.454903121755949e-07
-6.731692333464612e-07
-5.874772044978528e-07
-5.528783276898397e-07
-5.451584533777977e-07
-4.087089765882329e-07
-1.194067008885095e-07
-6.643191155663762e-08
-6.608123591653344e-08
6.192051460218987e-09
8.023568147153571e-08
1.173408603804653e-07
1.655951701993564e-07
1.584956300354327e-07
1.615994959496482e-07
5.426124745202409e-08
5.243922820763966e-09
-1.402878315580497e-07
-2.503352558459498e-07
-3.665276406337811e-07
-4.79974602293995e-07
-5.929031629639223e-07
-6.927987806504651e-07
-7.748932809790251e-07
-8.559448473094781e-07
-9.332812455919836e-07
-9.513276767729332e-07
-9.400576261233665e-07
-9.121686508040973e-07
-8.702396513347939e-07
-8.266398492661296e-07
-8.13859556254981e-07
-7.982769002677474e-07
-7.991408878457795e-07
-8.182929202776812e-07
-8.131688319776609e-07
-8.332769108489869e-07
-7.922421289109711e-07
-8.311817706182664e-07
-8.159687066064604e-07
-8.181515984541421e-07
-7.327285276394021e-07
-7.115783452955804e-07
-6.286687911720076e-07
-5.463431103615753e-07
-4.723967518120616e-07
-4.304766275462632e-07
-4.241558654843777e-07
-4.1386421630942e-07
-4.467457087490023e-07
-5.014013457502143e-07
-5.730823285067959e-07
-6.343402694233936e-07
-7.110529274890768e-07
-7.190279995444422e-07
-7.487343664038094e-07
-7.560566012365687e-07
-7.741479528151769e-07
-7.463735203297897e-07
-6.751400474592808e-07
-5.922876595342362e-07
-5.559451841375526e-07
-5.432690061931508e-07
-4.019150943380229e-07
-1.316846941895793e-07
-7.471003065662713e-08
-6.520631265135146e-08
6.644012433245064e-09
8.086455834371979e-08
1.183564090785935e-07
1.68866973050423e-07
1.612826840248781e-07
1.636365065391167e-07
5.77203822893802e-08
6.045384334797782e-09
-1.378120410758841e-07
-2.488758816084458e-07
-3.663189395529524e-07
-4.799142749626294e-07
-5.934744018974588e-07
-6.941186643931311e-07
-7.767747729640646e-07
-8.591170877694455e-07
-9.329074440365246e-07
-9.529957318242682e-07
-9.402664067369645e-07
-9.112605813501244e-07
-8.70257642677296e-07
-8.249817510932428e-07
-8.134280079674012e-07
-7.966200249382077e-07
-7.984989350089999e-07
-8.166185879403889e-07
-8.128368257860986e-07
-8.316236135743523e-07
-7.948878209066541e-07
-8.29414798696255e-07
-8.152786919166222e-07
-8.164151550119149e-07
-7.339440127919005e-07
-7.105787764624987e-07
-6.28208371511657e-07
-5.458540419657323e-07
-4.724291734487968e-07
-4.309300550070762e-07
-4.24960130123215e-07
-4.141706915928725e-07
-4.480604111110418e-07
-5.021810445405901e-07
-5.73318947105982e-07
-6.349915768003522e-07
-7.09462082559525e-07
-7.204199267269639e-07
-7.487317683961661e-07
-7.568299368471962e-07
-7.733105141265824e-07
-7.474048223724732e-07
-6.778349894307242e-07
-5.988537859321365e-07
-5.603009434750717e-07
-5.408699406448936e-07
-3.942107046113803e-07
-1.460058555781915e-07
-8.390069194160761e-08
-6.392057224039873e-08
7.099666895237139e-09
8.162680703532404e-08
1.198625036117997e-07
1.730910367575493e-07
1.648270173048679e-07
1.664688882303843e-07
6.193782881909425e-08
7.269370952380105e-09
-1.345643154624189e-07
-2.47299019093716e-07
-3.659782041157283e-07
-4.799506746543652e-07
-5.942762679296582e-07
-6.958659165596011e-07
-7.791374893746232e-07
-8.630817077817887e-07
-9.327676579780194e-07
-9.550511580461909e-07
-9.404933593213597e-07
-9.101348111304017e-07
-8.700804432364427e-07
-8.227751693520669e-07
-8.126508194619884e-07
-7.945575886583043e-07
-7.974923425759405e-07
-8.146945515766093e-07
-8.123800906866076e-07
-8.296974797365719e-07
-7.976952208285745e-07
-8.277337183036151e-07
-8.145772010690611e-07
-8.145930949602414e-07
-7.353824085588365e-07
-7.095955920812125e-07
-6.278613736703721e-07
-5.451966193663297e-07
-4.725936946172978e-07
-4.314224056189395e-07
-4.257210837074188e-07
-4.146139077501306e-07
-4.497057108878812e-07
-5.030478248853129e-07
-5.736589050195274e-07
-6.358379082596102e-07
-7.079356959629176e-07
-7.2199349012793e-07
-7.487537954452581e-07
-7.577306574782266e-07
-7.723666011357985e-07
-7.488495738365533e-07
-6.816045293979572e-07
-6.069763957505098e-07
-5.651508508110764e-07
-5.376685787987259e-07
-3.858173975839805e-07
-1.630036872389658e-07
-9.441059189401442e-08
-6.26993627216505e-08
7.222938332098356e-09
8.243578029654467e-08
1.220555449545522e-07
1.783880544657823e-07
1.694724652226553e-07
1.706742048340369e-07
6.742404302512025e-08
9.358617070046592e-09
-1.30112893002294e-07
-2.452905083665375e-07
-3.651810870367153e-07
-4.799845750734011e-07
-5.952972153502909e-07
-6.982147204382372e-07
-7.822795394850042e-07
-8.67960631182138e-07
-9.33393736088806e-07
-9.577163117642225e-07
-9.409170793527481e-07
-9.087600674377487e-07
-8.696167717827588e-07
-8.198693798154585e-07
-8.113179890701988e-07
-7.919392757320182e-07
-7.958362991710868e-07
-8.123187260274301e-07
-8.115764811184435e-07
-8.275579660924334e-07
-8.0060500450273e-07
-8.259855679324354e-07
-8.137238340661653e-07
-8.126508824153235e-07
-7.369333637214996e-07
-7.08695762779229e-07
-6.27276535538681e-07
-5.442138092188018e-07
-4.725908471648797e-07
-4.315389522811127e-07
-4.262722220955374e-07
-4.152384650099888e-07
-4.516589589654634e-07
-5.041396572568569e-07
-5.743411902654866e-07
-6.368913746912648e-07
-7.065834376732585e-07
-7.239522893800008e-07
-7.489250459036794e-07
-7.588881473353551e-07
-7.713575781458048e-07
-7.506593254196896e-07
-6.864442175593958e-07
-6.17130154230635e-07
-5.713803047985672e-07
-5.342251777429352e-07
-3.774752994645399e-07
-1.822863753158567e-07
-1.058694658345423e-07
-6.164191798411294e-08
6.761291996255642e-09
8.356746744716787e-08
1.24865434465466e-07
1.850643942415463e-07
1.754746536823709e-07
1.765355739899902e-07
7.428561726083956e-08
1.239816739476526e-08
-1.243633172856929e-07
-2.428704394055233e-07
-3.638504118247863e-07
-4.800741369375824e-07
-5.96557651129172e-07
-7.012710444407402e-07
-7.86262274916144e-07
-8.740730634281467e-07
-9.348729438692669e-07
-9.611420747320897e-07
-9.41662017553051e-07
-9.070686582836029e-07
-8.687797466304078e-07
-8.160277360889672e-07
-8.092297265072722e-07
-7.886636134806137e-07
-7.933596744072315e-07
-8.095090897387101e-07
-8.103185827140639e-07
-8.2510945074745e-07
-8.035517731934062e-07
-8.245130439571671e-07
-8.128280763392295e-07
-8.108834549609613e-07
-7.3883052481073e-07
-7.080736008144465e-07
-6.268188091212801e-07
-5.428175090693356e-07
-4.724006298427529e-07
-4.311260297958887e-07
-4.265222933287061e-07
-4.15961884646565e-07
-4.537599286988452e-07
-5.054052386127701e-07
-5.754708829921482e-07
-6.383333005095286e-07
-7.055935096205102e-07
-7.261862739850774e-07
-7.492509891505076e-07
-7.603138539227947e-07
-7.703827893085001e-07
-7.529383125546792e-07
-6.922491273198685e-07
-6.286728129906726e-07
-5.784572914497801e-07
-5.311550778148775e-07
-3.698884131781933e-07
-2.0366796372502e-07
-1.183751644515397e-07
-6.131569591307246e-08
5.419440276130496e-09
8.493048342183597e-08
1.2828000677024e-07
1.93207918572766e-07
1.830366950983624e-07
1.846183191653609e-07
8.291785009429291e-08
1.680841511853085e-08
-1.170327113136265e-07
-2.397715381996917e-07
-3.616996325327588e-07
-4.800730503878543e-07
-5.980230472565919e-07
-7.051687300990562e-07
-7.912780589468506e-07
-8.815316469623122e-07
-9.378268810105214e-07
-9.65652975417526e-07
-9.430243651758236e-07
-9.050873920177851e-07
-8.675248194821884e-07
-8.111095140634548e-07
-8.061524295938505e-07
-7.846272206372486e-07
-7.897774787892273e-07
-8.061768960668966e-07
-8.084232203958789e-07
-8.224902733515641e-07
-8.063497463918558e-07
-8.233627550119667e-07
-8.118391802871138e-07
-8.094633768129426e-07
-7.409587807837858e-07
-7.078766931022939e-07
-6.263435343077692e-07
-5.40822874210387e-07
-4.716483916106832e-07
-4.296203167980282e-07
-4.261298362596779e-07
-4.165906525884845e-07
-4.557621243150071e-07
-5.068438707817368e-07
-5.772348735252416e-07
-6.402557490899439e-07
-7.053213553050064e-07
-7.289231664116166e-07
-7.499531254484091e-07
-7.62174645877108e-07
-7.696474508178836e-07
-7.556325489736048e-07
-6.986615840716908e-07
-6.412215829804689e-07
-5.866512288793938e-07
-5.294615899868958e-07
-3.644015184133903e-07
-2.262941685592086e-07
-1.316747651627387e-07
-6.178172056292406e-08
3.188518807035179e-09
8.676097029021561e-08
1.322594812436554e-07
2.030269730722119e-07
1.922260569129936e-07
1.950823191980405e-07
9.328937018609012e-08
2.260860958716763e-08
-1.081992832759604e-07
-2.360616276806131e-07
-3.588001260702363e-07
-4.799987133998145e-07
-5.997495188558523e-07
-7.099973398206461e-07
-7.973179173156104e-07
-8.904836053272543e-07
-9.423849218901188e-07
-9.714025644581772e-07
-9.451403627152989e-07
-9.027339252764083e-07
-8.657600254428733e-07
-8.048711204545772e-07
-8.01895912446248e-07
-7.797620947264954e-07
-7.849755590632165e-07
-8.024161382779623e-07
-8.059156953829426e-07
-8.197771270390619e-07
-8.089796142140116e-07
-8.229056500157964e-07
-8.110237912926601e-07
-8.088533238188923e-07
-7.435632146426946e-07
-7.083542377288962e-07
-6.261382559613311e-07
-5.381464903644946e-07
-4.702223854494765e-07
-4.26811641981616e-07
-4.24929795692491e-07
-4.16928604801688e-07
-4.574515237116669e-07
-5.084071284972473e-07
-5.796989370592933e-07
-6.428655006860928e-07
-7.060560611212679e-07
-7.32178289382054e-07
-7.510996179926696e-07
-7.644804687769899e-07
-7.692807432746011e-07
-7.587327787445925e-07
-7.053181573154996e-07
-6.538671778927826e-07
-5.95253016200625e-07
-5.296423244924728e-07
-3.615073841356246e-07
-2.495940389130851e-07
-1.457899949495504e-07
-6.320899667988185e-08
5.744434896682195e-11
8.897665884083341e-08
1.36766654209744e-07
2.145541100501176e-07
2.030030357147709e-07
2.081189237393505e-07
1.054928133165883e-07
2.993556700374005e-08
-9.787038053237473e-08
-2.317062473465808e-07
-3.551575666991297e-07
-4.79731077323941e-07
-6.017279076990031e-07
-7.158066909536143e-07
-8.043927859377842e-07
-9.009362415205468e-07
-9.489620688515493e-07
-9.786907769631176e-07
-9.48298649548249e-07
-9.000641067240213e-07
-8.635456590200808e-07
-7.972581188329837e-07
-7.963580790548202e-07
-7.740563040941744e-07
-7.788089941974816e-07
-7.982511236853372e-07
-8.028176980805149e-07
-8.171376208838366e-07
-8.113289418207935e-07
-8.232233120871713e-07
-8.104657159715852e-07
-8.092882671604156e-07
-7.465970081634512e-07
-7.096312776385483e-07
-6.261734481044077e-07
-5.346789528884779e-07
-4.678578923938503e-07
-4.223069723531899e-07
-4.225556969348691e-07
-4.166324994283406e-07
-4.585122055421892e-07
-5.099444070554282e-07
-5.828238798397621e-07
-6.462569776081337e-07
-7.081813849879039e-07
-7.36288634804089e-07
-7.529981429986092e-07
-7.674598775721261e-07
-7.695764688850277e-07
-7.622981378433329e-07
-7.119213389211686e-07
-6.660234421250588e-07
-6.039148472533929e-07
-5.320306194989245e-07
-3.617498444551582e-07
-2.728642889570126e-07
-1.606248147029012e-07
-6.544451442021034e-08
-3.872364061404357e-09
9.169363408684688e-08
1.418427998636765e-07
2.278903051800262e-07
2.153155058453613e-07
2.235898626451862e-07
1.193477825401349e-07
3.858742462885362e-08
-8.622742987283838e-08
-2.268468641941812e-07
-3.509970133933537e-07
-4.792717182251912e-07
-6.039974089257848e-07
-7.226031556964911e-07
-8.123986327754643e-07
-9.128889617803533e-07
-9.575062970158603e-07
-9.876005194304828e-07
-9.525886609723308e-07
-8.969933614338186e-07
-8.608404311243073e-07
-7.881082505702822e-07
-7.894520863718503e-07
-7.674968020290987e-07
-7.712456993153068e-07
-7.937297348873793e-07
-7.992421156667469e-07
-8.145796006405027e-07
-8.134897541642686e-07
-8.245148274117696e-07
-8.10425895273108e-07
-8.111062114526171e-07
-7.503425495624241e-07
-7.119008664581145e-07
-6.266420848460477e-07
-5.303805753503466e-07
-4.645169971440217e-07
-4.16075451048763e-07
-4.189096268386566e-07
-4.155251437315797e-07
-4.587928491046362e-07
-5.113866655022987e-07
-5.865621271103859e-07
-6.505655672820034e-07
-7.118376975634202e-07
-7.413629216512245e-07
-7.55726036581684e-07
-7.711771305370824e-07
-7.706395675726446e-07
-7.663416275673078e-07
-7.18264943723275e-07
-6.772068800859028e-07
-6.120863850977029e-07
-5.365241856654699e-07
-3.64719382779323e-07
-2.958064339952162e-07
-1.761669388653181e-07
-6.834728272696427e-08
-8.544017662081929e-09
9.473965678968548e-08
1.474586805272116e-07
2.430591641029962e-07
2.290948043418788e-07
2.414476237101982e-07
1.348142996980059e-07
4.843676812988928e-08
-7.337139851332607e-08
-2.215546430866481e-07
-3.464659883523063e-07
-4.785499833317808e-07
-6.065397425410319e-07
-7.303661095510854e-07
-8.212689227204132e-07
-9.263207416733431e-07
-9.681850848136427e-07
-9.983626680453734e-07
-9.582470328244897e-07
-8.935923176348683e-07
-8.578007615886754e-07
-7.774901477530876e-07
-7.812253412041249e-07
-7.601676822074871e-07
-7.62268635817092e-07
-7.888436002347911e-07
-7.95270432733932e-07
-8.121012538834558e-07
-8.154526058248197e-07
-8.267258889095838e-07
-8.109076313091833e-07
-8.143168663010065e-07
-7.547630995216099e-07
-7.151852362299451e-07
-6.275085022978645e-07
-5.251871036931529e-07
-4.600736522471919e-07
-4.079693038107192e-07
-4.137498806322293e-07
-4.133351593085433e-07
-4.580264929402791e-07
-5.124776370468263e-07
-5.906981324111858e-07
-6.557601265088669e-07
-7.171661749936321e-07
-7.476991514294245e-07
-7.595250801751674e-07
-7.758946630122338e-07
-7.72747805772099e-07
-7.710455598679302e-07
-7.243311563814608e-07
-6.872800460369033e-07
-6.19554387962382e-07
-5.429758597821353e-07
-3.70163345727325e-07
-3.182024368862149e-07
-1.922752187214751e-07
-7.15737120167488e-08
-1.384862897460512e-08
9.815185085972512e-08
1.537162193647352e-07
2.601672364362185e-07
2.4434960991381e-07
2.615016379558707e-07
1.51697849919048e-07
5.914573367493711e-08
-5.948356761316569e-08
-2.160066084427122e-07
-3.418339318469476e-07
-4.776333548165471e-07
-6.094141605895132e-07
-7.390995714354365e-07
-8.309149585236813e-07
-9.412091590038792e-07
-9.808053457361231e-07
-1.010956036237344e-06
-9.652462480748527e-07
-8.897175856505893e-07
-8.543596814230472e-07
-7.652942656621037e-07
-7.716743932695384e-07
-7.521418781471883e-07
-7.519484698884356e-07
-7.83633996594917e-07
-7.910384670462389e-07
-8.096224475902485e-07
-8.173839883680243e-07
-8.299607046629365e-07
-8.120591142948209e-07
-8.190530030383869e-07
-7.601044714816388e-07
-7.19604934017044e-07
-6.288862574200727e-07
-5.190510882135693e-07
-4.545705599442074e-07
-3.98117284258505e-07
-4.071311175070758e-07
-4.100621025897029e-07
-4.562077524414118e-07
-5.131296335663552e-07
-5.951248880107554e-07
-6.618429423668148e-07
-7.240727223990073e-07
-7.552947482477571e-07
-7.643315441858647e-07
-7.816329500493214e-07
-7.759288753823971e-07
-7.764563202312775e-07
-7.301330864091378e-07
-6.962405292505069e-07
-6.260868995330026e-07
-5.510001328387551e-07
-3.773656320774696e-07
-3.400664947349809e-07
-2.088381825033441e-07
-7.477185755302115e-08
-1.964137133466743e-08
1.017624334733404e-07
1.605920602799362e-07
2.792836494076924e-07
2.610886806068462e-07
2.83737104820176e-07
1.699942687842328e-07
7.050946060347753e-08
-4.465319652467409e-08
-2.103313974404461e-07
-3.372836610849619e-07
-4.765323393148859e-07
-6.126603612643628e-07
-7.488416032024981e-07
-8.413081276433489e-07
-9.575861734363398e-07
-9.954904402263699e-07
-1.025551332103216e-06
-9.73760604743297e-07
-8.853930911397244e-07
-8.506595737244314e-07
-7.516292581303363e-07
-7.609087542795971e-07
-7.435823680811811e-07
-7.403448968721963e-07
-7.781692741228874e-07
-7.866862084527986e-07
-8.071001079468968e-07
-8.193042162964484e-07
-8.341659734696347e-07
-8.137819777792255e-07
-8.251577383202508e-07
-7.662896797526476e-07
-7.251133617069656e-07
-6.307061754920404e-07
-5.118812682141525e-07
-4.479523212646706e-07
-3.864953560830492e-07
-3.989515872271677e-07
-4.056259902985635e-07
-4.532029294719291e-07
-5.13068209267734e-07
-5.995425511686267e-07
-6.686324723112864e-07
-7.324868940611966e-07
-7.642569098246182e-07
-7.702027730874924e-07
-7.885505674687231e-07
-7.803901968818644e-07
-7.828092679721262e-07
-7.358822463979758e-07
-7.042829655226443e-07
-6.316604833346666e-07
-5.60319028604662e-07
-3.860095668278164e-07
-3.614267797682144e-07
-2.257744058466083e-07
-7.761269767606645e-08
-2.585226341838608e-08