/*--------------------------------*- C++ -*----------------------------------*\
| =========                 |                                                 |
| \\      /  F ield         | OpenFOAM: The Open Source CFD Toolbox           |
|  \\    /   O peration     | Version:  v1812                                 |
|   \\  /    A nd           | Web:      www.OpenFOAM.com                      |
|    \\/     M anipulation  |                                                 |
\*---------------------------------------------------------------------------*/
FoamFile
{
    version     2.0;
    format      ascii;
    class       surfaceScalarField;
    location    "10000";
    object      phi;
}
// * * * * * * * * * * * * * * * * * * * * * * * * * * * * * * * * * * * * * //

dimensions      [0 3 -1 0 0 0 0];
oriented        oriented;


internalField   nonuniform List<scalar> 
7417
(
-0.0009631544881686575
4.327353551823405e-09
-0.0009631553067669563
6.629830420499721e-10
-0.0009631551771365148
-1.389422733511782e-10
-0.0009631551849461316
-5.638116836727134e-12
-0.00096315515215072
-3.875828116275013e-11
-0.0009631551001047372
-3.783783111507263e-11
-0.0009631550717003944
-1.049739848298701e-10
-0.0009631550693533246
-4.289630150787879e-11
-0.0009631549907674372
-7.571710810815749e-11
-0.00096315505838531
-1.142807200090395e-10
-0.0009631549771899489
7.791605746033693e-11
-0.0009631550244893168
-5.104610253891615e-11
-0.0009631550411934674
8.354262444869185e-12
-0.000963155062587227
1.34243548928664e-11
-0.0009631550744717136
2.214609906701409e-11
-0.0009631550990018215
2.960499552612833e-11
-0.0009631551189989002
4.282274946137613e-11
-0.0009631551394116707
6.515814399664462e-11
-0.0009631550670516546
7.565819946689348e-11
-0.0009631551468428498
-9.403176883082702e-11
-0.0009631551385548989
1.021248211228423e-10
-0.000963155154663641
-2.39066029303382e-11
-0.0009631552037417065
-9.10392063293917e-12
-0.0009631551704926988
2.482214452183885e-11
-0.0009631552016553436
-8.624505274737779e-12
-0.0009631551555750474
4.467701262943688e-11
-0.0009631552128902675
-1.51546774038029e-11
-0.0009631551558345001
5.637868525131916e-11
-0.0009631552267292038
-1.208079298165281e-11
-0.0009631551623725741
1.563533245856067e-11
-0.0009631553937356547
-3.957893205995021e-12
-0.0009631551736204469
2.763914449347243e-10
-0.0009631552404634221
-1.292936077199641e-10
-0.0009631552461939777
-3.425479647214007e-11
-0.0009631553275143509
1.1521335128231e-11
-0.0009631552711978513
8.195395920967386e-11
-0.0009631552354360717
-2.345386212134797e-11
-0.0009631552578332705
8.486992709104428e-12
-0.0009631552390625435
5.260238360046711e-12
-0.0009631552361021703
2.195183720421031e-11
-0.0009631551366861068
-2.449614882083933e-12
-0.0009631551851670698
-1.463950764884551e-11
-0.0009631551948858564
2.78353556589391e-13
-0.0009631551776618897
1.369352835497288e-12
-0.0009631551801393481
-2.529425745536497e-11
-0.0009631552068298254
9.268466828926976e-12
-0.0009631551562791101
-2.188649694130648e-11
-0.0009631552582443406
-1.309851978262195e-10
-0.0009631552068657141
6.659419527616548e-11
-0.0009631552437065744
-3.169203042974372e-11
-0.0009631552041232331
8.986318330115278e-12
-0.0009631552561084944
-3.795860041525957e-11
-0.0009631552520516639
2.967154723767534e-11
-0.0009631552752115832
8.145908789817582e-12
-0.0009631552634131155
-1.409504377797892e-11
-0.0009631551875264922
-7.004878319087902e-11
-0.000963154966793713
-1.514292252852481e-10
-6.081523178758631e-10
-0.0009926663289581217
4.320707731581767e-09
-0.0009926664564216924
5.591637288874777e-10
-0.0009926663598170541
-2.006660343560123e-10
-0.0009926663347922537
-5.55082127691801e-11
-0.0009926662758025491
-1.183488078779889e-10
-0.0009926661997039824
-1.11426249603997e-10
-0.0009926661418418125
-2.36670564933057e-10
-0.0009926661117427875
-1.014212377788961e-10
-0.0009926660449925536
-1.24881612236195e-10
-0.0009926660876737215
-1.723809540377085e-10
-0.0009926660315980581
1.289078109696548e-10
-0.0009926661068821268
-4.244171350451516e-11
-0.0009926661242984848
3.194088587888501e-11
-0.0009926661749944013
6.430832425857088e-11
-0.0009926662053015788
6.407297436158778e-11
-0.0009926662491808408
7.719633771091804e-11
-0.0009926662829460708
9.007087335894244e-11
-0.0009926663154970258
1.152753927496362e-10
-0.0009926662628588659
1.40728668364613e-10
-0.000992666315629988
-1.994370584811679e-10
-0.0009926662868204521
1.574095044463175e-10
-0.0009926662768412486
-6.883227458963673e-11
-0.0009926662900073208
-4.598844842559694e-11
-0.0009926662360792758
1.477862688806674e-11
-0.0009926662489886389
-3.474254175459382e-11
-0.0009926662044562923
6.732560342683821e-11
-0.0009926662566688723
-2.281763230540804e-11
-0.0009926662200769327
1.100510370156561e-10
-0.0009926662996756735
1.095820972486297e-11
-0.0009926662629050171
6.129181459882841e-11
-0.0009926664779732744
-3.727812698494832e-12
-0.0009926663206477151
4.449505425074944e-10
-0.000992666430182838
-9.604852359842862e-11
-0.0009926664589385004
-2.551188131000966e-11
-0.0009926665452538713
2.613828526390558e-11
-0.0009926665268281767
2.086604966675616e-10
-0.0009926665117949637
-9.045682590156863e-11
-0.0009926665307968051
6.715702852882108e-11
-0.0009926665146695779
2.254980708582442e-12
-0.0009926665097633603
5.017110303247293e-11
-0.0009926664275012496
8.036886158587974e-12
-0.0009926664545475731
1.774704464036465e-11
-0.0009926664624756816
-1.866721132745793e-11
-0.0009926664486212525
1.176188413632564e-11
-0.0009926664502612923
-5.244237270541185e-11
-0.0009926664901791637
2.359361269784877e-11
-0.0009926664648328316
-2.419038209373738e-11
-0.0009926665657345997
-1.750925194427389e-10
-0.0009926665099963051
7.219954009534406e-11
-0.0009926665601510806
-4.411480489656385e-11
-0.0009926665358477534
2.187330201028618e-11
-0.0009926665820375227
-6.171186882307361e-11
-0.0009926665798165551
6.046260589025663e-11
-0.0009926665972156648
1.70149016031752e-11
-0.0009926665966015664
-2.572664640018776e-11
-0.0009926665203648999
-1.71086835805397e-10
-0.0009926663643960872
-2.441393084384126e-10
-4.653663100814499e-10
-0.001021081367942982
4.35757960312511e-09
-0.001021081323997619
4.267023634170047e-10
-0.001021081280216171
-2.755242309273701e-10
-0.001021081219592446
-1.194429152469228e-10
-0.001021081159270119
-1.768927373929718e-10
-0.001021081060380223
-1.90480266078014e-10
-0.001021080991969917
-3.725401364937956e-10
-0.001021080956660156
-1.81775430379383e-10
-0.001021080890520666
-1.949798350214371e-10
-0.001021080947069587
-2.872826116932038e-10
-0.001021080904577474
2.288294738973971e-10
-0.001021080994320898
-5.408418697980079e-11
-0.001021081025440144
4.749857223485858e-11
-0.001021081093612281
1.213202496840445e-10
-0.001021081135622796
1.154563132713322e-10
-0.001021081188119918
1.350610814404124e-10
-0.001021081227460644
1.554164638046228e-10
-0.001021081261247883
1.986105305806276e-10
-0.001021081198236571
2.28839218494941e-10
-0.00102108123674642
-3.022990963605191e-10
-0.001021081194707743
2.020068565561515e-10
-0.00102108117103827
-1.32549651717486e-10
-0.001021081179088999
-9.924399337265876e-11
-0.001021081120687605
1.098494654285405e-11
-0.001021081138150265
-5.755291061546767e-11
-0.001021081098729921
1.177081376164857e-10
-0.001021081161854126
-3.570126511237907e-11
-0.00102108113908973
1.959761057706214e-10
-0.001021081230362121
8.641433867078301e-12
-0.001021081213335138
1.25296513605306e-10
-0.001021081452328901
5.560724312044744e-12
-0.001021081306480504
7.625227975292229e-10
-0.001021081417423901
-1.67450359678618e-10
-0.001021081467352165
-1.044843086528793e-11
-0.001021081556211886
4.496104715103342e-11
-0.001021081553858472
3.145970560657583e-10
-0.001021081539059131
-5.171058654006293e-11
-0.001021081550694077
4.191534277473785e-11
-0.001021081542173791
2.389568605205644e-11
-0.001021081535552693
5.921638353518265e-11
-0.001021081438494028
1.23740163928915e-12
-0.001021081463946436
-3.44066972142701e-11
-0.001021081490327386
6.875640266679976e-12
-0.001021081469448429
4.488211951051003e-12
-0.001021081472474447
-7.295958005665168e-11
-0.001021081520420942
5.39593116054458e-11
-0.001021081489506089
-2.241804199841961e-11
-0.001021081599287276
-2.875636905493461e-10
-0.001021081542488631
1.215812287077667e-10
-0.001021081588941859
-6.14216225274961e-11
-0.001021081562057983
4.540358380353059e-11
-0.001021081595878962
-1.163622607137391e-10
-0.001021081589763687
8.654986759671525e-11
-0.001021081599702903
1.127672000331048e-11
-0.001021081610137253
-1.254887399259059e-11
-0.001021081558509782
-2.084068577188004e-10
-0.001021081452682195
-2.836474725202681e-10
-4.561310689178229e-10
-0.001048718369438344
4.133315948216926e-09
-0.001048718294089302
1.774468233937212e-10
-0.001048718245646239
-3.003333247596863e-10
-0.001048718162793696
-2.25398791394e-10
-0.001048718097436478
-2.640566383838332e-10
-0.001048717998861877
-2.893037416755875e-10
-0.001048717929009644
-5.142406352289314e-10
-0.001048717895275966
-2.450787633795437e-10
-0.001048717844561717
-2.261507573966647e-10
-0.001048717899146217
-3.028987054032187e-10
-0.001048717867336545
2.821525327026313e-10
-0.00104871797341897
-5.504744711763771e-12
-0.001048718005475296
8.834695856991912e-11
-0.001048718083113882
2.012961664767937e-10
-0.001048718127660083
1.725376653399986e-10
-0.001048718180232709
1.911966520823982e-10
-0.001048718215430639
2.024164335978569e-10
-0.001048718244443448
2.361058136627635e-10
-0.001048718183497348
2.839812534093228e-10
-0.001048718215103437
-4.087224577063238e-10
-0.00104871816668641
2.161110695726761e-10
-0.001048718140192232
-1.946430734926914e-10
-0.001048718145233239
-1.449170825797337e-10
-0.001048718089652018
-5.514279700473174e-12
-0.001048718112761709
-7.54026604382321e-11
-0.001048718083403544
1.503700105443808e-10
-0.001048718155125485
-2.370804440884279e-11
-0.001048718145201742
2.699292915569375e-10
-0.001048718247241676
5.512909578676966e-11
-0.00104871823834082
2.050169659863058e-10
-0.001048718466786479
1.734717064498623e-11
-0.001048718347052727
9.034907128671809e-10
-0.001048718476799512
-7.202855836620719e-11
-0.001048718517848661
2.203613889300345e-11
-0.00104871861157099
5.751158773479054e-11
-0.001048718604196365
4.36002117412979e-10
-0.001048718594477378
-1.11054899710353e-10
-0.001048718618942906
1.197493557250246e-10
-0.001048718606779546
2.431693389767624e-11
-0.001048718604683487
9.231422271800235e-11
-0.001048718527466515
1.511529698258939e-11
-0.001048718545294578
5.479616343928181e-12
-0.001048718557259472
-4.909793284461121e-12
-0.001048718540503608
1.188403101542464e-11
-0.00104871853797754
-1.034216934969828e-10
-0.001048718582597422
6.7225742633038e-11
-0.001048718556237857
-2.501633050660509e-11
-0.001048718659465152
-3.006729962860272e-10
-0.001048718597099652
9.63239405064341e-11
-0.001048718642592108
-7.675969655507033e-11
-0.00104871861103505
4.7431603430259e-11
-0.001048718633317052
-1.586710604857851e-10
-0.001048718618948818
1.052867806708119e-10
-0.00104871862625091
1.373434194670141e-11
-0.001048718640513462
-7.854379014114033e-12
-0.001048718589543977
-2.991834742385239e-10
-0.001048718505165876
-3.228865436070923e-10
-2.273358785271619e-10
-0.001077042622037338
4.092020642987233e-09
-0.001077042536406847
4.998614990131525e-11
-0.00107704250541116
-3.783854680734724e-10
-0.001077042419170117
-3.066042889383369e-10
-0.001077042361108148
-3.181695616083869e-10
-0.001077042256421734
-3.694428154973574e-10
-0.001077042186874394
-6.501138187515384e-10
-0.00107704216076351
-3.239288287366944e-10
-0.001077042109761169
-2.834864141847607e-10
-0.001077042181514825
-3.860016402149356e-10
-0.001077042154062722
3.726945585854706e-10
-0.001077042259512844
-8.608822060182807e-12
-0.001077042303739829
1.078641669495208e-10
-0.001077042383121259
2.667214006199751e-10
-0.001077042431309023
2.294116428540945e-10
-0.001077042483734765
2.489432140518085e-10
-0.001077042519900555
2.704712331248569e-10
-0.001077042547045855
3.169805644108126e-10
-0.001077042477251694
3.792536320831456e-10
-0.001077042503861038
-4.904314803589428e-10
-0.001077042455083881
2.290318291731772e-10
-0.001077042427753501
-2.677938569005569e-10
-0.001077042441595262
-1.981603688357903e-10
-0.001077042392786102
-1.764846252693875e-12
-0.00107704242449948
-8.575365567096109e-11
-0.001077042400965335
2.198267407603029e-10
-0.001077042480388638
-2.779990006118589e-11
-0.001077042477382189
3.778835103257078e-10
-0.001077042582399311
5.160937510709233e-11
-0.00107704258105995
2.953767034388633e-10
-0.001077042823446151
8.874662530061531e-12
-0.001077042709090607
1.207258075328222e-09
-0.001077042821729395
-1.083540745459434e-10
-0.001077042874319895
4.832486941211302e-11
-0.001077042966956615
7.142880500222225e-11
-0.001077042969652981
5.243863240891571e-10
-0.001077042953704185
-3.865777298161021e-11
-0.00107704297011155
8.030066265394798e-11
-0.001077042966254548
5.603716259232112e-11
-0.001077042963107116
9.754031757225339e-11
-0.001077042868397719
1.539728783022886e-11
-0.001077042884659135
-6.504868604812877e-11
-0.001077042911547313
2.237425281271271e-11
-0.001077042888921561
-3.938130288907325e-13
-0.001077042889615454
-1.244463207792835e-10
-0.001077042936325803
9.284283909935404e-11
-0.001077042900097164
-1.863118738699397e-11
-0.001077043003748469
-4.017086254119866e-10
-0.001077042945355624
1.243116976900811e-10
-0.001077042979632498
-1.06057938753906e-10
-0.001077042940036088
6.353048523937698e-11
-0.001077042951133401
-2.402199408564629e-10
-0.001077042930658811
1.162435593753213e-10
-0.001077042925865286
-9.658693431908809e-12
-0.001077042938577745
1.257248943827611e-11
-0.001077042900642354
-3.165342678869993e-10
-0.001077042812975696
-3.372071844676301e-10
-3.040259960963798e-10
-0.001109480199083813
3.79993616757452e-09
-0.001109480130410723
-1.412215922826881e-10
-0.001109480077967605
-4.204201388050361e-10
-0.001109479986090514
-4.175215381141176e-10
-0.001109479925029094
-4.041591655561711e-10
-0.00110947983048769
-4.661870267513962e-10
-0.001109479762821079
-7.907664811056106e-10
-0.001109479740371807
-3.776156886168625e-10
-0.001109479701029508
-3.008491221810703e-10
-0.001109479768270055
-3.611485269351862e-10
-0.001109479745596998
4.167052196227454e-10
-0.001109479857423427
5.502426739802364e-11
-0.001109479897961477
1.59785422108567e-10
-0.00110947997762259
3.507527340828512e-10
-0.001109480025139517
2.909154625704862e-10
-0.001109480074881158
3.019368330193931e-10
-0.001109480106939162
3.126763442273761e-10
-0.001109480130263182
3.389599093792007e-10
-0.001109480070021327
4.383171344957758e-10
-0.001109480099349319
-5.824411382356782e-10
-0.001109480052904247
2.242127159643069e-10
-0.001109480028557574
-3.299187388405017e-10
-0.001109480042140763
-2.388851645248118e-10
-0.001109479998445154
-9.374036933955173e-12
-0.001109480032429473
-9.721174617078654e-11
-0.001109480017100012
2.632685170938273e-10
-0.001109480098790484
-7.714693045391517e-12
-0.001109480102690513
4.611780263083027e-10
-0.001109480212563942
1.048888291793775e-10
-0.001109480211252972
3.90504347435239e-10
-0.001109480435336911
4.832941477777023e-12
-0.001109480341038789
1.320217760894397e-09
-0.001109480468473597
1.954214032610752e-11
-0.00110948050679241
9.053823122650681e-11
-0.001109480602693536
7.056368571659183e-11
-0.001109480595377968
6.329462876679251e-10
-0.00110948058444934
-9.609782743588133e-11
-0.001109480614443752
1.79038528783193e-10
-0.001109480602416216
5.837511236772648e-11
-0.001109480602732823
1.3553371489309e-10
-0.001109480530597811
3.448894498935941e-11
-0.001109480542210308
-1.691211999769321e-11
-0.001109480548932539
1.182168127827546e-11
-0.001109480532881592
7.006068050212857e-12
-0.001109480528961465
-1.545356576214964e-10
-0.00110948056700009
9.27371697692609e-11
-0.001109480538330003
-2.055416405629713e-11
-0.001109480632039584
-3.999559239449528e-10
-0.00110948056824807
7.467836984688101e-11
-0.001109480599810055
-1.331648312666123e-10
-0.001109480555174482
4.899238204938177e-11
-0.001109480559321972
-2.955068484083423e-10
-0.001109480530332673
1.220064630411896e-10
-0.001109480525983447
-1.529884625560735e-11
-0.001109480539280618
1.63129200198833e-11
-0.001109480494639744
-4.201702733623651e-10
-0.001109480413941991
-3.880294871462106e-10
-1.457590833039305e-10
-0.001152996935813006
3.776960771607882e-09
-0.001152996847891894
-2.404702560281374e-10
-0.001152996818289407
-5.049100521122868e-10
-0.001152996733473428
-4.858305128801263e-10
-0.001152996677231923
-4.553097525239377e-10
-0.001152996577925231
-5.382366196429803e-10
-0.001152996509866388
-9.216479052469145e-10
-0.001152996494642346
-4.529768542822013e-10
-0.001152996448547509
-3.565707870557108e-10
-0.001152996532763745
-4.231203373608142e-10
-0.001152996507456224
4.939193736908102e-10
-0.00115299661419515
4.716382910543314e-11
-0.001152996667185472
1.764594361458422e-10
-0.001152996744758675
4.11000641262732e-10
-0.001152996797011696
3.50804494708224e-10
-0.001152996848178198
3.588027416696851e-10
-0.001152996885390897
3.880399329743434e-10
-0.001152996910233212
4.210904144214815e-10
-0.00115299684160494
5.458906908277928e-10
-0.00115299686884051
-6.383227820697015e-10
-0.001152996826826229
2.193521711263215e-10
-0.001152996803508899
-4.030722766666365e-10
-0.001152996826446982
-2.938766557254779e-10
-0.001152996788421169
-1.438346671828299e-13
-0.001152996827748837
-1.06747442154678e-10
-0.001152996813939878
3.4172211128666e-10
-0.001152996899322609
-1.7461746261438e-11
-0.001152996905253694
5.748170072792721e-10
-0.001152997016125956
8.851583710522742e-11
-0.001152997018052118
4.965603576008504e-10
-0.001152997259504996
-2.146955529051639e-11
-0.001152997165473263
1.622196316343566e-09
-0.001152997271567205
-2.377727407345954e-12
-0.001152997322674644
1.278178069817068e-10
-0.001152997417221861
7.913968037372668e-11
-0.001152997421299282
7.073985240843512e-10
-0.001152997397186823
1.377657764623331e-11
-0.001152997412387829
1.172041238518003e-10
-0.0011529974081594
9.833615000754163e-11
-0.001152997404341988
1.303129443899041e-10
-0.00115299730754103
3.62436285510843e-11
-0.001152997318388752
-1.082984287412697e-10
-0.001152997343451657
4.182758849730315e-11
-0.001152997322431423
-7.176263469577557e-12
-0.001152997324847658
-1.701275498649042e-10
-0.001152997367617472
1.082687395569294e-10
-0.001152997327703407
-7.328715920079358e-12
-0.001152997421481348
-5.037151030225785e-10
-0.00115299736382508
9.084532428119994e-11
-0.001152997384900016
-1.739843235443752e-10
-0.001152997332623886
5.956427886478936e-11
-0.001152997331488385
-3.913580502445753e-10
-0.001152997297898746
1.176898986675526e-10
-0.001152997278698476
-5.589192252352795e-11
-0.001152997284780163
3.497791547121454e-11
-0.001152997249343204
-4.279450158779805e-10
-0.001152997156367516
-3.982870358250554e-10
-3.239601821893744e-10
-0.0012199612657791
3.439173020434556e-09
-0.001219961203795569
-3.889613776181727e-10
-0.001219961150509861
-5.600890083172613e-10
-0.001219961058115642
-5.893110626456152e-10
-0.001219960994515014
-5.483751186780865e-10
-0.001219960901842366
-6.3443693639733e-10
-0.001219960834817933
-1.062365464145634e-09
-0.001219960820309578
-4.995772251617604e-10
-0.001219960781150997
-3.700967955384219e-10
-0.001219960859947035
-3.675854656336583e-10
-0.001219960834568748
5.279485413845165e-10
-0.001219960949169986
1.198940490347551e-10
-0.001219960998415352
2.390806219370985e-10
-0.001219961077414792
4.95622280908882e-10
-0.001219961130785824
4.203665877019737e-10
-0.001219961182144243
4.130286877501626e-10
-0.001219961217876933
4.323076576169001e-10
-0.001219961240587008
4.349363780444023e-10
-0.00121996118315315
6.147307119620835e-10
-0.001219961217672767
-7.177917233042294e-10
-0.001219961177385369
2.010579198616864e-10
-0.00121996115636347
-4.679522421240059e-10
-0.001219961177519173
-3.361345054463027e-10
-0.001219961141302121
-4.674278776023779e-12
-0.001219961180255976
-1.228159263633793e-10
-0.001219961172834465
3.910500329698775e-10
-0.00121996125980636
2.155906336412362e-12
-0.001219961270377054
6.628425636573768e-10
-0.001219961388224766
1.454032123992067e-10
-0.001219961387751849
6.02129791871706e-10
-0.001219961616049612
-4.171795182917717e-11
-0.001219961535471992
1.72373622863472e-09
-0.001219961663273845
1.439642804368958e-10
-0.001219961699261837
1.817976237697056e-10
-0.001219961797380988
6.579515818923078e-11
-0.001219961783269423
8.036067068653837e-10
-0.0012199617644848
-3.910375196021111e-11
-0.001219961794184274
2.231714446379946e-10
-0.001219961776670316
1.018051030630865e-10
-0.001219961775777231
1.683200253307252e-10
-0.001219961701540506
5.818951612560812e-11
-0.001219961711551935
-5.382930745725878e-11
-0.001219961712778969
3.784726646808591e-11
-0.001219961700628101
2.826862317710824e-12
-0.001219961698952595
-1.945254848495753e-10
-0.001219961730943021
9.595677639268265e-11
-0.001219961700130571
-4.930449084004298e-12
-0.001219961786870754
-4.964930259599002e-10
-0.001219961720753073
2.408977640224515e-11
-0.001219961741883696
-2.095896763511481e-10
-0.001219961685077347
3.111822520976716e-11
-0.001219961683663905
-4.487667648067486e-10
-0.001219961645157799
1.172694365352718e-10
-0.001219961633995982
-6.686667298917105e-11
-0.001219961639591055
2.71184501941143e-11
-0.001219961595062346
-5.484210211800143e-10
-0.001219961516379887
-4.516149103162999e-10
-2.100103462125603e-10
-0.001329374195055782
3.41304900817609e-09
-0.001329374090045067
-4.722992336675327e-10
-0.001329374073186039
-6.349401008770806e-10
-0.00132937398423069
-6.526499907023582e-10
-0.001329373917168069
-6.077346888043026e-10
-0.001329373814389667
-7.136531341432742e-10
-0.001329373744206402
-1.186236315509369e-09
-0.001329373735519679
-5.705282015001271e-10
-0.001329373683853552
-4.366614823651518e-10
-0.001329373782870582
-3.996309687384243e-10
-0.001329373747035691
5.770547361689859e-10
-0.001329373864327537
1.107734147900448e-10
-0.00132937393067105
2.60942015825128e-10
-0.001329374011671161
5.530586858437622e-10
-0.0013293740733036
4.887717087405319e-10
-0.001329374131066771
4.767940871102845e-10
-0.001329374176478332
5.198925081877016e-10
-0.001329374203583623
5.301407585664132e-10
-0.001329374130239073
7.22886469809748e-10
-0.001329374163014609
-7.428606804203401e-10
-0.001329374126247912
1.773809204722648e-10
-0.001329374106705261
-5.427633411039039e-10
-0.001329374138217485
-3.88553180447329e-10
-0.001329374104943299
-2.89479734869398e-12
-0.001329374150636544
-1.299731746619029e-10
-0.001329374142347198
4.700962915035205e-10
-0.001329374237070919
-2.046447111295839e-12
-0.001329374248068818
7.743563175551191e-10
-0.001329374374400311
1.389900175621657e-10
-0.001329374377068395
7.153288338792449e-10
-0.001329374637980564
-5.343612145541866e-11
-0.001329374547895732
1.986457770531432e-09
-0.001329374662359034
1.576225579192639e-10
-0.001329374714841356
2.313355596243696e-10
-0.001329374814280931
8.715102872915123e-11
-0.001329374806303943
8.510327688602122e-10
-0.001329374764696172
8.923444290331171e-11
-0.001329374774706756
1.144496477902466e-10
-0.001329374764755961
1.393069891089347e-10
-0.001329374756326378
1.44165948580279e-10
-0.001329374648908694
5.304529381029425e-11
-0.001329374660174816
-1.485302561398866e-10
-0.001329374679691394
6.520097853133779e-11
-0.001329374663651871
-1.004371611261468e-11
-0.00132937467108129
-2.021068590731328e-10
-0.001329374712788035
1.080642930911141e-10
-0.00132937466517909
1.243889394038903e-11
-0.001329374756023565
-5.879330357218121e-10
-0.001329374695760546
2.354903142381276e-11
-0.001329374709919505
-2.545331994809389e-10
-0.001329374644334324
3.003792656180348e-11
-0.001329374644305656
-5.481064685626662e-10
-0.001329374601073538
9.842299867334561e-11
-0.001329374570450687
-1.252890916129467e-10
-0.001329374560893319
3.292166319819724e-11
-0.001329374523184864
-5.359782473622442e-10
-0.001329374430542739
-4.495365994507138e-10
-4.308436578830745e-10
-0.001505922907039848
3.033441556330603e-09
-0.001505922826654361
-6.03924598639299e-10
-0.001505922777380918
-6.937612510595735e-10
-0.001505922668953374
-7.590763481675928e-10
-0.001505922584567235
-7.278068508610093e-10
-0.001505922480907014
-8.233295480612061e-10
-0.001505922408460072
-1.325280786384162e-09
-0.001505922396749739
-6.129680228638346e-10
-0.001505922345092525
-4.564039582709856e-10
-0.00150592244522584
-3.128133130263147e-10
-0.001505922403091789
5.955560617203172e-10
-0.001505922539754583
2.0640898566832e-10
-0.001505922606359873
3.37961053228293e-10
-0.001505922695311955
6.476118758813787e-10
-0.001505922762022496
5.732331655043277e-10
-0.001505922825772357
5.429139126934775e-10
-0.001505922870659424
5.732960263403922e-10
-0.001505922894226917
5.425129031527217e-10
-0.001505922827528658
7.82071237601366e-10
-0.001505922875897851
-8.03395113957075e-10
-0.00150592283819078
1.379132880084475e-10
-0.001505922819791567
-6.176989714441041e-10
-0.001505922850413248
-4.354589442963014e-10
-0.001505922816363021
-2.152121611551016e-11
-0.001505922864663453
-1.505317472877957e-10
-0.001505922863670518
5.182796873467372e-10
-0.001505922968410407
2.642966018095942e-11
-0.001505922985203324
8.645277360134071e-10
-0.001505923131491224
2.165832599991398e-10
-0.00150592313194759
8.286796614476034e-10
-0.001505923403931947
-4.472112233548578e-11
-0.001505923311634738
2.071653215844078e-09
-0.001505923459859639
3.272463105130193e-10
-0.00150592349765654
3.059931199949478e-10
-0.001505923607876918
9.13691427254298e-11
-0.001505923570601902
9.206824980109684e-10
-0.001505923531671166
5.389030354291843e-11
-0.001505923557581868
1.985764153508807e-10
-0.001505923525563133
1.390112799500114e-10
-0.001505923517674979
1.728610140353272e-10
-0.001505923427301154
7.103987953903918e-11
-0.001505923445065469
-9.034749670107975e-11
-0.001505923436998742
6.857760716179749e-11
-0.001505923429313382
3.213879484014539e-12
-0.001505923431857051
-2.154991674577785e-10
-0.001505923462036822
9.206677097359425e-11
-0.001505923419157717
1.334910430496067e-11
-0.001505923513925948
-5.714453491280573e-10
-0.001505923439884781
-5.581933225552454e-11
-0.001505923457373
-2.916701087413771e-10
-0.00150592338555457
-1.246672712600462e-11
-0.001505923391989607
-5.975879332293972e-10
-0.001505923345055703
8.966875222197714e-11
-0.00150592332793855
-1.449187686319965e-10
-0.001505923317280516
6.262515981794496e-12
-0.001505923264661756
-6.643700035306226e-10
-0.001505923188864846
-4.974536448608048e-10
-3.574963920800283e-10
-0.001775179639391281
2.969697873014223e-09
-0.001775179486014886
-7.105643484413165e-10
-0.001775179480674805
-7.472998007806835e-10
-0.001775179360675376
-8.450405470866733e-10
-0.001775179262102886
-8.221286007602286e-10
-0.001775179140401234
-9.294933139709816e-10
-0.001775179058664075
-1.444199097251014e-09
-0.00177517905154798
-6.791667142889394e-10
-0.001775178979620728
-5.4250182551444e-10
-0.001775179108791576
-3.013903113698695e-10
-0.001775179048216733
5.98408113534161e-10
-0.001775179204696006
2.427352223782572e-10
-0.001775179295982438
3.759105353353681e-10
-0.001775179395494579
7.214917512046854e-10
-0.0017751794763169
6.575752007287475e-10
-0.001775179555219781
6.279659927648612e-10
-0.001775179612904269
6.757432529168506e-10
-0.001775179639129951
6.354976281153067e-10
-0.001775179546218161
8.508825332747202e-10
-0.001775179600349064
-7.733298151435005e-10
-0.001775179565681437
9.580808769187547e-11
-0.00177517954978943
-6.906979198046351e-10
-0.001775179593728836
-4.715257358017022e-10
-0.001775179562494872
-4.064168720645428e-11
-0.001775179622646587
-1.388229621478886e-10
-0.001775179622225878
5.854598443817615e-10
-0.001775179745519354
5.84384060724898e-11
-0.001775179765312948
9.629980173614876e-10
-0.001775179937512244
2.636555081478748e-10
-0.001775179945828133
9.422847901534877e-10
-0.001775180279397411
4.255638025808543e-11
-0.001775180159670244
2.24426260046745e-09
-0.001775180309307386
3.983499632277173e-10
-0.001775180366631806
3.773745045584303e-10
-0.001775180485207009
1.525436843051041e-10
-0.001775180443724559
9.120409445832036e-10
-0.001775180368469073
1.812853405429537e-10
-0.001775180369410314
6.127858975117445e-11
-0.001775180338036137
1.510620787653316e-10
-0.001775180313727538
1.262749487332652e-10
-0.001775180179325838
3.630905829782716e-11
-0.001775180205384352
-1.74912660163115e-10
-0.001775180211513964
8.186672502628169e-11
-0.001775180200188089
-6.257709197947269e-12
-0.001775180212647339
-2.149166030279226e-10
-0.001775180255293454
1.03566168425856e-10
-0.001775180184775446
1.118109916688938e-11
-0.001775180293837481
-6.235685283369314e-10
-0.001775180225381231
-7.460933987150883e-11
-0.001775180239459876
-3.28890072657474e-10
-0.001775180156547491
-3.473158036262047e-11
-0.001775180169613645
-6.759957189473e-10
-0.001775180109680139
4.270909070426701e-11
-0.001775180064657317
-2.189952230889075e-10
-0.001775180036719484
-3.315840542598659e-12
-0.001775179988034958
-6.558035906992749e-10
-0.001775179891165603
-5.082435770347816e-10
-5.642905179956976e-10
-0.002154274345705703
2.560815257998715e-09
-0.002154274203780214
-8.537502897815806e-10
-0.002154274156547604
-8.011377504261714e-10
-0.002154274002995776
-9.783501474384517e-10
-0.00215427387154988
-9.9172356726377e-10
-0.002154273743126092
-1.070424009297319e-09
-0.002154273651456132
-1.581487225480102e-09
-0.002154273636464079
-7.196749760855915e-10
-0.002154273556659545
-5.881857774564746e-10
-0.002154273696402025
-1.749876179187543e-10
-0.002154273625136938
5.875063836894951e-10
-0.002154273814780051
3.871066191486512e-10
-0.002154273915992818
4.746333833637582e-10
-0.002154274032352736
8.397214412245575e-10
-0.002154274125321968
7.65701462937842e-10
-0.002154274217647493
7.225940260712279e-10
-0.002154274276177441
7.457323292665649e-10
-0.002154274298448561
6.532884383890687e-10
-0.002154274206440519
8.635337082216898e-10
-0.002154274280946118
-7.891288940302495e-10
-0.002154274244332808
2.768192115426181e-11
-0.002154274228888172
-7.749203548461858e-10
-0.002154274274116619