/*--------------------------------*- C++ -*----------------------------------*\
| =========                 |                                                 |
| \\      /  F ield         | OpenFOAM: The Open Source CFD Toolbox           |
|  \\    /   O peration     | Version:  v1812                                 |
|   \\  /    A nd           | Web:      www.OpenFOAM.com                      |
|    \\/     M anipulation  |                                                 |
\*---------------------------------------------------------------------------*/
FoamFile
{
    version     2.0;
    format      ascii;
    class       volScalarField;
    location    "10000";
    object      nut;
}
// * * * * * * * * * * * * * * * * * * * * * * * * * * * * * * * * * * * * * //

dimensions      [0 2 -1 0 0 0 0];


internalField   nonuniform List<scalar> 
2838
(
0.0004841524068273532
0.0004841524068273539
0.0004841524068273544
0.0004841524068273542
0.0004841524068273544
0.0004841524068273539
0.0004841524068273545
0.0004841524068273539
0.000484152406827354
0.0004841524068273539
0.0004841524068273538
0.0004841524068273539
0.0004841524068273539
0.0004841524068273536
0.000484152406827354
0.0004841524068273531
0.0004841524068273541
0.0004841524068273536
0.000484152406827354
0.0004841524068273532
0.0004841524068273537
0.0004841524068273535
0.0004841524068273541
0.0004841524068273534
0.0004841524068273532
0.0004841524068273537
0.0004841524068273535
0.0004841524068273536
0.0004841524068273527
0.000484152406827354
0.0004841524068273535
0.000484152406827353
0.0004841524068273538
0.0004841524068273528
0.0004841524068273526
0.0004841524068273531
0.0004841524068273546
0.0004841524068273528
0.0004841524068273525
0.0004841524068273526
0.0004841524068273538
0.0004841524068273527
0.0004841524068273538
0.0004841524068273525
0.0004841524068273537
0.0004841524068273526
0.0004841524068273538
0.0004841524068273537
0.0004841524068273531
0.0004841524068273525
0.0004841524068273541
0.0004841524068273533
0.0004841524068273541
0.0004841524068273524
0.0004841524068273533
0.0004841524068273531
0.0004841524068273533
0.0004841524068273514
0.0004841524068273554
0.0004841524068273522
0.0004841524068273544
0.0004841524068273521
0.0004841524068273545
0.0004841524068273519
0.0004841524068273547
0.000484152406827353
0.0002856592110542787
0.0002856592110542713
0.0002856592110542638
0.0002856592110542618
0.0002856592110542609
0.0002856592110542602
0.0002856592110542596
0.0002856592110542613
0.0002856592110542634
0.0002856592110542644
0.0002856592110542646
0.0002856592110542633
0.0002856592110542636
0.0002856592110542623
0.0002856592110542616
0.0002856592110542625
0.0002856592110542648
0.0002856592110542648
0.0002856592110542636
0.0002856592110542631
0.000285659211054264
0.0002856592110542648
0.0002856592110542661
0.0002856592110542646
0.0002856592110542661
0.0002856592110542634
0.0002856592110542621
0.0002856592110542638
0.0002856592110542646
0.0002856592110542653
0.0002856592110542647
0.0002856592110542651
0.0002856592110542638
0.0002856592110542663
0.0002856592110542646
0.0002856592110542626
0.0002856592110542661
0.0002856592110542656
0.0002856592110542638
0.0002856592110542672
0.0002856592110542658
0.0002856592110542645
0.0002856592110542685
0.0002856592110542666
0.0002856592110542664
0.0002856592110542658
0.0002856592110542679
0.000285659211054267
0.0002856592110542674
0.0002856592110542656
0.0002856592110542655
0.0002856592110542688
0.0002856592110542663
0.0002856592110542618
0.0002856592110542638
0.0002856592110542649
0.0002856592110542648
0.0002856592110542639
0.0002856592110542654
0.0002856592110542677
0.0002856592110542659
0.0002856592110542652
0.0002856592110542633
0.0002856592110542666
0.0002856592110542661
0.0002856592110542653
0.0004794107233653269
0.0004794107233653191
0.0004794107233653022
0.0004794107233652854
0.0004794107233652856
0.0004794107233652927
0.000479410723365289
0.0004794107233652868
0.0004794107233652902
0.0004794107233652905
0.0004794107233652924
0.0004794107233652914
0.0004794107233652957
0.0004794107233652972
0.0004794107233652937
0.0004794107233652915
0.0004794107233652961
0.0004794107233652939
0.0004794107233652956
0.0004794107233652972
0.0004794107233652917
0.0004794107233652971
0.0004794107233652995
0.000479410723365293
0.0004794107233652985
0.0004794107233652978
0.0004794107233652938
0.0004794107233653011
0.0004794107233653005
0.0004794107233652982
0.0004794107233653006
0.0004794107233653
0.0004794107233652995
0.0004794107233653036
0.0004794107233653045
0.0004794107233652971
0.0004794107233653028
0.0004794107233653076
0.000479410723365301
0.0004794107233653072
0.0004794107233653035
0.0004794107233653002
0.0004794107233653055
0.0004794107233653063
0.0004794107233653035
0.000479410723365307
0.0004794107233653062
0.0004794107233653039
0.0004794107233653059
0.0004794107233653035
0.0004794107233653026
0.0004794107233653104
0.000479410723365307
0.0004794107233652965
0.0004794107233652957
0.0004794107233653033
0.0004794107233652989
0.0004794107233653038
0.0004794107233653035
0.0004794107233653067
0.0004794107233652992
0.000479410723365306
0.0004794107233653008
0.0004794107233653076
0.0004794107233653043
0.0004794107233653062
0.000666006114511062
0.000666006114511059
0.0006660061145110428
0.0006660061145110182
0.0006660061145110153
0.0006660061145110241
0.0006660061145110237
0.0006660061145110127
0.0006660061145110279
0.0006660061145110206
0.0006660061145110287
0.0006660061145110155
0.0006660061145110302
0.000666006114511036
0.0006660061145110327
0.0006660061145110209
0.0006660061145110312
0.0006660061145110223
0.0006660061145110327
0.0006660061145110324
0.0006660061145110257
0.0006660061145110351
0.0006660061145110408
0.0006660061145110224
0.0006660061145110352
0.0006660061145110342
0.000666006114511028
0.0006660061145110419
0.0006660061145110347
0.000666006114511032
0.0006660061145110381
0.000666006114511037
0.0006660061145110313
0.0006660061145110456
0.0006660061145110403
0.0006660061145110349
0.0006660061145110441
0.0006660061145110451
0.0006660061145110355
0.0006660061145110517
0.0006660061145110444
0.0006660061145110385
0.0006660061145110475
0.0006660061145110444
0.0006660061145110365
0.0006660061145110477
0.0006660061145110551
0.0006660061145110384
0.0006660061145110471
0.0006660061145110511
0.0006660061145110338
0.0006660061145110533
0.0006660061145110528
0.0006660061145110376
0.000666006114511027
0.0006660061145110406
0.0006660061145110315
0.0006660061145110416
0.0006660061145110404
0.0006660061145110454
0.0006660061145110294
0.0006660061145110429
0.0006660061145110324
0.000666006114511047
0.0006660061145110388
0.0006660061145110577
0.0008740244931312324
0.0008740244931312428
0.0008740244931311955
0.000874024493131171
0.0008740244931311936
0.0008740244931311848
0.0008740244931311822
0.0008740244931311771
0.000874024493131192
0.0008740244931311864
0.0008740244931311848
0.0008740244931311762
0.0008740244931312028
0.0008740244931312036
0.0008740244931312114
0.0008740244931311727
0.0008740244931311886
0.0008740244931311847
0.0008740244931312007
0.0008740244931312131
0.0008740244931311749
0.0008740244931312064
0.0008740244931312006
0.0008740244931311833
0.0008740244931312066
0.000874024493131201
0.0008740244931311859
0.0008740244931312051
0.0008740244931312191
0.0008740244931311857
0.0008740244931312131
0.000874024493131203
0.0008740244931311914
0.0008740244931312206
0.0008740244931312107
0.0008740244931311985
0.0008740244931312207
0.0008740244931312159
0.0008740244931311977
0.0008740244931312175
0.0008740244931312326
0.0008740244931311992
0.0008740244931312132
0.0008740244931312323
0.0008740244931311941
0.0008740244931312257
0.0008740244931312177
0.0008740244931312065
0.000874024493131216
0.000874024493131234
0.000874024493131196
0.0008740244931312262
0.0008740244931312272
0.0008740244931312028
0.000874024493131203
0.0008740244931312064
0.0008740244931311874
0.0008740244931312192
0.0008740244931312003
0.0008740244931312241
0.0008740244931311817
0.0008740244931312071
0.000874024493131192
0.0008740244931312122
0.0008740244931312048
0.0008740244931312441
0.001154716334106935
0.001154716334106928
0.00115471633410691
0.001154716334106835
0.001154716334106862
0.001154716334106895
0.001154716334106893
0.001154716334106856
0.001154716334106873
0.001154716334106901
0.001154716334106881
0.001154716334106828
0.001154716334106893
0.001154716334106887
0.00115471633410691
0.001154716334106842
0.001154716334106862
0.001154716334106851
0.001154716334106874
0.001154716334106916
0.001154716334106834
0.001154716334106869
0.001154716334106913
0.001154716334106838
0.001154716334106869
0.001154716334106896
0.001154716334106845
0.001154716334106876
0.001154716334106922
0.001154716334106849
0.00115471633410688
0.001154716334106926
0.001154716334106848
0.001154716334106888
0.001154716334106927
0.001154716334106859
0.001154716334106888
0.001154716334106934
0.001154716334106859
0.001154716334106916
0.001154716334106901
0.00115471633410688
0.001154716334106912
0.001154716334106904
0.001154716334106872
0.001154716334106926
0.001154716334106898
0.001154716334106878
0.00115471633410692
0.001154716334106897
0.001154716334106874
0.001154716334106912
0.001154716334106945
0.001154716334106866
0.001154716334106882
0.001154716334106913
0.001154716334106831
0.001154716334106882
0.001154716334106875
0.001154716334106889
0.001154716334106859
0.001154716334106877
0.001154716334106853
0.001154716334106882
0.00115471633410688
0.00115471633410694
0.001548231277168164
0.00154823127716822
0.001548231277168068
0.00154823127716802
0.001548231277168124
0.001548231277168022
0.001548231277168052
0.00154823127716808
0.001548231277168082
0.001548231277168131
0.001548231277168094
0.001548231277167974
0.001548231277168093
0.001548231277168072
0.001548231277168027
0.001548231277168098
0.001548231277168049
0.001548231277168001
0.00154823127716808
0.001548231277168051
0.001548231277167997
0.001548231277168082
0.00154823127716805
0.001548231277168
0.001548231277168077
0.001548231277168046
0.001548231277168
0.001548231277168084
0.001548231277168057
0.001548231277168012
0.001548231277168092
0.001548231277168061
0.001548231277168014
0.00154823127716811
0.001548231277168069
0.001548231277168021
0.001548231277168106
0.001548231277168077
0.001548231277168024
0.00154823127716812
0.001548231277168074
0.001548231277168034
0.001548231277168099
0.001548231277168078
0.001548231277168025
0.001548231277168073
0.001548231277168148
0.00154823127716801
0.001548231277168111
0.001548231277168036
0.001548231277168026
0.001548231277168135
0.001548231277168095
0.001548231277168032
0.001548231277168042
0.001548231277168109
0.001548231277167952
0.001548231277168027
0.001548231277168108
0.001548231277167983
0.001548231277168017
0.001548231277168033
0.001548231277167974
0.001548231277168112
0.00154823127716804
0.001548231277168037
0.002016257082653056
0.002016257082652906
0.002016257082653017
0.002016257082652788
0.002016257082652992
0.002016257082652897
0.002016257082652882
0.002016257082652964
0.002016257082653022
0.002016257082653008
0.002016257082652787
0.002016257082652735
0.002016257082652919
0.002016257082652871
0.002016257082652786
0.002016257082652911
0.002016257082652838
0.002016257082652755
0.00201625708265289
0.002016257082652802
0.002016257082652731
0.002016257082652888
0.002016257082652817
0.002016257082652735
0.002016257082652871
0.002016257082652815
0.002016257082652734
0.002016257082652886
0.002016257082652822
0.002016257082652748
0.002016257082652894
0.002016257082652808
0.002016257082652751
0.002016257082652826
0.002016257082652965
0.002016257082652718
0.002016257082652805
0.002016257082652962
0.002016257082652715
0.002016257082652814
0.00201625708265297
0.002016257082652734
0.002016257082652822
0.002016257082652965
0.002016257082652715
0.00201625708265281
0.002016257082652963
0.002016257082652721
0.002016257082652914
0.002016257082652844
0.002016257082652766
0.00201625708265294
0.00201625708265285
0.002016257082652755
0.002016257082652734
0.002016257082652727
0.002016257082652657
0.002016257082652747
0.00201625708265291
0.002016257082652679
0.002016257082652818
0.002016257082652793
0.0020162570826527
0.002016257082652858
0.002016257082652785
0.002016257082652731
0.002471271483883492
0.002471271483883344
0.002471271483883423
0.002471271483883265
0.002471271483883281
0.002471271483883276
0.00247127148388353
0.002471271483883414
0.002471271483883273
0.002471271483883303
0.002471271483883454
0.002471271483883091
0.002471271483883317
0.002471271483883273
0.002471271483883149
0.002471271483883244
0.002471271483883225
0.002471271483883104
0.002471271483883306
0.002471271483883125
0.002471271483883058
0.002471271483883169
0.00247127148388339
0.002471271483883034
0.002471271483883151
0.002471271483883379
0.00247127148388303
0.002471271483883157
0.002471271483883382
0.002471271483883044
0.00247127148388317
0.002471271483883375
0.002471271483883052
0.002471271483883169
0.002471271483883383
0.002471271483883015
0.002471271483883132
0.002471271483883374
0.002471271483883015
0.002471271483883142
0.002471271483883382
0.002471271483883037
0.002471271483883155
0.002471271483883358
0.002471271483883005
0.00247127148388313
0.002471271483883369
0.002471271483883018
0.002471271483883159
0.002471271483883376
0.002471271483883025
0.002471271483883162
0.002471271483883353
0.002471271483882997
0.00247127148388323
0.00247127148388309
0.002471271483882968
0.002471271483883179
0.002471271483883108
0.002471271483883
0.002471271483883092
0.002471271483883306
0.002471271483882948
0.002471271483883074
0.002471271483883302
0.00247127148388297
0.002857597888625804
0.002857597888625775
0.002857597888625887
0.002857597888625745
0.002857597888625741
0.002857597888625721
0.002857597888626046
0.002857597888625884
0.002857597888625702
0.002857597888625678
0.002857597888625626
0.002857597888625532
0.002857597888625859
0.002857597888625777
0.002857597888625614
0.002857597888625682
0.002857597888625755
0.002857597888625529
0.002857597888625665
0.002857597888625931
0.002857597888625476
0.00285759788862579
0.00285759788862571
0.002857597888625548
0.002857597888625809
0.002857597888625705
0.002857597888625544
0.002857597888625818
0.002857597888625695
0.002857597888625549
0.00285759788862586
0.002857597888625558
0.002857597888625546
0.002857597888625619
0.002857597888625887
0.002857597888625411
0.002857597888625714
0.002857597888625654
0.002857597888625488
0.002857597888625763
0.002857597888625664
0.002857597888625505
0.002857597888625779
0.002857597888625659
0.002857597888625476
0.002857597888625742
0.00285759788862564
0.00285759788862547
0.002857597888625634
0.0028575978886259
0.002857597888625416
0.002857597888625763
0.002857597888625505
0.002857597888625425
0.002857597888625722
0.002857597888625529
0.002857597888625361
0.002857597888625641
0.002857597888625506
0.002857597888625385
0.002857597888625669
0.002857597888625569
0.002857597888625398
0.002857597888625666
0.002857597888625566
0.002857597888625405
0.003165018015646736
0.003165018015646439
0.003165018015646357
0.003165018015646495
0.003165018015646773
0.003165018015646325
0.003165018015646653
0.003165018015646425
0.003165018015646255
0.003165018015646381
0.003165018015646616
0.003165018015646129
0.003165018015646373
0.003165018015646759
0.003165018015646201
0.003165018015646506
0.003165018015646404
0.003165018015646197
0.003165018015646527
0.003165018015646411
0.003165018015646203
0.003165018015646539
0.003165018015646396
0.00316501801564621
0.003165018015646569
0.003165018015646385
0.003165018015646197
0.003165018015646351
0.003165018015646603
0.003165018015646137
0.003165018015646221
0.003165018015646228
0.0031650180156462
0.003165018015646507
0.00316501801564653
0.003165018015645988
0.003165018015646384
0.003165018015646276
0.003165018015646083
0.003165018015646239
0.003165018015646566
0.003165018015646026
0.003165018015646231
0.003165018015646554
0.003165018015645958
0.003165018015646157
0.003165018015646513
0.003165018015645955
0.003165018015646154
0.003165018015646529
0.003165018015645964
0.003165018015646143
0.003165018015646487
0.003165018015645936
0.003165018015646136
0.003165018015646474
0.003165018015645902
0.003165018015646095
0.00316501801564645
0.003165018015645896
0.003165018015646095
0.003165018015646453
0.003165018015645892
0.003165018015646087
0.003165018015646441
0.003165018015645895
0.003401907093645884
0.003401907093646261
0.003401907093645612
0.003401907093645833
0.003401907093645855
0.003401907093645944
0.003401907093646076
0.003401907093645449
0.00340190709364541
0.003401907093645889
0.003401907093645545
0.003401907093645512
0.00340190709364596
0.003401907093645828
0.003401907093645602
0.003401907093645764
0.003401907093646088
0.003401907093645449
0.00340190709364569
0.003401907093646111
0.003401907093645468
0.003401907093645704
0.003401907093646125
0.003401907093645495
0.003401907093645774
0.003401907093646073
0.003401907093645474
0.003401907093645599
0.003401907093645635
0.003401907093645602
0.003401907093645528
0.003401907093645955
0.003401907093645712
0.003401907093646217
0.003401907093645592
0.003401907093645353
0.00340190709364555
0.003401907093645893
0.003401907093645277
0.003401907093645734
0.003401907093645638
0.003401907093645411
0.003401907093645505
0.00340190709364584
0.003401907093645167
0.003401907093645603
0.0034019070936455
0.003401907093645243
0.003401907093645632
0.003401907093645508
0.003401907093645273
0.003401907093645663
0.003401907093645519
0.00340190709364526
0.003401907093645639
0.003401907093645496
0.003401907093645235
0.003401907093645609
0.003401907093645472
0.003401907093645213
0.00340190709364559
0.00340190709364545
0.003401907093645191
0.003401907093645567
0.003401907093645424
0.003401907093645186
0.003578627620384797
0.003578627620384662
0.003578627620384409
0.003578627620384833
0.003578627620384632
0.003578627620384851
0.003578627620384258
0.003578627620384342
0.003578627620384278
0.00357862762038452
0.003578627620384931
0.00357862762038423
0.003578627620384733
0.003578627620384597
0.003578627620384345
0.003578627620384801
0.003578627620384633
0.003578627620384342
0.003578627620384777
0.003578627620384616
0.003578627620384331
0.003578627620384767
0.003578627620384614
0.003578627620384379
0.003578627620384855
0.003578627620384698
0.003578627620384425
0.003578627620384449
0.0035786276203848
0.003578627620384254
0.003578627620384159
0.003578627620384781
0.003578627620384601
0.003578627620384776
0.003578627620384304
0.00357862762038427
0.003578627620384639
0.003578627620384012
0.003578627620384014
0.003578627620384263
0.003578627620384682
0.003578627620384598
0.003578627620383938
0.003578627620384031
0.003578627620383969
0.00357862762038416
0.003578627620384561
0.003578627620383776
0.003578627620384046
0.003578627620384506
0.003578627620383806
0.00357862762038409
0.003578627620384544
0.003578627620383786
0.003578627620384049
0.003578627620384524
0.003578627620383777
0.003578627620384037
0.003578627620384506
0.003578627620383752
0.003578627620384007
0.003578627620384469
0.003578627620383712
0.003578627620383966
0.003578627620384422
0.0035786276203837
0.003703932056513771
0.003703932056513598
0.003703932056513331
0.003703932056513815
0.003703932056513603
0.003703932056513385
0.00370393205651378
0.003703932056513566
0.003703932056513327
0.003703932056513854
0.003703932056513711
0.003703932056513422
0.003703932056513664
0.003703932056514139
0.003703932056513341
0.003703932056513676
0.003703932056514164
0.00370393205651334
0.003703932056513635
0.003703932056514103
0.003703932056513285
0.00370393205651388
0.003703932056513625
0.003703932056513476
0.003703932056513757
0.003703932056514206
0.00370393205651349
0.003703932056513587
0.003703932056513536
0.003703932056513612
0.00370393205651339
0.00370393205651365
0.003703932056514114
0.003703932056513416
0.003703932056513619
0.003703932056513622
0.003703932056513356
0.003703932056513294
0.003703932056513696
0.003703932056513023
0.003703932056513177
0.003703932056513658
0.003703932056513602
0.003703932056512961
0.003703932056513242
0.003703932056513144
0.003703932056513268
0.003703932056512809
0.003703932056512973
0.003703932056513497
0.003703932056512681
0.003703932056513294
0.00370393205651308
0.00370393205651274
0.003703932056513223
0.003703932056513069
0.003703932056512754
0.003703932056513236
0.003703932056513055
0.003703932056512721
0.00370393205651319
0.003703932056513001
0.003703932056512665
0.003703932056513137
0.003703932056512939
0.003703932056512633
0.00378514099200975
0.003785140992009594
0.003785140992009307
0.003785140992009871
0.003785140992009659
0.003785140992009387
0.003785140992009658
0.003785140992010203
0.003785140992009378
0.003785140992009751
0.003785140992010346
0.003785140992009532
0.003785140992009885
0.003785140992010438
0.003785140992009638
0.003785140992010356
0.003785140992010046
0.003785140992009671
0.003785140992010217
0.003785140992009858
0.003785140992009566
0.003785140992010173
0.003785140992009995
0.003785140992009743
0.003785140992010324
0.00378514099201015
0.003785140992009807
0.003785140992010336
0.00378514099200981
0.003785140992009646
0.003785140992010076
0.003785140992010226
0.003785140992009662
0.003785140992009593
0.003785140992010176
0.003785140992009859
0.003785140992009499
0.003785140992009925
0.003785140992009653
0.003785140992009326
0.003785140992009835
0.003785140992009508
0.003785140992009398
0.003785140992009386
0.003785140992009391
0.003785140992009409
0.003785140992009356
0.003785140992008824
0.003785140992009318
0.003785140992009052
0.003785140992008777
0.003785140992009019
0.003785140992009516
0.003785140992008579
0.003785140992008888
0.003785140992009404
0.003785140992008596
0.003785140992008906
0.003785140992009431
0.003785140992008495
0.003785140992008811
0.003785140992009336
0.003785140992008439
0.003785140992008764
0.00378514099200929
0.003785140992008386
0.003828672569173637
0.003828672569174264
0.003828672569173438
0.003828672569173858
0.003828672569174487
0.003828672569173667
0.003828672569174409
0.003828672569174294
0.003828672569174027
0.003828672569174668
0.003828672569174448
0.003828672569174268
0.003828672569174951
0.00382867256917447
0.003828672569174491
0.003828672569174797
0.003828672569175045
0.003828672569174069
0.003828672569174869
0.003828672569174267
0.003828672569174164
0.003828672569174538
0.003828672569175174
0.003828672569174264
0.003828672569174991
0.003828672569174677
0.003828672569174304
0.003828672569174399
0.003828672569174283
0.003828672569174334
0.003828672569174389
0.003828672569174486
0.003828672569174414
0.003828672569174147
0.003828672569174345
0.003828672569174762
0.003828672569173788
0.00382867256917389
0.003828672569174043
0.003828672569173736
0.003828672569173793
0.003828672569173741
0.003828672569174085
0.00382867256917394
0.00382867256917406
0.003828672569174105
0.003828672569173174
0.003828672569173014
0.003828672569173317
0.003828672569173892
0.003828672569172928
0.003828672569173284
0.003828672569173285
0.003828672569172901
0.003828672569173434
0.003828672569173224
0.003828672569172861
0.003828672569173085
0.003828672569173579
0.003828672569172602
0.003828672569173289
0.003828672569172866
0.003828672569172657
0.003828672569172927
0.003828672569173478
0.003828672569172502
0.003840483434040171
0.003840483434039975
0.003840483434039874
0.003840483434040649
0.003840483434040309
0.003840483434040274
0.003840483434041093
0.003840483434040966
0.00384048343404076
0.003840483434041466
0.00384048343404132
0.003840483434041096
0.003840483434041803
0.003840483434041492
0.003840483434041344
0.003840483434041957
0.003840483434041443
0.003840483434041034
0.003840483434041321
0.003840483434041659
0.003840483434040743
0.003840483434041531
0.003840483434041306
0.003840483434040998
0.003840483434041663
0.003840483434041168
0.00384048343404076
0.003840483434041007
0.003840483434040796
0.003840483434040848
0.003840483434040883
0.00384048343404094
0.00384048343404076
0.003840483434040836
0.003840483434040554
0.003840483434040648
0.003840483434040435
0.003840483434040058
0.003840483434040027
0.00384048343403997
0.003840483434039948
0.003840483434039819
0.003840483434039942
0.003840483434039943
0.003840483434040007
0.003840483434040296
0.003840483434040007
0.003840483434039002
0.003840483434039787
0.00384048343403958
0.003840483434039262
0.003840483434039139
0.003840483434039321
0.003840483434038951
0.00384048343403956
0.003840483434039285
0.003840483434038906
0.0038404834340395
0.003840483434039252
0.003840483434038825
0.003840483434039412
0.003840483434039084
0.003840483434038721
0.003840483434039333
0.003840483434039098
0.003840483434038726
0.003826464137947749
0.003826464137947847
0.003826464137948846
0.003826464137949287
0.003826464137949764
0.003826464137948993
0.003826464137950009
0.003826464137949904
0.003826464137949723
0.003826464137950476
0.003826464137950316
0.003826464137950046
0.003826464137950313
0.003826464137950314
0.00382646413795031
0.003826464137950128
0.003826464137950025
0.003826464137949803
0.003826464137949927
0.003826464137950305
0.003826464137949379
0.003826464137949247
0.003826464137949352
0.00382646413794932
0.003826464137950094
0.003826464137949475
0.003826464137948989
0.003826464137949323
0.003826464137949835
0.00382646413794891
0.003826464137949053
0.003826464137948972
0.003826464137948646
0.003826464137948838
0.003826464137949201
0.003826464137948942
0.003826464137947952
0.003826464137948197
0.003826464137947922
0.003826464137948544
0.003826464137947965
0.00382646413794763
0.003826464137947572
0.003826464137947543
0.003826464137947629
0.003826464137948001
0.00382646413794787
0.003826464137946837
0.003826464137947279
0.003826464137947279
0.003826464137947325
0.003826464137946956
0.003826464137946876
0.003826464137946675
0.003826464137946981
0.003826464137947613
0.003826464137946527
0.003826464137946901
0.003826464137947556
0.003826464137946458
0.003826464137946808
0.003826464137947438
0.003826464137946342
0.003826464137946721
0.003826464137947378
0.003826464137946412
0.003792866743695924
0.003792866743697141
0.003792866743698179
0.003792866743698756
0.003792866743698584
0.003792866743698686
0.003792866743699255
0.003792866743699155
0.003792866743698952
0.00379286674369926
0.003792866743699833
0.003792866743699626
0.003792866743698547
0.003792866743698921
0.003792866743699469
0.003792866743699152
0.003792866743698027
0.003792866743698246
0.003792866743697879
0.003792866743698487
0.00379286674369778
0.003792866743697968
0.003792866743696823
0.003792866743697566
0.003792866743697163
0.003792866743697475
0.003792866743696427
0.003792866743696503
0.003792866743696863
0.003792866743696557
0.003792866743696742
0.003792866743696339
0.003792866743696398
0.003792866743697068
0.003792866743696142
0.003792866743695721
0.003792866743695558
0.003792866743696106
0.003792866743695869
0.00379286674369628
0.003792866743695533
0.003792866743696079
0.003792866743694683
0.003792866743694561
0.003792866743694805
0.003792866743694615
0.003792866743694535
0.003792866743694421
0.003792866743695092
0.00379286674369463
0.003792866743694328
0.003792866743694188
0.003792866743694394
0.003792866743694
0.003792866743694584
0.003792866743694294
0.003792866743693936
0.00379286674369463
0.003792866743694335
0.003792866743693888
0.003792866743694504
0.003792866743694181
0.003792866743693741
0.003792866743694414
0.003792866743694173
0.003792866743693973
0.00374690268603205
0.003746902686034611
0.003746902686036035
0.003746902686036462
0.003746902686036828
0.003746902686036914
0.003746902686036354
0.003746902686036321
0.003746902686036203
0.003746902686035933
0.00374690268603609
0.003746902686036356
0.003746902686034766
0.003746902686034948
0.003746902686035323
0.00374690268603503
0.003746902686033675
0.003746902686033669
0.003746902686033316
0.00374690268603331
0.003746902686033126
0.003746902686033678
0.003746902686031909
0.003746902686031859
0.003746902686032463
0.003746902686031616
0.003746902686031409
0.003746902686032285
0.003746902686031602
0.003746902686031615
0.003746902686031686
0.003746902686031182
0.003746902686031172
0.003746902686030993
0.003746902686030929
0.003746902686030795
0.003746902686030302
0.003746902686030353
0.003746902686030307
0.003746902686031042
0.003746902686030397
0.003746902686030035
0.003746902686029976
0.003746902686029784
0.003746902686029413
0.003746902686029961
0.003746902686029176
0.003746902686029968
0.003746902686029428
0.003746902686029722
0.003746902686028808
0.003746902686029061
0.003746902686029692
0.003746902686028682
0.003746902686028666
0.003746902686028698
0.003746902686028675
0.003746902686029111
0.003746902686029545
0.003746902686028522
0.003746902686029344
0.003746902686028872
0.0037469026860285
0.003746902686028965
0.00374690268602899
0.003746902686029297
0.003698055293373124
0.003698055293376113
0.003698055293376142
0.003698055293376255
0.003698055293374631
0.003698055293374912
0.003698055293373465
0.00369805529337185
0.00369805529337248
0.003698055293371569
0.003698055293372153
0.00369805529337126
0.00369805529336948
0.003698055293369263
0.003698055293368846
0.003698055293368803
0.003698055293368182
0.003698055293367938
0.003698055293368078
0.003698055293366883
0.003698055293366904
0.003698055293366316
0.003698055293365825
0.003698055293365497
0.003698055293365997
0.00369805529336605
0.003698055293365224
0.003698055293365303
0.003698055293365291
0.003698055293365155
0.003698055293365687
0.003698055293364989
0.003698055293364497
0.0036980552933644
0.003698055293364266
0.003698055293364298
0.003698055293364106
0.003698055293364047
0.003698055293364533
0.003698055293363867
0.003698055293364132
0.003698055293364709
0.003698055293363808
0.003698055293364286
0.003698055293363053
0.003698055293363713
0.003698055293364229
0.003698055293363656
0.00369805529336326
0.003698055293363101
0.003698055293363187
0.003698055293362917
0.003698055293362782
0.003698055293362951
0.003698055293362703
0.003698055293362545
0.003698055293363148
0.003698055293363122
0.003698055293362969