/*--------------------------------*- C++ -*----------------------------------*\
| =========                 |                                                 |
| \\      /  F ield         | OpenFOAM: The Open Source CFD Toolbox           |
|  \\    /   O peration     | Version:  v1812                                 |
|   \\  /    A nd           | Web:      www.OpenFOAM.com                      |
|    \\/     M anipulation  |                                                 |
\*---------------------------------------------------------------------------*/
FoamFile
{
    version     2.0;
    format      ascii;
    class       volScalarField;
    location    "10000";
    object      nuTilda;
}
// * * * * * * * * * * * * * * * * * * * * * * * * * * * * * * * * * * * * * //

dimensions      [0 2 -1 0 0 0 0];


internalField   nonuniform List<scalar> 
2838
(
0.00048914937306142
0.0004891493730614207
0.0004891493730614212
0.000489149373061421
0.0004891493730614212
0.0004891493730614207
0.0004891493730614213
0.0004891493730614207
0.0004891493730614208
0.0004891493730614207
0.0004891493730614205
0.0004891493730614207
0.0004891493730614207
0.0004891493730614203
0.0004891493730614208
0.0004891493730614199
0.0004891493730614209
0.0004891493730614203
0.0004891493730614208
0.00048914937306142
0.0004891493730614204
0.0004891493730614203
0.0004891493730614209
0.0004891493730614202
0.00048914937306142
0.0004891493730614204
0.0004891493730614203
0.0004891493730614204
0.0004891493730614196
0.0004891493730614208
0.0004891493730614203
0.0004891493730614198
0.0004891493730614205
0.0004891493730614197
0.0004891493730614195
0.0004891493730614199
0.0004891493730614214
0.0004891493730614197
0.0004891493730614194
0.0004891493730614195
0.0004891493730614205
0.0004891493730614196
0.0004891493730614205
0.0004891493730614194
0.0004891493730614204
0.0004891493730614195
0.0004891493730614205
0.0004891493730614204
0.0004891493730614199
0.0004891493730614194
0.0004891493730614209
0.0004891493730614201
0.0004891493730614209
0.0004891493730614192
0.0004891493730614201
0.0004891493730614199
0.0004891493730614201
0.0004891493730614183
0.0004891493730614222
0.000489149373061419
0.0004891493730614212
0.0004891493730614189
0.0004891493730614213
0.0004891493730614187
0.0004891493730614215
0.0004891493730614198
0.0002986175958414024
0.0002986175958413957
0.0002986175958413886
0.000298617595841387
0.000298617595841386
0.0002986175958413852
0.0002986175958413846
0.0002986175958413863
0.0002986175958413883
0.0002986175958413893
0.0002986175958413896
0.0002986175958413882
0.0002986175958413889
0.0002986175958413873
0.0002986175958413864
0.0002986175958413873
0.0002986175958413899
0.0002986175958413899
0.0002986175958413886
0.0002986175958413883
0.000298617595841389
0.0002986175958413901
0.000298617595841391
0.0002986175958413897
0.0002986175958413911
0.0002986175958413885
0.0002986175958413875
0.0002986175958413889
0.0002986175958413896
0.0002986175958413904
0.0002986175958413899
0.0002986175958413903
0.0002986175958413886
0.000298617595841391
0.0002986175958413893
0.0002986175958413872
0.0002986175958413911
0.0002986175958413905
0.0002986175958413883
0.0002986175958413918
0.0002986175958413906
0.0002986175958413895
0.0002986175958413931
0.0002986175958413912
0.0002986175958413911
0.0002986175958413903
0.0002986175958413925
0.0002986175958413918
0.0002986175958413921
0.0002986175958413905
0.0002986175958413904
0.0002986175958413935
0.0002986175958413911
0.0002986175958413868
0.0002986175958413889
0.0002986175958413897
0.0002986175958413896
0.0002986175958413889
0.0002986175958413905
0.0002986175958413925
0.0002986175958413909
0.0002986175958413901
0.000298617595841388
0.0002986175958413912
0.0002986175958413909
0.0002986175958413902
0.0004845024904133793
0.0004845024904133718
0.000484502490413355
0.0004845024904133387
0.0004845024904133389
0.000484502490413346
0.0004845024904133422
0.0004845024904133401
0.0004845024904133433
0.0004845024904133436
0.0004845024904133456
0.0004845024904133445
0.0004845024904133489
0.0004845024904133503
0.0004845024904133467
0.0004845024904133446
0.0004845024904133491
0.0004845024904133469
0.0004845024904133486
0.0004845024904133502
0.0004845024904133446
0.0004845024904133501
0.0004845024904133526
0.0004845024904133459
0.0004845024904133514
0.0004845024904133508
0.000484502490413347
0.000484502490413354
0.0004845024904133534
0.0004845024904133513
0.0004845024904133535
0.0004845024904133529
0.0004845024904133524
0.0004845024904133565
0.0004845024904133575
0.00048450249041335
0.0004845024904133556
0.0004845024904133606
0.0004845024904133539
0.0004845024904133599
0.0004845024904133563
0.0004845024904133531
0.0004845024904133583
0.0004845024904133592
0.0004845024904133564
0.0004845024904133598
0.0004845024904133589
0.0004845024904133568
0.0004845024904133587
0.0004845024904133563
0.0004845024904133555
0.0004845024904133631
0.0004845024904133599
0.0004845024904133495
0.0004845024904133486
0.0004845024904133561
0.0004845024904133518
0.0004845024904133567
0.0004845024904133565
0.0004845024904133594
0.0004845024904133522
0.0004845024904133588
0.0004845024904133537
0.0004845024904133603
0.0004845024904133572
0.0004845024904133591
0.0006686966553397342
0.0006686966553397311
0.0006686966553397152
0.0006686966553396907
0.0006686966553396878
0.0006686966553396966
0.0006686966553396963
0.0006686966553396853
0.0006686966553397003
0.000668696655339693
0.0006686966553397012
0.000668696655339688
0.0006686966553397026
0.0006686966553397085
0.0006686966553397052
0.0006686966553396935
0.0006686966553397037
0.0006686966553396947
0.0006686966553397052
0.0006686966553397049
0.0006686966553396981
0.0006686966553397074
0.0006686966553397131
0.0006686966553396949
0.0006686966553397076
0.0006686966553397066
0.0006686966553397005
0.0006686966553397143
0.000668696655339707
0.0006686966553397045
0.0006686966553397105
0.0006686966553397093
0.0006686966553397038
0.000668696655339718
0.0006686966553397126
0.0006686966553397074
0.0006686966553397165
0.0006686966553397174
0.000668696655339708
0.000668696655339724
0.0006686966553397166
0.0006686966553397109
0.0006686966553397199
0.0006686966553397167
0.0006686966553397089
0.00066869665533972
0.0006686966553397273
0.0006686966553397108
0.0006686966553397194
0.0006686966553397233
0.0006686966553397061
0.0006686966553397256
0.0006686966553397252
0.00066869665533971
0.0006686966553396995
0.000668696655339713
0.000668696655339704
0.000668696655339714
0.0006686966553397128
0.0006686966553397178
0.0006686966553397019
0.0006686966553397153
0.0006686966553397048
0.0006686966553397193
0.0006686966553397112
0.0006686966553397298
0.000875597241604665
0.0008755972416046755
0.0008755972416046281
0.0008755972416046038
0.0008755972416046264
0.0008755972416046175
0.0008755972416046151
0.00087559724160461
0.0008755972416046246
0.0008755972416046192
0.0008755972416046176
0.0008755972416046091
0.0008755972416046355
0.0008755972416046362
0.0008755972416046442
0.0008755972416046056
0.0008755972416046214
0.0008755972416046175
0.0008755972416046334
0.0008755972416046459
0.0008755972416046077
0.0008755972416046392
0.0008755972416046333
0.0008755972416046162
0.0008755972416046394
0.0008755972416046336
0.0008755972416046188
0.0008755972416046378
0.0008755972416046517
0.0008755972416046185
0.0008755972416046458
0.0008755972416046357
0.0008755972416046242
0.0008755972416046534
0.0008755972416046433
0.0008755972416046313
0.0008755972416046535
0.0008755972416046486
0.0008755972416046305
0.0008755972416046502
0.0008755972416046654
0.0008755972416046319
0.0008755972416046459
0.0008755972416046651
0.0008755972416046268
0.0008755972416046584
0.0008755972416046503
0.0008755972416046393
0.0008755972416046487
0.0008755972416046667
0.0008755972416046287
0.0008755972416046589
0.0008755972416046599
0.0008755972416046356
0.0008755972416046357
0.000875597241604639
0.0008755972416046202
0.0008755972416046519
0.000875597241604633
0.0008755972416046568
0.0008755972416046144
0.0008755972416046398
0.0008755972416046247
0.0008755972416046449
0.0008755972416046374
0.0008755972416046767
0.001155620147593996
0.00115562014759399
0.001155620147593972
0.001155620147593897
0.001155620147593924
0.001155620147593957
0.001155620147593955
0.001155620147593918
0.001155620147593935
0.001155620147593963
0.001155620147593943
0.00115562014759389
0.001155620147593954
0.001155620147593949
0.001155620147593972
0.001155620147593904
0.001155620147593924
0.001155620147593913
0.001155620147593935
0.001155620147593978
0.001155620147593896
0.001155620147593931
0.001155620147593975
0.0011556201475939
0.001155620147593931
0.001155620147593958
0.001155620147593907
0.001155620147593938
0.001155620147593984
0.001155620147593911
0.001155620147593941
0.001155620147593988
0.00115562014759391
0.00115562014759395
0.001155620147593989
0.001155620147593921
0.00115562014759395
0.001155620147593996
0.001155620147593921
0.001155620147593978
0.001155620147593963
0.001155620147593942
0.001155620147593974
0.001155620147593966
0.001155620147593934
0.001155620147593988
0.00115562014759396
0.00115562014759394
0.001155620147593982
0.001155620147593959
0.001155620147593936
0.001155620147593974
0.001155620147594007
0.001155620147593928
0.001155620147593944
0.001155620147593975
0.001155620147593893
0.001155620147593944
0.001155620147593937
0.001155620147593951
0.001155620147593921
0.001155620147593939
0.001155620147593915
0.001155620147593944
0.001155620147593942
0.001155620147594002
0.001548734723931332
0.001548734723931388
0.001548734723931236
0.001548734723931188
0.001548734723931292
0.00154873472393119
0.00154873472393122
0.001548734723931248
0.00154873472393125
0.001548734723931299
0.001548734723931262
0.001548734723931142
0.001548734723931261
0.00154873472393124
0.001548734723931195
0.001548734723931266
0.001548734723931217
0.001548734723931169
0.001548734723931248
0.001548734723931219
0.001548734723931165
0.00154873472393125
0.001548734723931218
0.001548734723931168
0.001548734723931245
0.001548734723931214
0.001548734723931168
0.001548734723931253
0.001548734723931225
0.00154873472393118
0.00154873472393126
0.001548734723931229
0.001548734723931182
0.001548734723931278
0.001548734723931237
0.001548734723931189
0.001548734723931274
0.001548734723931245
0.001548734723931192
0.001548734723931288
0.001548734723931242
0.001548734723931202
0.001548734723931267
0.001548734723931246
0.001548734723931193
0.001548734723931242
0.001548734723931316
0.001548734723931178
0.001548734723931279
0.001548734723931204
0.001548734723931194
0.001548734723931303
0.001548734723931263
0.001548734723931199
0.001548734723931209
0.001548734723931277
0.00154873472393112
0.001548734723931195
0.001548734723931276
0.001548734723931151
0.001548734723931185
0.001548734723931201
0.001548734723931142
0.00154873472393128
0.001548734723931207
0.001548734723931205
0.002016554088571433
0.002016554088571283
0.002016554088571394
0.002016554088571165
0.002016554088571369
0.002016554088571273
0.002016554088571259
0.002016554088571341
0.002016554088571399
0.002016554088571385
0.002016554088571164
0.002016554088571111
0.002016554088571296
0.002016554088571248
0.002016554088571163
0.002016554088571288
0.002016554088571214
0.002016554088571132
0.002016554088571266
0.002016554088571179
0.002016554088571108
0.002016554088571265
0.002016554088571194
0.002016554088571112
0.002016554088571247
0.002016554088571191
0.002016554088571111
0.002016554088571263
0.002016554088571198
0.002016554088571125
0.00201655408857127
0.002016554088571185
0.002016554088571128
0.002016554088571203
0.002016554088571342
0.002016554088571094
0.002016554088571182
0.002016554088571338
0.002016554088571091
0.002016554088571191
0.002016554088571346
0.00201655408857111
0.002016554088571198
0.002016554088571342
0.002016554088571092
0.002016554088571187
0.00201655408857134
0.002016554088571097
0.00201655408857129
0.002016554088571221
0.002016554088571143
0.002016554088571317
0.002016554088571227
0.002016554088571132
0.002016554088571111
0.002016554088571103
0.002016554088571034
0.002016554088571124
0.002016554088571286
0.002016554088571056
0.002016554088571195
0.00201655408857117
0.002016554088571077
0.002016554088571234
0.002016554088571162
0.002016554088571107
0.00247146922804005
0.002471469228039901
0.002471469228039981
0.002471469228039823
0.002471469228039839
0.002471469228039833
0.002471469228040087
0.002471469228039971
0.00247146922803983
0.00247146922803986
0.002471469228040011
0.002471469228039649
0.002471469228039874
0.002471469228039831
0.002471469228039707
0.002471469228039801
0.002471469228039782
0.002471469228039662
0.002471469228039863
0.002471469228039682
0.002471469228039615
0.002471469228039726
0.002471469228039947
0.002471469228039591
0.002471469228039709
0.002471469228039936
0.002471469228039587
0.002471469228039714
0.002471469228039939
0.002471469228039602
0.002471469228039728
0.002471469228039933
0.002471469228039609
0.002471469228039726
0.00247146922803994
0.002471469228039572
0.00247146922803969
0.002471469228039931
0.002471469228039572
0.0024714692280397
0.00247146922803994
0.002471469228039594
0.002471469228039713
0.002471469228039916
0.002471469228039563
0.002471469228039688
0.002471469228039927
0.002471469228039575
0.002471469228039717
0.002471469228039934
0.002471469228039582
0.002471469228039719
0.00247146922803991
0.002471469228039555
0.002471469228039788
0.002471469228039648
0.002471469228039525
0.002471469228039736
0.002471469228039665
0.002471469228039558
0.00247146922803965
0.002471469228039863
0.002471469228039506
0.002471469228039631
0.00247146922803986
0.002471469228039528
0.002857745792366375
0.002857745792366346
0.002857745792366458
0.002857745792366316
0.002857745792366312
0.002857745792366292
0.002857745792366616
0.002857745792366454
0.002857745792366273
0.002857745792366249
0.002857745792366197
0.002857745792366102
0.002857745792366429
0.002857745792366348
0.002857745792366185
0.002857745792366253
0.002857745792366326
0.002857745792366099
0.002857745792366236
0.002857745792366501
0.002857745792366047
0.002857745792366361
0.002857745792366281
0.002857745792366119
0.00285774579236638
0.002857745792366276
0.002857745792366115
0.002857745792366389
0.002857745792366265
0.00285774579236612
0.002857745792366431
0.002857745792366129
0.002857745792366117
0.00285774579236619
0.002857745792366458
0.002857745792365982
0.002857745792366285
0.002857745792366224
0.002857745792366059
0.002857745792366334
0.002857745792366235
0.002857745792366076
0.00285774579236635
0.002857745792366229
0.002857745792366047
0.002857745792366313
0.00285774579236621
0.002857745792366041
0.002857745792366205
0.002857745792366471
0.002857745792365987
0.002857745792366334
0.002857745792366076
0.002857745792365996
0.002857745792366293
0.002857745792366099
0.002857745792365932
0.002857745792366212
0.002857745792366076
0.002857745792365956
0.00285774579236624
0.00285774579236614
0.002857745792365969
0.002857745792366237
0.002857745792366137
0.002857745792365976
0.003165138587744715
0.003165138587744419
0.003165138587744336
0.003165138587744475
0.003165138587744753
0.003165138587744305
0.003165138587744633
0.003165138587744405
0.003165138587744234
0.003165138587744361
0.003165138587744596
0.003165138587744109
0.003165138587744352
0.003165138587744738
0.003165138587744181
0.003165138587744486
0.003165138587744384
0.003165138587744177
0.003165138587744506
0.003165138587744391
0.003165138587744182
0.003165138587744518
0.003165138587744376
0.00316513858774419
0.003165138587744548
0.003165138587744365
0.003165138587744177
0.003165138587744331
0.003165138587744583
0.003165138587744116
0.003165138587744201
0.003165138587744208
0.00316513858774418
0.003165138587744486
0.00316513858774451
0.003165138587743968
0.003165138587744364
0.003165138587744256
0.003165138587744063
0.003165138587744219
0.003165138587744546
0.003165138587744006
0.003165138587744211
0.003165138587744534
0.003165138587743938
0.003165138587744136
0.003165138587744492
0.003165138587743935
0.003165138587744134
0.003165138587744509
0.003165138587743944
0.003165138587744123
0.003165138587744467
0.003165138587743916
0.003165138587744116
0.003165138587744454
0.003165138587743881
0.003165138587744075
0.00316513858774443
0.003165138587743876
0.003165138587744075
0.003165138587744433
0.003165138587743872
0.003165138587744067
0.003165138587744421
0.003165138587743875
0.003402011460827352
0.003402011460827729
0.00340201146082708
0.003402011460827302
0.003402011460827323
0.003402011460827413
0.003402011460827544
0.003402011460826917
0.003402011460826879
0.003402011460827357
0.003402011460827013
0.003402011460826981
0.003402011460827428
0.003402011460827296
0.00340201146082707
0.003402011460827233
0.003402011460827556
0.003402011460826917
0.003402011460827158
0.00340201146082758
0.003402011460826936
0.003402011460827172
0.003402011460827593
0.003402011460826963
0.003402011460827243
0.003402011460827541
0.003402011460826942
0.003402011460827067
0.003402011460827103
0.00340201146082707
0.003402011460826996
0.003402011460827423
0.00340201146082718
0.003402011460827685
0.00340201146082706
0.003402011460826822
0.003402011460827018
0.003402011460827361
0.003402011460826746
0.003402011460827203
0.003402011460827106
0.00340201146082688
0.003402011460826974
0.003402011460827309
0.003402011460826635
0.003402011460827071
0.003402011460826969
0.003402011460826712
0.0034020114608271
0.003402011460826977
0.003402011460826741
0.003402011460827132
0.003402011460826988
0.003402011460826729
0.003402011460827107
0.003402011460826965
0.003402011460826704
0.003402011460827077
0.00340201146082694
0.003402011460826682
0.003402011460827058
0.003402011460826919
0.00340201146082666
0.003402011460827035
0.003402011460826893
0.003402011460826655
0.003578721935536365
0.00357872193553623
0.003578721935535978
0.003578721935536402
0.003578721935536201
0.00357872193553642
0.003578721935535827
0.003578721935535911
0.003578721935535846
0.003578721935536089
0.0035787219355365
0.003578721935535798
0.003578721935536301
0.003578721935536166
0.003578721935535914
0.00357872193553637
0.003578721935536201
0.00357872193553591
0.003578721935536345
0.003578721935536184
0.0035787219355359
0.003578721935536336
0.003578721935536183
0.003578721935535948
0.003578721935536424
0.003578721935536267
0.003578721935535993
0.003578721935536017
0.003578721935536368
0.003578721935535823
0.003578721935535728
0.003578721935536349
0.003578721935536169
0.003578721935536344
0.003578721935535872
0.003578721935535838
0.003578721935536208
0.00357872193553558
0.003578721935535583
0.003578721935535831
0.00357872193553625
0.003578721935536166
0.003578721935535507
0.003578721935535599
0.003578721935535538
0.003578721935535728
0.003578721935536129
0.003578721935535345
0.003578721935535614
0.003578721935536074
0.003578721935535375
0.003578721935535658
0.003578721935536112
0.003578721935535354
0.003578721935535617
0.003578721935536093
0.003578721935535345
0.003578721935535605
0.003578721935536074
0.003578721935535321
0.003578721935535575
0.003578721935536037
0.00357872193553528
0.003578721935535534
0.003578721935535991
0.003578721935535269
0.003704020098905325
0.003704020098905152
0.003704020098904884
0.003704020098905368
0.003704020098905156
0.003704020098904939
0.003704020098905334
0.003704020098905119
0.003704020098904881
0.003704020098905408
0.003704020098905265
0.003704020098904975
0.003704020098905217
0.003704020098905693
0.003704020098904894
0.003704020098905229
0.003704020098905718
0.003704020098904893
0.003704020098905188
0.003704020098905657
0.003704020098904838
0.003704020098905433
0.003704020098905178
0.00370402009890503
0.003704020098905311
0.003704020098905759
0.003704020098905043
0.003704020098905141
0.00370402009890509
0.003704020098905166
0.003704020098904944
0.003704020098905203
0.003704020098905668
0.003704020098904969
0.003704020098905172
0.003704020098905175
0.003704020098904909
0.003704020098904848
0.00370402009890525
0.003704020098904577
0.00370402009890473
0.003704020098905211
0.003704020098905155
0.003704020098904515
0.003704020098904796
0.003704020098904698
0.003704020098904822
0.003704020098904362
0.003704020098904526
0.003704020098905051
0.003704020098904235
0.003704020098904847
0.003704020098904633
0.003704020098904293
0.003704020098904776
0.003704020098904622
0.003704020098904308
0.003704020098904789
0.003704020098904608
0.003704020098904275
0.003704020098904743
0.003704020098904555
0.003704020098904219
0.003704020098904691
0.003704020098904493
0.003704020098904186
0.003785225297465923
0.003785225297465768
0.00378522529746548
0.003785225297466044
0.003785225297465832
0.003785225297465561
0.003785225297465832
0.003785225297466376
0.003785225297465551
0.003785225297465925
0.003785225297466519
0.003785225297465706
0.003785225297466058
0.003785225297466611
0.003785225297465812
0.003785225297466529
0.003785225297466219
0.003785225297465844
0.00378522529746639
0.003785225297466032
0.00378522529746574
0.003785225297466346
0.003785225297466168
0.003785225297465917
0.003785225297466498
0.003785225297466323
0.00378522529746598
0.003785225297466509
0.003785225297465984
0.003785225297465819
0.00378522529746625
0.003785225297466399
0.003785225297465836
0.003785225297465767
0.003785225297466349
0.003785225297466032
0.003785225297465672
0.003785225297466098
0.003785225297465827
0.003785225297465499
0.003785225297466008
0.003785225297465682
0.003785225297465571
0.00378522529746556
0.003785225297465564
0.003785225297465582
0.003785225297465529
0.003785225297464997
0.003785225297465491
0.003785225297465225
0.003785225297464951
0.003785225297465193
0.00378522529746569
0.003785225297464753
0.003785225297465062
0.003785225297465577
0.003785225297464769
0.00378522529746508
0.003785225297465604
0.003785225297464668
0.003785225297464985
0.00378522529746551
0.003785225297464612
0.003785225297464938
0.003785225297465463
0.003785225297464559
0.00382875496862686
0.003828754968627487
0.003828754968626662
0.003828754968627082
0.003828754968627711
0.003828754968626891
0.003828754968627633
0.003828754968627518
0.003828754968627251
0.003828754968627892
0.003828754968627671
0.003828754968627491
0.003828754968628174
0.003828754968627693
0.003828754968627715
0.00382875496862802
0.003828754968628268
0.003828754968627292
0.003828754968628093
0.003828754968627491
0.003828754968627388
0.003828754968627762
0.003828754968628398
0.003828754968627488
0.003828754968628215
0.003828754968627901
0.003828754968627528
0.003828754968627623
0.003828754968627507
0.003828754968627558
0.003828754968627613
0.00382875496862771
0.003828754968627637
0.003828754968627371
0.003828754968627569
0.003828754968627986
0.003828754968627012
0.003828754968627114
0.003828754968627267
0.00382875496862696
0.003828754968627017
0.003828754968626965
0.003828754968627308
0.003828754968627163
0.003828754968627284
0.003828754968627328
0.003828754968626398
0.003828754968626238
0.003828754968626541
0.003828754968627116
0.003828754968626151
0.003828754968626507
0.003828754968626509
0.003828754968626125
0.003828754968626657
0.003828754968626447
0.003828754968626085
0.003828754968626309
0.003828754968626803
0.003828754968625826
0.003828754968626513
0.003828754968626089
0.003828754968625881
0.003828754968626151
0.003828754968626702
0.003828754968625725
0.003840565327505561
0.003840565327505365
0.003840565327505264
0.003840565327506039
0.003840565327505699
0.003840565327505664
0.003840565327506483
0.003840565327506356
0.00384056532750615
0.003840565327506856
0.00384056532750671
0.003840565327506486
0.003840565327507193
0.003840565327506883
0.003840565327506734
0.003840565327507347
0.003840565327506833
0.003840565327506425
0.003840565327506711
0.003840565327507049
0.003840565327506134
0.003840565327506921
0.003840565327506696
0.003840565327506388
0.003840565327507053
0.003840565327506558
0.00384056532750615
0.003840565327506397
0.003840565327506186
0.003840565327506238
0.003840565327506273
0.00384056532750633
0.00384056532750615
0.003840565327506226
0.003840565327505944
0.003840565327506038
0.003840565327505825
0.003840565327505448
0.003840565327505418
0.00384056532750536
0.003840565327505338
0.003840565327505209
0.003840565327505332
0.003840565327505333
0.003840565327505397
0.003840565327505686
0.003840565327505397
0.003840565327504392
0.003840565327505177
0.00384056532750497
0.003840565327504652
0.003840565327504529
0.003840565327504711
0.003840565327504341
0.00384056532750495
0.003840565327504675
0.003840565327504296
0.00384056532750489
0.003840565327504642
0.003840565327504215
0.003840565327504802
0.003840565327504474
0.003840565327504111
0.003840565327504723
0.003840565327504488
0.003840565327504116
0.003826546632532341
0.00382654663253244
0.003826546632533439
0.00382654663253388
0.003826546632534357
0.003826546632533586
0.003826546632534602
0.003826546632534496
0.003826546632534316
0.003826546632535069
0.003826546632534908
0.003826546632534639
0.003826546632534905
0.003826546632534907
0.003826546632534903
0.003826546632534721
0.003826546632534618
0.003826546632534396
0.003826546632534519
0.003826546632534897
0.003826546632533972
0.00382654663253384
0.003826546632533944
0.003826546632533913
0.003826546632534687
0.003826546632534068
0.003826546632533582
0.003826546632533916
0.003826546632534427
0.003826546632533503
0.003826546632533645
0.003826546632533565
0.003826546632533239
0.003826546632533431
0.003826546632533794
0.003826546632533534
0.003826546632532545
0.00382654663253279
0.003826546632532515
0.003826546632533136
0.003826546632532558
0.003826546632532222
0.003826546632532164
0.003826546632532135
0.003826546632532222
0.003826546632532593
0.003826546632532463
0.00382654663253143
0.003826546632531871
0.003826546632531872
0.003826546632531918
0.003826546632531549
0.003826546632531469
0.003826546632531267
0.003826546632531573
0.003826546632532206
0.00382654663253112
0.003826546632531494
0.003826546632532149
0.003826546632531051
0.003826546632531401
0.003826546632532031
0.003826546632530934
0.003826546632531313
0.003826546632531971
0.003826546632531004
0.003792950706089795
0.003792950706091012
0.00379295070609205
0.003792950706092627
0.003792950706092455
0.003792950706092557
0.003792950706093126
0.003792950706093026
0.003792950706092823
0.003792950706093131
0.003792950706093704
0.003792950706093497
0.003792950706092418
0.003792950706092792
0.003792950706093339
0.003792950706093023
0.003792950706091898
0.003792950706092117
0.00379295070609175
0.003792950706092358
0.003792950706091651
0.003792950706091838
0.003792950706090694
0.003792950706091437
0.003792950706091034
0.003792950706091346
0.003792950706090298
0.003792950706090374
0.003792950706090733
0.003792950706090428
0.003792950706090612
0.00379295070609021
0.003792950706090269
0.003792950706090939
0.003792950706090013
0.003792950706089592
0.003792950706089429
0.003792950706089977
0.00379295070608974
0.003792950706090151
0.003792950706089404
0.00379295070608995
0.003792950706088554
0.003792950706088433
0.003792950706088676
0.003792950706088487
0.003792950706088407
0.003792950706088292
0.003792950706088963
0.003792950706088501
0.003792950706088199
0.003792950706088059
0.003792950706088264
0.003792950706087871
0.003792950706088456
0.003792950706088165
0.003792950706087807
0.003792950706088501
0.003792950706088206
0.003792950706087759
0.003792950706088375
0.003792950706088052
0.003792950706087613
0.003792950706088285
0.003792950706088045
0.003792950706087845
0.003746988720817455
0.003746988720820015
0.003746988720821439
0.003746988720821866
0.003746988720822232
0.003746988720822318
0.003746988720821758
0.003746988720821724
0.003746988720821607
0.003746988720821337
0.003746988720821494
0.00374698872082176
0.003746988720820171
0.003746988720820352
0.003746988720820727
0.003746988720820434
0.003746988720819079
0.003746988720819074
0.00374698872081872
0.003746988720818714
0.003746988720818531
0.003746988720819083
0.003746988720817314
0.003746988720817264
0.003746988720817867
0.003746988720817021
0.003746988720816813
0.00374698872081769
0.003746988720817007
0.003746988720817019
0.00374698872081709
0.003746988720816586
0.003746988720816577
0.003746988720816398
0.003746988720816333
0.003746988720816199
0.003746988720815706
0.003746988720815758
0.003746988720815712
0.003746988720816446
0.003746988720815801
0.003746988720815439
0.003746988720815381
0.003746988720815188
0.003746988720814817
0.003746988720815365
0.00374698872081458
0.003746988720815373
0.003746988720814832
0.003746988720815127
0.003746988720814212
0.003746988720814465
0.003746988720815097
0.003746988720814087
0.00374698872081407
0.003746988720814102
0.003746988720814079
0.003746988720814516
0.00374698872081495
0.003746988720813927
0.003746988720814748
0.003746988720814276
0.003746988720813904
0.003746988720814369
0.003746988720814395
0.003746988720814701
0.003698143615782014
0.003698143615785002
0.003698143615785031
0.003698143615785144
0.00369814361578352
0.003698143615783802
0.003698143615782354
0.003698143615780739
0.003698143615781369
0.003698143615780458
0.003698143615781043
0.003698143615780149
0.003698143615778369
0.003698143615778153
0.003698143615777735
0.003698143615777692
0.003698143615777072
0.003698143615776828
0.003698143615776968
0.003698143615775773
0.003698143615775794
0.003698143615775206
0.003698143615774714
0.003698143615774386
0.003698143615774886
0.003698143615774939
0.003698143615774114
0.003698143615774192
0.00369814361577418
0.003698143615774044
0.003698143615774576
0.003698143615773878
0.003698143615773387
0.00369814361577329
0.003698143615773156
0.003698143615773187
0.003698143615772996
0.003698143615772937
0.003698143615773422
0.003698143615772757
0.003698143615773021
0.003698143615773599
0.003698143615772697
0.003698143615773176
0.003698143615771943
0.003698143615772603
0.003698143615773118
0.003698143615772546
0.00369814361577215
0.00369814361577199
0.003698143615772077
0.003698143615771807
0.003698143615771671
0.00369814361577184
0.003698143615771593
0.003698143615771434
0.003698143615772037
0.003698143615772011
0.003698143615771859