/*--------------------------------*- C++ -*----------------------------------*\
| =========                 |                                                 |
| \\      /  F ield         | OpenFOAM: The Open Source CFD Toolbox           |
|  \\    /   O peration     | Version:  v1812                                 |
|   \\  /    A nd           | Web:      www.OpenFOAM.com                      |
|    \\/     M anipulation  |                                                 |
\*---------------------------------------------------------------------------*/
FoamFile
{
    version     2.0;
    format      ascii;
    class       volScalarField;
    location    "10000";
    object      nuTilda_0;
}
// * * * * * * * * * * * * * * * * * * * * * * * * * * * * * * * * * * * * * //

dimensions      [0 2 -1 0 0 0 0];


internalField   nonuniform List<scalar> 
2838
(
0.0004891493730614396
0.0004891493730614406
0.0004891493730614411
0.0004891493730614409
0.0004891493730614411
0.000489149373061441
0.0004891493730614413
0.0004891493730614406
0.000489149373061441
0.0004891493730614407
0.0004891493730614408
0.0004891493730614407
0.0004891493730614405
0.0004891493730614405
0.0004891493730614408
0.00048914937306144
0.0004891493730614409
0.0004891493730614403
0.0004891493730614407
0.0004891493730614398
0.0004891493730614405
0.0004891493730614401
0.0004891493730614408
0.00048914937306144
0.00048914937306144
0.0004891493730614405
0.0004891493730614398
0.0004891493730614402
0.0004891493730614396
0.0004891493730614405
0.0004891493730614398
0.0004891493730614398
0.0004891493730614408
0.0004891493730614395
0.0004891493730614395
0.0004891493730614398
0.000489149373061441
0.0004891493730614395
0.0004891493730614395
0.0004891493730614396
0.0004891493730614406
0.0004891493730614397
0.0004891493730614404
0.0004891493730614398
0.0004891493730614407
0.0004891493730614395
0.0004891493730614405
0.0004891493730614404
0.0004891493730614398
0.0004891493730614395
0.0004891493730614406
0.0004891493730614401
0.0004891493730614408
0.0004891493730614392
0.0004891493730614401
0.0004891493730614398
0.0004891493730614404
0.0004891493730614382
0.0004891493730614417
0.0004891493730614389
0.000489149373061441
0.0004891493730614388
0.0004891493730614415
0.0004891493730614386
0.0004891493730614413
0.0004891493730614396
0.0002986175958414454
0.0002986175958414372
0.000298617595841431
0.0002986175958414279
0.0002986175958414288
0.0002986175958414291
0.0002986175958414291
0.000298617595841429
0.0002986175958414313
0.0002986175958414305
0.000298617595841431
0.0002986175958414305
0.0002986175958414282
0.0002986175958414298
0.0002986175958414309
0.0002986175958414309
0.0002986175958414299
0.0002986175958414305
0.00029861759584143
0.0002986175958414282
0.0002986175958414302
0.0002986175958414291
0.0002986175958414321
0.0002986175958414295
0.0002986175958414312
0.0002986175958414296
0.000298617595841427
0.0002986175958414291
0.0002986175958414303
0.0002986175958414302
0.0002986175958414287
0.0002986175958414291
0.0002986175958414315
0.0002986175958414332
0.0002986175958414327
0.0002986175958414322
0.0002986175958414308
0.0002986175958414317
0.0002986175958414337
0.000298617595841435
0.0002986175958414316
0.0002986175958414311
0.0002986175958414347
0.0002986175958414341
0.0002986175958414339
0.0002986175958414344
0.0002986175958414353
0.0002986175958414331
0.0002986175958414343
0.0002986175958414317
0.0002986175958414316
0.0002986175958414349
0.0002986175958414323
0.0002986175958414298
0.0002986175958414295
0.0002986175958414323
0.0002986175958414325
0.000298617595841431
0.0002986175958414301
0.000298617595841433
0.0002986175958414307
0.0002986175958414315
0.0002986175958414326
0.0002986175958414341
0.0002986175958414326
0.0002986175958414315
0.0004845024904134765
0.0004845024904134666
0.0004845024904134534
0.0004845024904134358
0.0004845024904134342
0.0004845024904134389
0.0004845024904134385
0.0004845024904134335
0.0004845024904134413
0.0004845024904134437
0.0004845024904134397
0.0004845024904134429
0.0004845024904134383
0.0004845024904134455
0.0004845024904134459
0.0004845024904134397
0.0004845024904134473
0.0004845024904134471
0.0004845024904134442
0.0004845024904134469
0.0004845024904134479
0.0004845024904134493
0.0004845024904134476
0.0004845024904134468
0.0004845024904134507
0.0004845024904134484
0.0004845024904134426
0.0004845024904134516
0.0004845024904134505
0.0004845024904134442
0.0004845024904134501
0.0004845024904134528
0.0004845024904134508
0.0004845024904134553
0.0004845024904134505
0.0004845024904134502
0.000484502490413454
0.000484502490413452
0.0004845024904134527
0.0004845024904134591
0.0004845024904134563
0.0004845024904134492
0.0004845024904134559
0.0004845024904134558
0.000484502490413453
0.0004845024904134579
0.000484502490413459
0.0004845024904134521
0.0004845024904134558
0.0004845024904134579
0.0004845024904134503
0.00048450249041346
0.0004845024904134555
0.0004845024904134469
0.0004845024904134483
0.0004845024904134537
0.00048450249041345
0.0004845024904134548
0.0004845024904134523
0.000484502490413457
0.0004845024904134496
0.0004845024904134566
0.0004845024904134521
0.0004845024904134585
0.0004845024904134547
0.0004845024904134564
0.0006686966553398821
0.0006686966553398804
0.0006686966553398566
0.0006686966553398412
0.0006686966553398353
0.0006686966553398419
0.000668696655339836
0.0006686966553398325
0.000668696655339841
0.0006686966553398486
0.0006686966553398428
0.0006686966553398351
0.000668696655339852
0.0006686966553398462
0.0006686966553398491
0.0006686966553398348
0.0006686966553398478
0.0006686966553398479
0.0006686966553398445
0.0006686966553398486
0.0006686966553398465
0.0006686966553398577
0.0006686966553398528
0.000668696655339845
0.0006686966553398534
0.0006686966553398552
0.0006686966553398456
0.0006686966553398558
0.0006686966553398615
0.000668696655339846
0.0006686966553398572
0.0006686966553398563
0.000668696655339849
0.0006686966553398628
0.000668696655339866
0.0006686966553398496
0.0006686966553398616
0.0006686966553398686
0.0006686966553398502
0.0006686966553398671
0.0006686966553398711
0.000668696655339854
0.0006686966553398627
0.0006686966553398674
0.0006686966553398538
0.000668696655339873
0.000668696655339865
0.0006686966553398609
0.0006686966553398684
0.0006686966553398656
0.0006686966553398588
0.0006686966553398724
0.0006686966553398625
0.0006686966553398559
0.0006686966553398481
0.0006686966553398585
0.0006686966553398501
0.0006686966553398595
0.0006686966553398582
0.0006686966553398608
0.0006686966553398508
0.0006686966553398634
0.0006686966553398526
0.0006686966553398684
0.0006686966553398578
0.0006686966553398797
0.0008755972416048918
0.0008755972416048743
0.0008755972416048613
0.0008755972416048138
0.0008755972416048302
0.0008755972416048416
0.000875597241604812
0.0008755972416048143
0.0008755972416048402
0.0008755972416048238
0.0008755972416048284
0.0008755972416048129
0.0008755972416048403
0.0008755972416048504
0.0008755972416048315
0.0008755972416048125
0.0008755972416048287
0.0008755972416048256
0.0008755972416048435
0.0008755972416048299
0.0008755972416048237
0.0008755972416048388
0.0008755972416048526
0.0008755972416048182
0.0008755972416048361
0.0008755972416048546
0.000875597241604819
0.0008755972416048486
0.000875597241604841
0.0008755972416048325
0.0008755972416048439
0.0008755972416048453
0.0008755972416048286
0.0008755972416048503
0.0008755972416048655
0.0008755972416048319
0.0008755972416048502
0.0008755972416048686
0.0008755972416048315
0.0008755972416048684
0.0008755972416048559
0.0008755972416048435
0.0008755972416048637
0.00087559724160485
0.0008755972416048412
0.0008755972416048626
0.0008755972416048727
0.0008755972416048394
0.0008755972416048659
0.0008755972416048579
0.0008755972416048461
0.0008755972416048683
0.0008755972416048665
0.0008755972416048335
0.0008755972416048404
0.000875597241604859
0.0008755972416048232
0.0008755972416048431
0.000875597241604857
0.0008755972416048393
0.0008755972416048264
0.00087559724160485
0.0008755972416048319
0.0008755972416048533
0.0008755972416048421
0.0008755972416048815
0.001155620147594332
0.001155620147594325
0.001155620147594246
0.001155620147594218
0.001155620147594245
0.001155620147594237
0.001155620147594233
0.001155620147594228
0.001155620147594239
0.001155620147594223
0.001155620147594218
0.001155620147594212
0.001155620147594248
0.001155620147594281
0.001155620147594239
0.001155620147594206
0.001155620147594215
0.001155620147594209
0.00115562014759426
0.001155620147594232
0.001155620147594204
0.001155620147594254
0.001155620147594236
0.001155620147594208
0.001155620147594253
0.001155620147594242
0.001155620147594211
0.001155620147594262
0.001155620147594242
0.001155620147594221
0.001155620147594266
0.001155620147594249
0.00115562014759422
0.001155620147594273
0.001155620147594255
0.001155620147594229
0.001155620147594273
0.001155620147594259
0.00115562014759423
0.001155620147594263
0.001155620147594296
0.001155620147594227
0.001155620147594255
0.001155620147594295
0.001155620147594218
0.001155620147594258
0.001155620147594299
0.001155620147594229
0.001155620147594261
0.001155620147594292
0.001155620147594231
0.001155620147594301
0.00115562014759426
0.001155620147594229
0.001155620147594257
0.001155620147594232
0.001155620147594213
0.001155620147594261
0.001155620147594239
0.001155620147594271
0.001155620147594198
0.001155620147594238
0.001155620147594212
0.00115562014759424
0.001155620147594231
0.001155620147594281
0.001548734723931808
0.001548734723931766
0.00154873472393175
0.001548734723931682
0.001548734723931697
0.001548734723931701
0.001548734723931729
0.001548734723931708
0.00154873472393172
0.001548734723931659
0.001548734723931645
0.001548734723931636
0.00154873472393169
0.001548734723931772
0.001548734723931616
0.001548734723931666
0.001548734723931728
0.001548734723931591
0.001548734723931656
0.001548734723931739
0.001548734723931592
0.001548734723931655
0.001548734723931738
0.001548734723931592
0.001548734723931649
0.001548734723931737
0.001548734723931595
0.001548734723931659
0.001548734723931747
0.001548734723931608
0.001548734723931664
0.001548734723931753
0.00154873472393161
0.001548734723931673
0.00154873472393176
0.001548734723931621
0.001548734723931673
0.001548734723931769
0.001548734723931625
0.001548734723931684
0.001548734723931776
0.001548734723931634
0.001548734723931676
0.001548734723931773
0.001548734723931623
0.001548734723931729
0.001548734723931699
0.001548734723931656
0.001548734723931679
0.001548734723931684
0.001548734723931653
0.00154873472393172
0.001548734723931792
0.001548734723931612
0.001548734723931703
0.001548734723931645
0.001548734723931602
0.001548734723931704
0.001548734723931658
0.001548734723931629
0.001548734723931684
0.001548734723931669
0.001548734723931603
0.001548734723931701
0.001548734723931717
0.001548734723931623
0.002016554088571988
0.002016554088572014
0.002016554088571908
0.002016554088571889
0.002016554088571988
0.002016554088572107
0.002016554088571937
0.002016554088572103
0.002016554088571937
0.002016554088571881
0.002016554088571874
0.002016554088571839
0.002016554088571916
0.002016554088572063
0.002016554088571795
0.002016554088571872
0.00201655408857202
0.002016554088571763
0.002016554088571844
0.002016554088571997
0.00201655408857175
0.002016554088571842
0.002016554088571996
0.002016554088571747
0.002016554088571827
0.002016554088571992
0.00201655408857175
0.00201655408857184
0.002016554088572004
0.002016554088571767
0.002016554088571839
0.00201655408857197
0.002016554088571783
0.002016554088571947
0.002016554088571891
0.002016554088571806
0.00201655408857194
0.002016554088571891
0.002016554088571809
0.002016554088571955
0.002016554088571904
0.002016554088571827
0.002016554088571959
0.002016554088571892
0.002016554088571811
0.002016554088571957
0.002016554088571886
0.002016554088571816
0.002016554088571896
0.002016554088572037
0.002016554088571794
0.00201655408857191
0.002016554088572037
0.002016554088571761
0.002016554088571788
0.002016554088571781
0.002016554088571706
0.002016554088571904
0.002016554088571837
0.002016554088571767
0.002016554088571827
0.002016554088571965
0.002016554088571713
0.00201655408857181
0.002016554088571966
0.002016554088571753
0.00247146922804088
0.002471469228041022
0.002471469228041021
0.002471469228040694
0.002471469228040851
0.002471469228040831
0.002471469228040955
0.002471469228041113
0.002471469228040691
0.00247146922804088
0.002471469228040779
0.002471469228040658
0.002471469228040758
0.002471469228040978
0.002471469228040591
0.002471469228040677
0.002471469228040916
0.002471469228040549
0.002471469228040633
0.002471469228040749
0.002471469228040547
0.002471469228040796
0.002471469228040705
0.002471469228040571
0.002471469228040776
0.002471469228040696
0.002471469228040574
0.002471469228040787
0.002471469228040711
0.002471469228040595
0.002471469228040794
0.002471469228040718
0.002471469228040605
0.002471469228040802
0.002471469228040686
0.002471469228040569
0.00247146922804078
0.002471469228040683
0.002471469228040569
0.002471469228040793
0.002471469228040703
0.002471469228040592
0.002471469228040799
0.002471469228040645
0.002471469228040562
0.002471469228040779
0.002471469228040687
0.002471469228040572
0.002471469228040786
0.002471469228040696
0.002471469228040586
0.002471469228040802
0.002471469228040677
0.002471469228040536
0.002471469228040611
0.002471469228040757
0.002471469228040412
0.002471469228040567
0.002471469228040802
0.002471469228040455
0.002471469228040708
0.002471469228040617
0.002471469228040488
0.002471469228040703
0.002471469228040632
0.002471469228040521
0.002857745792367652
0.002857745792367551
0.002857745792367862
0.002857745792367449
0.002857745792367568
0.002857745792367559
0.002857745792367704
0.002857745792367938
0.002857745792367408
0.002857745792367483
0.00285774579236747
0.002857745792367391
0.002857745792367531
0.002857745792367821
0.002857745792367338
0.002857745792367583
0.002857745792367531
0.002857745792367348
0.002857745792367608
0.002857745792367482
0.002857745792367326
0.002857745792367458
0.00285774579236773
0.002857745792367263
0.002857745792367435
0.002857745792367722
0.002857745792367262
0.002857745792367431
0.002857745792367716
0.002857745792367291
0.002857745792367472
0.002857745792367489
0.002857745792367376
0.002857745792367519
0.00285774579236743
0.002857745792367285
0.002857745792367411
0.00285774579236768
0.00285774579236721
0.002857745792367385
0.002857745792367688
0.002857745792367246
0.002857745792367401
0.002857745792367678
0.002857745792367208
0.002857745792367369
0.002857745792367662
0.002857745792367206
0.002857745792367648
0.002857745792367425
0.002857745792367294
0.002857745792367394
0.002857745792367412
0.002857745792367217
0.002857745792367327
0.002857745792367508
0.002857745792367074
0.002857745792367244
0.002857745792367528
0.002857745792367142
0.002857745792367299
0.002857745792367587
0.002857745792367128
0.002857745792367289
0.002857745792367586
0.002857745792367143
0.003165138587746015
0.003165138587746074
0.003165138587745798
0.003165138587746145
0.003165138587745965
0.003165138587745851
0.003165138587745961
0.003165138587746208
0.003165138587745666
0.003165138587746044
0.0031651385877458
0.003165138587745717
0.003165138587746088
0.003165138587745969
0.003165138587745748
0.003165138587745861
0.003165138587746129
0.003165138587745585
0.00316513858774579
0.003165138587746148
0.003165138587745597
0.00316513858774579
0.003165138587746163
0.003165138587745603
0.003165138587745811
0.003165138587746143
0.003165138587745588
0.003165138587746001
0.003165138587745772
0.003165138587745701
0.003165138587745797
0.003165138587745797
0.003165138587745785
0.003165138587745682
0.003165138587745634
0.003165138587745564
0.003165138587745717
0.003165138587746046
0.00316513858774547
0.003165138587745885
0.003165138587745744
0.003165138587745573
0.003165138587745901
0.003165138587745732
0.003165138587745509
0.003165138587745838
0.003165138587745715
0.003165138587745504
0.003165138587745861
0.003165138587745707
0.003165138587745525
0.003165138587745791
0.003165138587745687
0.003165138587745484
0.003165138587745812
0.003165138587745662
0.003165138587745444
0.003165138587745773
0.003165138587745654
0.003165138587745447
0.003165138587745774
0.003165138587745653
0.003165138587745438
0.003165138587745762
0.003165138587745643
0.003165138587745442
0.003402011460829293
0.003402011460829145
0.003402011460828912
0.003402011460829323
0.003402011460829117
0.003402011460829412
0.003402011460828806
0.003402011460828802
0.003402011460828764
0.003402011460828824
0.003402011460828867
0.003402011460828803
0.003402011460828994
0.003402011460829366
0.00340201146082873
0.003402011460829178
0.003402011460828921
0.00340201146082874
0.00340201146082914
0.00340201146082901
0.003402011460828765
0.003402011460829154
0.003402011460829026
0.003402011460828798
0.003402011460829266
0.003402011460828885
0.003402011460828784
0.003402011460828979
0.003402011460828889
0.003402011460828965
0.003402011460828773
0.003402011460828969
0.003402011460829234
0.003402011460829114
0.003402011460829042
0.003402011460828534
0.003402011460828978
0.00340201146082882
0.003402011460828604
0.003402011460828788
0.003402011460829174
0.003402011460828519
0.003402011460828944
0.003402011460828673
0.003402011460828443
0.003402011460828632
0.003402011460829025
0.003402011460828376
0.003402011460828622
0.003402011460829057
0.003402011460828418
0.003402011460828648
0.003402011460829056
0.003402011460828393
0.00340201146082862
0.003402011460829029
0.003402011460828365
0.00340201146082859
0.003402011460829006
0.003402011460828344
0.003402011460828569
0.003402011460828981
0.00340201146082832
0.003402011460828545
0.003402011460828954
0.003402011460828319
0.003578721935538155
0.003578721935538548
0.003578721935537875
0.003578721935538142
0.003578721935538594
0.003578721935537922
0.003578721935537865
0.003578721935538069
0.003578721935537882
0.003578721935538334
0.003578721935538121
0.003578721935537891
0.003578721935538084
0.00357872193553851
0.003578721935537783
0.003578721935538075
0.003578721935538515
0.003578721935537785
0.003578721935538052
0.003578721935538511
0.003578721935537786
0.003578721935538072
0.003578721935538528
0.003578721935537841
0.003578721935538149
0.003578721935538599
0.00357872193553788
0.003578721935538129
0.003578721935537927
0.003578721935537911
0.003578721935537848
0.00357872193553813
0.003578721935538569
0.003578721935538413
0.003578721935537778
0.00357872193553783
0.003578721935537767
0.003578721935537757
0.003578721935537682
0.003578721935538128
0.003578721935537929
0.003578721935537682
0.00357872193553756
0.003578721935537691
0.003578721935537485
0.003578721935537914
0.003578721935537685
0.003578721935537404
0.003578721935537855
0.003578721935537732
0.003578721935537477
0.003578721935537924
0.003578721935537731
0.003578721935537436
0.003578721935537874
0.003578721935537724
0.003578721935537427
0.003578721935537856
0.003578721935537701
0.0035787219355374
0.003578721935537823
0.003578721935537661
0.003578721935537358
0.003578721935537782
0.003578721935537617
0.003578721935537346
0.003704020098907237
0.00370402009890781
0.003704020098906966
0.003704020098907263
0.003704020098907817
0.003704020098906981
0.00370402009890724
0.003704020098907775
0.003704020098907009
0.00370402009890733
0.003704020098907864
0.003704020098907072
0.003704020098907658
0.00370402009890746
0.00370402009890719
0.003704020098907715
0.003704020098907496
0.003704020098907182
0.003704020098907669
0.003704020098907428
0.003704020098907137
0.003704020098907357
0.003704020098907754
0.003704020098907185
0.003704020098907791
0.003704020098907647
0.003704020098907325
0.003704020098907518
0.003704020098907229
0.003704020098907609
0.003704020098907056
0.003704020098907686
0.003704020098907514
0.003704020098907281
0.003704020098907401
0.003704020098907786
0.003704020098906925
0.003704020098907142
0.003704020098906987
0.003704020098906908
0.003704020098907024
0.00370402009890698
0.003704020098906935
0.003704020098906846
0.003704020098907361
0.003704020098906884
0.003704020098907131
0.003704020098906311
0.003704020098906967
0.003704020098906825
0.003704020098906562
0.003704020098906799
0.003704020098907176
0.003704020098906369
0.003704020098906687
0.003704020098907225
0.003704020098906405
0.003704020098906692
0.003704020098907211
0.003704020098906365
0.00370402009890664
0.00370402009890715
0.003704020098906305
0.003704020098906584
0.003704020098907083
0.003704020098906282
0.003785225297468022
0.003785225297468647
0.003785225297467764
0.003785225297468093
0.003785225297468714
0.003785225297467837
0.003785225297468504
0.003785225297468322
0.003785225297468067
0.00378522529746865
0.003785225297468493
0.003785225297468214
0.003785225297468795
0.003785225297468539
0.003785225297468333
0.003785225297468638
0.003785225297468964
0.003785225297468096
0.003785225297468426
0.003785225297468761
0.00378522529746799
0.003785225297468404
0.003785225297469049
0.00378522529746822
0.003785225297468608
0.00378522529746916
0.003785225297468227
0.003785225297468549
0.003785225297468742
0.003785225297468084
0.003785225297468235
0.00378522529746833
0.003785225297468346
0.00378522529746819
0.003785225297468426
0.00378522529746889
0.003785225297467905
0.003785225297468178
0.003785225297468657
0.003785225297467772
0.003785225297468088
0.003785225297468513
0.003785225297467826
0.003785225297468076
0.003785225297468024
0.003785225297468169
0.003785225297468131
0.003785225297467113
0.003785225297467512
0.003785225297467954
0.003785225297467282
0.003785225297467892
0.003785225297467596
0.003785225297467236
0.003785225297467775
0.003785225297467613
0.003785225297467261
0.003785225297467775
0.003785225297467536
0.003785225297467196
0.003785225297467702
0.00378522529746747
0.003785225297467122
0.003785225297467637
0.003785225297467386
0.003785225297467069
0.003828754968629754
0.003828754968629596
0.00382875496862936
0.003828754968629998
0.003828754968629851
0.003828754968629582
0.003828754968629926
0.003828754968630498
0.003828754968629676
0.003828754968630119
0.003828754968630558
0.003828754968629984
0.003828754968630365
0.003828754968630409
0.003828754968630405
0.003828754968630847
0.003828754968630076
0.00382875496862988
0.003828754968630248
0.003828754968630302
0.003828754968629949
0.003828754968630678
0.003828754968630511
0.003828754968630177
0.003828754968630458
0.003828754968630941
0.003828754968629893
0.003828754968630276
0.003828754968630057
0.003828754968630334
0.003828754968630288
0.00382875496863043
0.003828754968630405
0.003828754968629793
0.003828754968630388
0.003828754968629978
0.003828754968629629
0.003828754968629776
0.003828754968630387
0.003828754968629413
0.003828754968629718
0.003828754968629625
0.003828754968630453
0.003828754968629857
0.003828754968630178
0.003828754968629085
0.00382875496862908
0.00382875496862883
0.003828754968629433
0.003828754968629201
0.003828754968628815
0.003828754968628996
0.003828754968629491
0.003828754968628537
0.00382875496862888
0.003828754968629495
0.003828754968628498
0.003828754968629185
0.003828754968628744
0.003828754968628519
0.003828754968628743
0.003828754968628926
0.003828754968628405
0.003828754968629063
0.003828754968628688
0.003828754968628373
0.003840565327507891
0.003840565327508498
0.003840565327507885
0.00384056532750837
0.003840565327508612
0.003840565327508404
0.003840565327508857
0.003840565327509527
0.00384056532750869
0.00384056532750917
0.003840565327509936
0.003840565327509039
0.003840565327509468
0.003840565327510107
0.003840565327509344
0.003840565327509605
0.003840565327509835
0.003840565327508886
0.003840565327509672
0.003840565327509102
0.003840565327509037
0.003840565327509406
0.003840565327509943
0.00384056532750898
0.003840565327509316
0.00384056532750966
0.003840565327508617
0.003840565327509402
0.003840565327508752
0.003840565327509193
0.003840565327509133
0.003840565327509281
0.003840565327508837
0.003840565327509179
0.003840565327508457
0.003840565327508902
0.003840565327508812
0.003840565327508052
0.003840565327508187
0.003840565327508102
0.003840565327508118
0.003840565327507929
0.003840565327508278
0.003840565327508189
0.003840565327508289
0.003840565327507641
0.003840565327507435
0.003840565327507278
0.0038405653275076
0.003840565327508193
0.003840565327507201
0.003840565327507321
0.003840565327507912
0.003840565327506866
0.003840565327507228
0.003840565327507905
0.003840565327506836
0.003840565327507196
0.003840565327507795
0.003840565327506764
0.003840565327507074
0.003840565327507705
0.00384056532750667
0.003840565327507041
0.003840565327507635
0.003840565327506664
0.003826546632535521
0.00382654663253507
0.003826546632535928
0.003826546632536146
0.003826546632536577
0.003826546632536661
0.003826546632537121
0.003826546632537761
0.00382654663253693
0.00382654663253743
0.003826546632538223
0.003826546632537244
0.003826546632538044
0.003826546632537819
0.00382654663253782
0.003826546632537339
0.003826546632537535
0.003826546632537081
0.003826546632537583
0.003826546632536931
0.003826546632536893
0.003826546632536721
0.003826546632537043
0.00382654663253684
0.003826546632537113
0.003826546632537363
0.003826546632536169
0.003826546632537297
0.003826546632536723
0.003826546632536594
0.003826546632536733
0.003826546632536623
0.003826546632536027
0.003826546632536454
0.003826546632535993
0.003826546632535608
0.003826546632535495
0.003826546632535976
0.0038265466325352
0.003826546632535499
0.003826546632535767
0.003826546632534719
0.003826546632535113
0.00382654663253509
0.003826546632535239
0.003826546632534686
0.003826546632534523
0.0038265466325344
0.003826546632535093
0.003826546632534816
0.003826546632535043
0.003826546632534199
0.00382654663253422
0.003826546632534008
0.003826546632534707
0.003826546632534462
0.003826546632534027
0.003826546632534648
0.003826546632534404
0.003826546632533954
0.003826546632534547
0.003826546632534277
0.003826546632533847
0.003826546632534479
0.003826546632534247
0.003826546632533909
0.003792950706092628
0.003792950706093812
0.003792950706094529
0.003792950706094963
0.00379295070609555
0.003792950706095406
0.0037929507060957
0.00379295070609642
0.003792950706095521
0.003792950706096279
0.003792950706095972
0.003792950706095527
0.003792950706095381
0.003792950706096102
0.003792950706095631
0.003792950706095108
0.003792950706094935
0.003792950706095398
0.003792950706094447
0.003792950706094736
0.003792950706095032
0.003792950706093834
0.003792950706093737
0.003792950706093996
0.003792950706094372
0.003792950706093522
0.003792950706093371
0.003792950706093413
0.003792950706094013
0.003792950706093171
0.003792950706093785
0.003792950706092868
0.003792950706093379
0.003792950706093317
0.003792950706093213
0.003792950706092197
0.003792950706092235
0.003792950706092384
0.003792950706092423
0.003792950706092516
0.003792950706092624
0.00379295070609218
0.003792950706091341
0.003792950706091421
0.003792950706091995
0.003792950706091145
0.003792950706091241
0.003792950706091171
0.003792950706091416
0.003792950706091915
0.00379295070609093
0.003792950706091045
0.003792950706091635
0.003792950706090538
0.003792950706090897
0.003792950706091562
0.003792950706090513
0.003792950706090926
0.00379295070609154
0.003792950706090427
0.003792950706090784
0.003792950706091364
0.003792950706090257
0.003792950706090714
0.003792950706091381
0.003792950706090551
0.00374698872082022
0.003746988720822854
0.003746988720825065
0.003746988720824734
0.003746988720825443
0.003746988720825384
0.003746988720824323
0.003746988720824481
0.003746988720825017
0.003746988720824143
0.003746988720824533
0.003746988720824079
0.003746988720822873
0.003746988720823688
0.00374698872082295
0.003746988720822433
0.003746988720822104
0.00374698872082217
0.003746988720821456
0.003746988720821537
0.003746988720821837
0.003746988720821244
0.003746988720820118
0.003746988720820191
0.003746988720820137
0.003746988720820108
0.00374698872081997
0.003746988720820259
0.003746988720820277
0.003746988720820113
0.003746988720820209
0.003746988720819188
0.003746988720819652
0.003746988720819133
0.003746988720819346
0.003746988720819284
0.00374698872081838
0.003746988720818759
0.003746988720818609
0.00374698872081889
0.003746988720819116
0.003746988720817853
0.003746988720818007
0.003746988720818492
0.003746988720817505
0.003746988720817658
0.003746988720817662
0.003746988720817831
0.003746988720818055
0.003746988720817211
0.003746988720817138
0.003746988720817685
0.003746988720817433
0.003746988720817035
0.003746988720817053
0.003746988720817216
0.003746988720816981
0.003746988720817755
0.003746988720817085
0.003746988720816884
0.003746988720817124
0.00374698872081749
0.003746988720816477
0.003746988720817626
0.003746988720817333
0.003746988720817605
0.00369814361578468
0.003698143615787376
0.003698143615788357
0.003698143615787188
0.003698143615787036
0.003698143615786048
0.003698143615784228
0.003698143615783822
0.003698143615783934
0.003698143615784031
0.003698143615783487
0.003698143615782883
0.003698143615780775
0.00369814361578134
0.003698143615780501
0.003698143615780785
0.003698143615779668
0.003698143615779668
0.003698143615778885
0.00369814361577873
0.003698143615778866
0.003698143615777497
0.003698143615777532
0.003698143615777111
0.003698143615777147
0.003698143615777219
0.003698143615777328
0.003698143615776979
0.003698143615777121
0.00369814361577686
0.003698143615776932
0.003698143615777087
0.003698143615775882
0.003698143615776068
0.003698143615775808
0.003698143615776062
0.003698143615775798
0.003698143615775805
0.0036981436157756
0.003698143615775592
0.003698143615776072
0.003698143615775774
0.003698143615775693
0.003698143615775308
0.003698143615774695
0.003698143615774971
0.003698143615775555
0.003698143615775648
0.00369814361577462
0.003698143615774648
0.003698143615775142
0.003698143615774344
0.003698143615774428
0.003698143615774994
0.003698143615774194
0.003698143615774241
0.003698143615774577
0.003698143615775332
0.003698143615774418