/*--------------------------------*- C++ -*----------------------------------*\
| =========                 |                                                 |
| \\      /  F ield         | OpenFOAM: The Open Source CFD Toolbox           |
|  \\    /   O peration     | Version:  v1812                                 |
|   \\  /    A nd           | Web:      www.OpenFOAM.com                      |
|    \\/     M anipulation  |                                                 |
\*---------------------------------------------------------------------------*/
FoamFile
{
    version     2.0;
    format      ascii;
    class       volScalarField;
    location    "10000";
    object      p;
}
// * * * * * * * * * * * * * * * * * * * * * * * * * * * * * * * * * * * * * //

dimensions      [0 2 -2 0 0 0 0];


internalField   nonuniform List<scalar> 
2838
(
2.837725250731643e-17
1.148920023499519e-15
9.311784836148572e-16
8.302045616787463e-16
7.21385024525441e-16
6.653860522518688e-16
6.01041277186417e-16
5.505191898261295e-16
5.528778367365409e-16
5.423993958570799e-16
4.344028258085372e-16
4.217092732886367e-16
2.579856615592112e-16
3.139054973517816e-16
4.602277377945724e-16
2.550964398096612e-16
3.131222640247206e-16
4.755713146489206e-16
4.206064369355895e-16
3.644071499208339e-16
2.720494288328502e-16
1.018628331758572e-16
1.278717317742293e-16
2.280076993466395e-16
1.567369698873706e-16
3.012646192001249e-16
3.374301472521065e-16
1.260803883305502e-16
1.804450059670962e-16
3.249415614054989e-16
1.57912810191665e-16
1.697813963200105e-16
1.952002541114664e-16
2.811368702765229e-17
1.617145220201945e-16
8.479981917754077e-17
-8.780197533353562e-17
-1.42339589859108e-17
-1.250995533103974e-16
-2.033429771993983e-16
-6.420009468161983e-17
-4.601846968339668e-17
-1.656657785347564e-16
-9.460712371952103e-18
3.075212486567934e-19
1.152401835123272e-16
3.443947603154437e-16
3.120642371910965e-16
2.242702637314072e-16
4.188565031635107e-16
2.78649069866564e-16
2.160827484037223e-16
3.711583025038126e-16
3.394292329832875e-16
7.468600197169553e-17
1.77397293948059e-16
2.18822337426799e-16
5.282845804256221e-17
-1.148244728255102e-17
1.051879301462718e-16
4.652769749731929e-17
-1.117067143541871e-16
-1.61557975114704e-16
-4.296818623511909e-16
-4.668345690223174e-16
-9.174677836209914e-16
5.289871964860838e-17
1.147403309049497e-15
9.309701677318543e-16
8.288766068338158e-16
7.212359306759503e-16
6.666208546073204e-16
6.009207378404932e-16
5.488572303892434e-16
5.533701347202338e-16
5.428336748694677e-16
4.351186434601981e-16
4.20438328497331e-16
2.556050445711422e-16
3.161862003585125e-16
4.568484411968466e-16
2.563570126594329e-16
3.167277090017193e-16
4.763346195298057e-16
4.184771431134855e-16
3.623092884850337e-16
2.726940030688274e-16
1.046375162447618e-16
1.292998262598738e-16
2.233866821929901e-16
1.576903628736003e-16
3.02500302865091e-16
3.379783876830343e-16
1.232865822538611e-16
1.813675861937504e-16
3.260555132859253e-16
1.525524916230393e-16
1.735379603671647e-16
1.975072942322743e-16
2.131662342407489e-17
1.602207463645732e-16
9.451528434052297e-17
-8.785349738010014e-17
-2.110883053340328e-17
-1.268300857012065e-16
-2.002383556396895e-16
-6.495237008138902e-17
-4.406524792599119e-17
-1.646723559434986e-16
-8.828946405337367e-18
-6.071817964455403e-19
1.141595230649961e-16
3.489451449950443e-16
3.093957050024671e-16
2.17018368308983e-16
4.21050543269284e-16
2.846608705421454e-16
2.165467220847717e-16
3.668147865615208e-16
3.357182057049994e-16
7.873690476058374e-17
1.796312647820495e-16
2.102432691739452e-16
5.7814841698863e-17
-3.997320438057929e-18
1.023619822375728e-16
4.579404449994885e-17
-1.113819839047341e-16
-1.596297478447161e-16
-4.298428964229169e-16
-4.674689266315673e-16
-9.149939454893862e-16
8.642558527407006e-17
1.142323091016147e-15
9.246421007951241e-16
8.235448900108421e-16
7.201548571190769e-16
6.687980714937925e-16
6.004060723321007e-16
5.494288016556272e-16
5.539909954069741e-16
5.426236513620253e-16
4.345268872138745e-16
4.189692110404811e-16
2.564587999502922e-16
3.172004464501937e-16
4.553097436459056e-16
2.569827950545226e-16
3.180080548838717e-16
4.776609161983637e-16
4.183059678407017e-16
3.617552413816864e-16
2.736157216098153e-16
1.039723543920848e-16
1.282748701007079e-16
2.237113224473389e-16
1.576420792358167e-16
3.047255750006229e-16
3.390912876756367e-16
1.227219226068853e-16
1.820188629152503e-16
3.246879456548935e-16
1.496915798046966e-16
1.749095614136357e-16
2.01382901216552e-16
1.920922797116352e-17
1.578067410621888e-16
9.664241217563757e-17
-8.758858911146267e-17
-2.074662511148771e-17
-1.238792712080635e-16
-2.017773646159402e-16
-6.711404607761822e-17
-4.468234149550906e-17
-1.626057524200082e-16
-6.454644525175217e-18
-9.023819277291293e-19
1.134786870726162e-16
3.50153337561607e-16
3.0851130240447e-16
2.146745413231491e-16
4.194650660217594e-16
2.860967002520249e-16
2.159594836900915e-16
3.656802274213573e-16
3.342241273856021e-16
8.086732352577717e-17
1.817423340570964e-16
2.106288685104013e-16
5.814456026736082e-17
-1.726099257924727e-18
1.022450327348467e-16
4.499666100980504e-17
-1.099141754511823e-16
-1.567404525785028e-16
-4.281958423770363e-16
-4.750037794181831e-16
-9.097013531536864e-16
1.28451046326427e-16
1.139176543504258e-15
9.153445869263249e-16
8.144768544801516e-16
7.176804814121548e-16
6.72033010245259e-16
6.014713439351509e-16
5.502788455106622e-16
5.545154220492345e-16
5.425587163779582e-16
4.335535866727212e-16
4.183302007178212e-16
2.583753316232979e-16
3.185667759852349e-16
4.523766765406508e-16
2.566623931743905e-16
3.202369479828218e-16
4.795442890645362e-16
4.190904093930529e-16
3.635433540648723e-16
2.750251505981687e-16
1.024096026386621e-16
1.275607362422477e-16
2.250351471020512e-16
1.562111812237753e-16
3.074094041265616e-16
3.418979871319649e-16
1.216495504887353e-16
1.824079322944024e-16
3.226941980081144e-16
1.467878288671033e-16
1.73964051821872e-16
2.070096001521379e-16
1.767898188013662e-17
1.543035497292457e-16
9.814976474410814e-17
-8.570809914393321e-17
-1.932171540099485e-17
-1.220839472555736e-16
-2.031692945467791e-16
-7.020964154948912e-17
-4.330732974400894e-17
-1.595650321202267e-16
-5.275623675591862e-18
-2.170244838312085e-18
1.125416261019175e-16
3.500351774057431e-16
3.069001768080501e-16
2.143645990917612e-16
4.164717076948619e-16
2.871507862378161e-16
2.162057027999684e-16
3.635001466033638e-16
3.35833617156882e-16
8.184127351357226e-17
1.835312698158422e-16
2.132533227963194e-16
5.745015938162766e-17
1.623536402159454e-18
1.018407109717864e-16
4.490354999310223e-17
-1.083677061113799e-16
-1.532732174649061e-16
-4.262540356180917e-16
-4.849626641587503e-16
-9.033574551742057e-16
1.756039107627831e-16
1.14091346579102e-15
9.052526781892802e-16
8.049226483925193e-16
7.172749284240082e-16
6.717207686082784e-16
5.991032145656758e-16
5.52803298212981e-16
5.568822149287775e-16
5.399288458591768e-16
4.320865876765699e-16
4.17438035930993e-16
2.606313068158534e-16
3.184379164326529e-16
4.493273236727708e-16
2.564916421237488e-16
3.222218723553594e-16
4.816177705012747e-16
4.191158702797821e-16
3.647418176140506e-16
2.776963535409126e-16
1.026865014183979e-16
1.262329223441961e-16
2.258387462540447e-16
1.549284022134914e-16
3.106166131493756e-16
3.45873355186338e-16
1.187622702954492e-16
1.850629798407623e-16
3.233752578656499e-16
1.433465754807279e-16
1.729266049977834e-16
2.10055706481419e-16
1.989258802450462e-17
1.492329769454765e-16
9.973391093703349e-17
-8.301871500204427e-17
-2.102553696516187e-17
-1.199221193464426e-16
-2.017431777861183e-16
-7.350129022235189e-17
-4.300104552529278e-17
-1.552540009057463e-16
-4.35830860961485e-18
-3.858420987961969e-18
1.120606541322839e-16
3.503230359184412e-16
3.039972889921272e-16
2.146048622182281e-16
4.140671443509439e-16
2.876818511100916e-16
2.172101396982954e-16
3.594071834960277e-16
3.365890183264317e-16
8.542265129748007e-17
1.83306461434125e-16
2.132214906115998e-16
5.711833474506607e-17
7.550482313445816e-18
1.031017530788522e-16
4.705734133537332e-17
-1.074877471008467e-16
-1.500827573166618e-16
-4.229490829456927e-16
-4.957702621810973e-16
-9.020369388386705e-16
2.331872515551203e-16
1.160890478864251e-15
8.894636485150039e-16
7.92948417475812e-16
7.167040653204197e-16
6.634385523502922e-16
5.972394846482197e-16
5.585707459517498e-16
5.532408853226272e-16
5.36560952712045e-16
4.311350798776948e-16
4.20119619266911e-16
2.674666023928395e-16
3.195380143413947e-16
4.354592477930242e-16
2.566710992167183e-16
3.285744966493898e-16
4.833152741446359e-16
4.186990188685032e-16
3.638113229930336e-16
2.778034943754862e-16
1.092722195854157e-16
1.21007577638523e-16
2.248390574170177e-16
1.563699801525015e-16
3.145702436608819e-16
3.504722004623169e-16
1.182050628853064e-16
1.874688797316092e-16
3.2587077692918e-16
1.429511784575878e-16
1.674489969542209e-16
2.134840375142298e-16
2.170629349417163e-17
1.425336852547842e-16
1.002273714591286e-16
-7.67797265896809e-17
-2.520364346541445e-17
-1.219562083199373e-16
-1.919767624845253e-16
-7.859805907957752e-17
-4.429436088238688e-17
-1.488958564146639e-16
-2.028473858680908e-18
-5.145324830007006e-18
1.163065831023319e-16
3.44766234006742e-16
2.989566445918997e-16
2.174038966657639e-16
4.102191503665748e-16
2.884435763416001e-16
2.208276845108444e-16
3.507230012555126e-16
3.349900496781708e-16
9.380220717553353e-17
1.81300665515705e-16
2.131883464114115e-16
6.002891779378056e-17
1.113418237382068e-17
1.031386433815452e-16
4.999332585998832e-17
-1.01032542154922e-16
-1.456230045590347e-16
-4.142657092678588e-16
-5.121900258289914e-16
-9.100692955101322e-16
3.103416314684654e-16
1.21571753033203e-15
8.768716628288097e-16
7.687345410859995e-16
7.13139002017322e-16
6.597716132592354e-16
5.883579742666828e-16
5.729721558772495e-16
5.484531043101152e-16
5.095993221451227e-16
4.316931310291484e-16
4.316465209352109e-16
2.809585664082622e-16
3.192142839955086e-16
4.065816333889442e-16
2.563990482617983e-16
3.295734497327103e-16
4.874973909949893e-16
4.2405156740214e-16
3.639327464957543e-16
2.710257533578978e-16
1.135832265102481e-16
1.21201909091446e-16
2.145755754383067e-16
1.739151046404604e-16
3.219590421818829e-16
3.518680398633098e-16
1.288741061085185e-16
1.801453800743754e-16
3.208515837854977e-16
1.561261142799855e-16
1.575477167401292e-16
2.092903380819772e-16
3.786628235329735e-17
1.291433936148946e-16
9.695314200696328e-17
-6.404360455474519e-17
-3.604642131147522e-17
-1.214427942361143e-16
-1.771503531527898e-16
-9.119250502866494e-17
-4.617576849927808e-17
-1.344510336801619e-16
-1.238484462275812e-17
-3.920288214739752e-19
1.284962678369893e-16
3.324128501050653e-16
2.830233754517394e-16
2.288919619283967e-16
4.12898315694697e-16
2.814071180712043e-16
2.31699941267675e-16
3.367472075934634e-16
3.262821719384643e-16
1.123646676497915e-16
1.76929729981448e-16
2.128344173091662e-16
7.1655827446105e-17
1.228756077038754e-17
9.459887526280275e-17
4.628933652882102e-17
-8.824510118981371e-17
-1.337616277888345e-16
-3.907661872633656e-16
-5.406004159858889e-16
-9.426585385186325e-16
4.205835065282771e-16
1.333268665254555e-15
8.845067513175987e-16
7.480919142325401e-16
7.188111138744164e-16
6.371289419270041e-16
5.668802260339336e-16
6.008873972676475e-16
5.412115850125879e-16
4.66897345688586e-16
4.131955231648185e-16
4.369612659674633e-16
3.068436172588401e-16
3.147493342928043e-16
3.783926112513373e-16
2.570009236719063e-16
3.333993436345336e-16
4.761473512700219e-16
4.303279846602387e-16
3.644191265955607e-16
2.614630598438539e-16
1.129238282612971e-16
1.311157660914281e-16
2.025650208510173e-16
1.832391183488366e-16
3.27808532347875e-16
3.53630583334727e-16
1.600954516675187e-16
1.768480208344384e-16
2.844229503756284e-16
1.845852745987431e-16
1.516673893483442e-16
1.986329592808537e-16
5.825749887922273e-17
1.154404031099826e-16
7.783799807772924e-17
-2.873371382124199e-17
-4.90562775998941e-17
-1.354672511644712e-16
-1.524016098147914e-16
-8.522727758774922e-17
-6.522219102723113e-17
-1.136392754717551e-16
-2.322400620343705e-17
-5.696511336738176e-18
1.528307181008088e-16
3.266470130843023e-16
2.602675726344051e-16
2.369905296502931e-16
4.049624925696083e-16
2.682968956894005e-16
2.542378703841775e-16
3.258329180852192e-16
3.215997688604163e-16
1.157219711426163e-16
1.824815339770235e-16
2.082159830771713e-16
7.908337547562461e-17
1.664614360190751e-17
9.045792545370726e-17
5.668592631507983e-17
-8.019845497527644e-17
-1.2006634452273e-16
-3.370200357243436e-16
-6.069800664670841e-16
-1.038890664670487e-15
5.870089872802175e-16
1.478705941526646e-15
8.871926439270136e-16
7.4329738794541e-16
7.414021689237537e-16
6.172360418887386e-16
5.4321266561744e-16
6.190996065146934e-16
5.047635577060691e-16
4.596386070838741e-16
3.95771693651761e-16
4.156859404742977e-16
3.451496200329668e-16
3.076806362617495e-16
3.419803552582698e-16
2.760651766652325e-16
3.561100370479738e-16
4.334274056822161e-16
4.216136275939714e-16
3.713326045925075e-16
2.57241690363111e-16
1.178381982937558e-16
1.257398556981519e-16
1.92848420075326e-16
1.949124369391333e-16
3.367241544198261e-16
3.541447295863218e-16
2.068788711867038e-16
1.915701586798948e-16
2.488985710336777e-16
1.706481029133313e-16
1.334553130417177e-16
1.961743462605044e-16
8.848979658126673e-17
9.836742955647933e-17
6.74334529219504e-17
5.091681726310978e-19
-6.421267845997786e-17
-1.514683575798836e-16
-1.352749520009983e-16
-9.769383794257139e-17
-7.814648141113195e-17
-9.46002868922071e-17
-1.404539407566081e-17
4.954253371193268e-18
1.601718603584725e-16
3.014508284884815e-16
2.713931076019823e-16
2.374157719611889e-16
3.675507765282945e-16
2.618189790849937e-16
2.759837058511852e-16
3.264389173647731e-16
3.003443988514185e-16
1.014327413622007e-16
1.985439144161331e-16
2.264481094785359e-16
9.524352665156686e-17
-2.467605252234447e-18
6.5493724867395e-17
7.153639977751799e-17
-4.603902091801041e-17
-9.64341696152571e-17
-2.724001663509073e-16
-7.063646814464505e-16
-1.159553385190918e-15
7.20613448426406e-16
1.645445283927432e-15
9.226715836288986e-16
7.558242637890951e-16
7.247444340757834e-16
5.835225068397511e-16
5.684771312631818e-16
5.714117613954004e-16
4.626656264509626e-16
4.779672262464347e-16
4.024977982556309e-16
4.070091319479927e-16
3.683082064788553e-16
2.834350457484675e-16
2.895895046132243e-16
2.920171934280112e-16
3.857501383435119e-16
4.104331467180345e-16
3.919681395528187e-16
3.495996249924637e-16
2.48132494568841e-16
1.432269031390478e-16
1.339179970774176e-16
1.833559677313872e-16
2.139367501926451e-16
3.160403444543264e-16
3.532386305114724e-16
2.955387568544793e-16
1.842219153897502e-16
1.873864650046246e-16
2.02574798735998e-16
1.003320869590565e-16
1.436374695282879e-16
1.523245784863698e-16
5.398439037899303e-17
3.909695995288541e-17
4.928722508202329e-17
-6.43892819438553e-17
-1.785316176650383e-16
-1.024311684148801e-16
-1.22123437866265e-16
-6.558164837853945e-17
-7.763097808137338e-17
-2.346685629082741e-17
2.456159895633227e-17
1.708215487351294e-16
3.105333706684378e-16
2.528167658934927e-16
2.016012859308845e-16
3.390047736836568e-16
2.716128107808908e-16
2.602696048953588e-16
3.07043763037738e-16
3.108655235795701e-16
1.078640109053487e-16
2.142547191550206e-16
2.358814948508927e-16
1.020323781995953e-16
3.146149142224948e-18
5.045879555798186e-17
5.211454436159614e-17
2.47870834087979e-18
-5.904541272690979e-17
-2.355853431007223e-16
-7.991930519983887e-16
-1.275032226031957e-15
8.491729658907011e-16
1.782194484033066e-15
9.85158014549841e-16
7.502004826063324e-16
6.874349108828236e-16
5.414053761613771e-16
5.813742090204835e-16
5.548681411524691e-16
4.261518234755107e-16
4.886182187113014e-16
3.832428019988403e-16
3.903979284707251e-16
3.989448355774791e-16
2.955324386266587e-16
2.739280685057182e-16
2.962669491156999e-16
4.06594704966172e-16
3.74380948134406e-16
3.521547442746633e-16
3.393237829215557e-16
2.342734565961696e-16
1.600700861947321e-16
1.422578050910616e-16
2.068477038562516e-16
2.287663238086681e-16
2.794118075201575e-16
3.466172230655614e-16
3.550892866916802e-16
1.97878284850489e-16
1.492962059756387e-16
2.128927647050745e-16
9.71179873847496e-17
1.101102437756602e-16
1.52784341112346e-16
2.998017961981916e-17
3.255189187964241e-17
8.09149695171649e-17
-8.174025910911999e-17
-1.88427025696708e-16
-8.826713213727202e-17
-1.321850852503123e-16
-5.164018833216429e-17
-6.333951214872008e-17
-2.531509112844468e-17
-3.657250877151397e-18
1.980213610628075e-16
3.222516378233137e-16
2.443477326038439e-16
1.742658176516272e-16
2.902597193192822e-16
2.365472131036851e-16
2.63452765920664e-16
3.197107251743596e-16
3.115433787572556e-16
1.418724663991231e-16
2.603855794889167e-16
2.168303931278222e-16
7.564532910524708e-17
-3.340601493991435e-19
5.284285558430305e-17
4.220673419641601e-17
3.048637527126504e-17
-1.715688608828504e-17
-2.197910519526889e-16
-8.808059616711383e-16
-1.345206571164131e-15
1.002879767575034e-15
1.884671936202397e-15
9.833607835107416e-16
7.571592686035861e-16
6.963427931790492e-16
5.131025416294276e-16
5.15812397749807e-16
5.610964185142817e-16
4.357603685341424e-16
4.569074265342039e-16
3.807773014742696e-16
3.957005900744999e-16
4.227575098171471e-16
3.282085622492735e-16
2.507424181547712e-16
2.519939683464562e-16
4.000053274429842e-16
3.740521561124717e-16
3.375018566396779e-16
3.359532332836182e-16
2.161058458750892e-16
1.596876583501166e-16
1.831085924738996e-16
1.988604913745063e-16
2.353738217657282e-16
2.446167681874185e-16
3.502276047771305e-16
3.903838428773791e-16
2.117189792562692e-16
1.375976539548758e-16
2.044662555279685e-16
1.376299962701536e-16
9.723505997652175e-17
1.261251950857247e-16
1.743592841389273e-17
-6.145931966692573e-18
9.003311974744762e-17
-7.590987073999442e-17
-1.724154103898504e-16
-9.5268276803698e-17
-1.265786673186046e-16
-6.460060776754181e-17
-4.167982685746404e-17
-4.297106935077994e-17
-4.562520423360508e-17
2.455154845984231e-16
3.388882946551307e-16
2.081417438797052e-16
1.949201552503871e-16
2.424783994751301e-16
1.77212615084822e-16
3.03604295842818e-16
3.276368682002692e-16
2.934268292486341e-16
1.656416049839454e-16
3.234640933421865e-16
2.064640220141823e-16
5.140671497329901e-17
-1.662333893100892e-17
9.318066008569095e-17
3.015739462191806e-17
3.917328067243454e-17
-8.069252091221523e-18
-1.77548610365234e-16
-9.596925906131417e-16
-1.413650714981719e-15
1.124178249801268e-15
1.984289952462279e-15
9.882399884026281e-16
7.472583455510912e-16
6.938487729493924e-16
4.749696301741926e-16
4.353075752273267e-16
5.556937191601159e-16
4.489812294299723e-16
4.242638588227983e-16
3.8503729394354e-16
3.966290352316101e-16
4.612423465229023e-16
3.319382742211501e-16
2.619985819385642e-16
2.317514008902439e-16
3.794046807685319e-16
3.638427729948126e-16
3.413961617110577e-16
3.233271101975447e-16
1.90837479772015e-16
1.441148480220908e-16
2.137137144790394e-16
2.353273649478259e-16
2.385132166492595e-16
2.292444625636316e-16
3.556070802314847e-16
3.879140801684621e-16
2.374454880176057e-16
1.206427825826659e-16
1.842744288889995e-16
1.761959173954943e-16
9.483561823178072e-17
1.004073034248213e-16
2.511596316466261e-17
-1.855498040372955e-17
5.581648188859701e-17
-6.308097661386306e-17
-1.421564604071885e-16
-1.090879973765709e-16
-1.565124840226418e-16
-7.342230559676776e-17
-3.464598432896665e-17
-2.830451723671071e-17
-5.025410480062727e-17
2.749876867018014e-16
3.421049599333385e-16
1.718001412688611e-16
1.900746303456922e-16
2.427368974094683e-16
1.317868947834218e-16
3.018685342966178e-16
3.212870494202544e-16
2.677804514851773e-16
1.897294623613537e-16
3.785279486670465e-16
2.022552087917918e-16
4.885000352447186e-17
-1.182860974767561e-17
1.037640850083108e-16
6.300859804905374e-17
5.188248816868077e-17
-3.971645268935837e-17
-1.50237083992985e-16
-9.920430545912861e-16
-1.466310295542943e-15
1.217598618426481e-15
2.051953625743963e-15
9.937963571609264e-16
7.327068650965663e-16
6.787157214400501e-16
4.628254666655009e-16
4.06596119831752e-16
5.294103068735792e-16
4.577332517129852e-16
4.154527918986957e-16
3.984273440606476e-16
3.875103322609909e-16
4.664820518464721e-16
3.519668583671487e-16
2.614965122895443e-16
2.65563020361936e-16
3.614923133110131e-16
3.350471514733328e-16
3.591776663797538e-16
2.859035869954212e-16
1.533475389349173e-16
1.695029663801239e-16
2.210795664776824e-16
2.600512139760879e-16
2.702166415928126e-16
2.160159169047529e-16
3.302584392416569e-16
3.98622701388868e-16
2.381744348206108e-16
1.131653503003827e-16
1.867010988275853e-16
1.964359853635044e-16
1.37866690957779e-16
9.049229582016749e-17
2.099232873437079e-17
-8.455460999758921e-18
-1.526854364768479e-17
-7.849210695591166e-17
-1.123718180304538e-16
-1.176296259738123e-16
-1.841695714015145e-16
-7.771094930086276e-17
-4.296894867681045e-17
-3.595825380315142e-17
-1.516354022371973e-17
2.675422935357684e-16
3.082568132924444e-16
1.627891812126098e-16
2.206391957018809e-16
2.307173571955585e-16
8.977761587654273e-17
2.812771839813503e-16
3.106674084475848e-16
2.320824541437392e-16
2.366481411563057e-16
4.340360879604797e-16
2.066942177553997e-16
5.314863731417152e-17
3.079259699802535e-18
1.122810844344112e-16
5.416257300993254e-17
8.229867233661459e-17
-4.548834363083465e-17
-1.157764547941467e-16
-9.924518272188632e-16
-1.516618360573288e-15
1.300542372824518e-15
2.065734249885006e-15
9.783946717652025e-16
7.392471923633604e-16
6.585471727110316e-16
4.312651264860823e-16
4.111560360137582e-16
5.348960173292893e-16
4.415424667637213e-16
3.999845099209677e-16
4.069545711292999e-16
4.06972551124864e-16
4.630568700496237e-16
3.433355268419464e-16
2.516735842826972e-16
2.960567610050259e-16
3.582126761311164e-16
3.078387021454431e-16
3.644167246394035e-16
2.502436137964487e-16
1.219401312620169e-16
2.148944630714952e-16
2.560016444551186e-16
2.791038730761706e-16
3.020213305835943e-16
1.949638026073292e-16
3.190709492467846e-16
3.691177477689372e-16
2.457280387418293e-16
1.287762027575662e-16
1.84458963131127e-16
1.991450291824781e-16
1.418262171830995e-16
6.828775359114208e-17
4.801036046650385e-17
6.016034269208991e-18
-5.383278413629986e-17
-8.60270634798012e-17
-1.371006134403562e-16
-1.479415351592264e-16
-1.563061083829305e-16
-6.747005072806917e-17
-6.382094702008273e-17
-4.884423691239092e-18
-2.683974311625144e-17
2.129531003168868e-16
2.741059273906784e-16
1.793490077510704e-16
2.255660377342918e-16
2.250046863325903e-16
7.227666130286016e-17
2.760740966796023e-16
2.445905794878927e-16
2.236613161748613e-16
2.755126707448968e-16
4.394469145528976e-16
2.457292964070875e-16
8.386525507403374e-17
1.137782628991345e-17
1.398744128960936e-16
4.717295725150987e-17
1.047727764682768e-16
-5.136416517423439e-17
-9.257502760323022e-17
-9.822719467070208e-16
-1.496455267868256e-15
1.344847729312025e-15
2.066613459876665e-15
9.430044950164421e-16
7.419093100531998e-16
6.692187307599047e-16
4.258345873698261e-16
4.30671071600512e-16
5.418783375484614e-16
4.194023068021086e-16
3.954395505532484e-16
3.864587006110152e-16
4.092657574263939e-16
4.703443075835116e-16
3.548583211151925e-16
2.50538142481253e-16
2.793211300215929e-16
3.456383611865475e-16
3.139812648817479e-16
3.596793287974791e-16
2.077317368254598e-16
1.27275010770478e-16
2.692587742534911e-16
2.716385413686963e-16
2.804772523354309e-16
3.319842868807891e-16
1.9043536898209e-16
2.888498435813313e-16
3.462306440378034e-16
2.527667458920316e-16
1.358011651747064e-16
1.783074970458724e-16
2.31954913646347e-16
1.348337281463733e-16
2.151449177101027e-17
7.580347213751381e-17
3.785398656566556e-17
-9.597311561289329e-17
-9.976387814729485e-17
-1.734902370633474e-16
-1.883523039680294e-16
-1.0795134443082e-16
-5.725975239041989e-17
-7.525560547267046e-17
-8.432711878204428e-18
-5.257064232797896e-17
1.70571013957915e-16
2.51261325005403e-16
1.670053338775592e-16
2.176687561613866e-16
1.996908150411292e-16
5.980992802195336e-17
2.913421094279764e-16
2.315882017580069e-16
2.105425474934007e-16
3.053084566647974e-16
4.745208772300579e-16
2.330354021946249e-16
8.644745726076922e-17
3.318959186691763e-17
1.664070380090402e-16
6.248975982984214e-17
1.35637345708486e-16
-2.989730774870656e-17
-9.205294498901055e-17
-9.74966144550359e-16
-1.450683318834572e-15
1.31559859826685e-15
1.969886759504858e-15
9.586655906019761e-16
7.570479984757104e-16
6.403475154423983e-16
4.521031345107375e-16
4.837237737317193e-16
5.310781486713961e-16
4.128288527544283e-16
4.015617275572617e-16
3.626004502812219e-16
4.018359769420895e-16
5.251726331734649e-16
3.401023019017509e-16
2.491068145808522e-16
2.888473439138103e-16
3.418389797529115e-16
3.254216995847706e-16
3.247861249178519e-16
1.714933271657188e-16
1.486781376135745e-16
3.116342809582378e-16
2.678683007789081e-16
2.377924324541081e-16
3.239994410969528e-16
2.01573457695739e-16
3.034203551703273e-16
3.237750656432982e-16
2.404183561322981e-16
2.063156189790263e-16
1.591338075376645e-16
2.330820161659677e-16
1.250776114059886e-16
4.507322561092726e-17
4.964432977903302e-17
2.417491141934239e-17
-1.254893627066118e-16
-1.30446402958276e-16
-1.811383686954568e-16
-2.167445416230981e-16
-1.160497299590143e-16
-5.245920498356555e-17
-6.290732247789526e-17
-2.720487838579841e-17
-8.636375908244642e-17
1.439182750239511e-16
2.424741102332857e-16
1.361650681313669e-16
2.243736669987062e-16
1.739258924426627e-16
7.279795504010837e-17
3.04305752692696e-16
2.36194170377376e-16
1.689309932634816e-16
3.316067957712933e-16
4.662919666200013e-16
2.049136262618551e-16
1.303147938502196e-16
7.946579030477883e-17
1.85739915821245e-16
7.934115146520593e-17
1.833771940219745e-16
-1.93314335821534e-17
-9.939592698068109e-17
-9.202322011701895e-16
-1.363246708947034e-15
1.254806977257114e-15
1.889840243334263e-15
9.740923747010219e-16
7.485053409462652e-16
6.455076759111185e-16
4.778413352596406e-16
5.081287395022302e-16
5.322555712195399e-16
4.168094467205265e-16
4.006936489128379e-16
3.274623518594108e-16
4.164327302297631e-16
5.621964641211619e-16
3.356949664424674e-16
2.494527335575977e-16
2.765938778930778e-16
3.530529074905684e-16
3.17202229263949e-16
2.596751276382843e-16
1.665768419712484e-16
1.92002279174544e-16
2.865901997652977e-16
2.668791494291987e-16
2.268053967792276e-16
3.039306868916927e-16
2.109059945075702e-16
3.094730414922315e-16
3.013437683260868e-16
2.419670086585265e-16
2.132791771148513e-16
1.805653770293008e-16
2.022092483692891e-16
1.361831406126208e-16
6.683426329553444e-17
1.897928010454431e-17
-1.04308465250049e-17
-1.438991610211407e-16
-1.610370978881795e-16
-1.706882601775814e-16
-2.067125581496903e-16
-1.72057704198547e-16
-6.465665372995089e-17
-3.763221342576952e-17
-2.599741416241868e-17
-9.531815654003894e-17
1.00595147875466e-16
2.388918432514787e-16
1.096238081727375e-16
2.179979075198634e-16
1.807069580013721e-16
3.62896190196219e-17
2.842923206357832e-16
2.438956228416941e-16
1.677757191621883e-16
3.38865039255596e-16
4.578954528783219e-16
1.888429980476372e-16
1.580259177336186e-16
1.274630747088919e-16
2.068864617071505e-16
8.913397568357591e-17
1.869687208750926e-16
8.619413953043688e-18
-5.612226356810926e-17
-8.272234871392994e-16
-1.234702659086837e-15
1.17937030585888e-15
1.805303395359877e-15
1.00984923816616e-15
7.519246475069419e-16
6.274399585459857e-16
5.096707516197396e-16
5.299395111624023e-16
5.259201413581452e-16
3.919635101274085e-16
4.219026707169812e-16
3.323189547389636e-16
3.914336217748515e-16
5.498391581249297e-16
3.415651567645841e-16
2.300206246237507e-16
3.019420244757843e-16
3.561600146033023e-16
2.98300920713186e-16
2.180182095346561e-16
1.634547678597005e-16
2.014517934462871e-16
2.88643913747966e-16
2.553097180361448e-16
2.058678688925196e-16
2.952836126157767e-16
2.374582050129732e-16
2.864432299104241e-16
2.963093446179008e-16
2.379195023432567e-16
1.998501331806308e-16
1.370806132969962e-16
2.11705479896404e-16
1.540277046883719e-16
1.190488679556896e-16
-1.346453844525733e-17
-6.608247868331328e-17
-1.371861288585664e-16
-1.925139424123133e-16
-1.62698228029102e-16
-2.156249395246598e-16
-2.207659535626815e-16
-9.193663319831839e-17
-4.080284606794583e-17
-2.202786024447726e-17
-8.830145353699058e-17
7.493284265681381e-17
2.570713009298085e-16
9.229458645050838e-17
1.829659983619691e-16
2.15415854685863e-16
1.019094195387803e-17
2.717246368566666e-16
2.486223146518826e-16
1.539277429798362e-16
3.500510057281393e-16
4.476094347186939e-16
1.800755996202888e-16
1.797164897524056e-16
1.600782567448423e-16
2.189245069489919e-16
1.434049166406015e-16
2.007468807574861e-16
-9.515070919384504e-18
1.084192717423914e-17
-6.75674172570392e-16
-1.083556745288565e-15
1.084873655204161e-15
1.726716523738084e-15
1.053496292345506e-15
7.766444830879479e-16
6.172835837555445e-16
5.510998748166787e-16
5.211220630606954e-16
4.917018171593543e-16
3.657129028117619e-16
4.423959389717231e-16
3.250428931736779e-16
3.920954674969274e-16
5.012970824504273e-16
3.226491463611255e-16
2.10133827858634e-16
2.858200765396192e-16
3.909023123362699e-16
2.39413241557025e-16
1.9920651013502e-16
1.876380468219674e-16
1.951096935765501e-16
2.83112716265958e-16
2.119328195092459e-16
1.934498446137375e-16
3.110013717165111e-16
2.618385182609349e-16
2.594096080443822e-16
2.424816100311195e-16
2.350853371791144e-16
1.828744578602803e-16
1.431811880755602e-16
2.020282021506065e-16
1.663246828900131e-16
1.537829712227851e-16
-2.020553027245239e-17
-1.213326754818059e-16
-1.314606151473115e-16
-1.73329521464997e-16
-1.289372454850618e-16
-2.155408073377781e-16
-2.845896824482498e-16
-1.540666679920101e-16
-4.85344216103827e-17
-2.152581872003124e-17
-7.232807288211859e-17
6.563937119565282e-17
2.34567805174849e-16
1.135555958456003e-16
1.503481355269872e-16
1.73773147670138e-16
1.978512911550947e-17
2.791068074226074e-16
2.538194491809933e-16
1.293831203398533e-16
3.152529922726687e-16
4.497304960428983e-16
2.311677585743555e-16
2.121217020975576e-16
1.665194671591572e-16
2.39113436723965e-16
1.354947362615529e-16
1.786226874931275e-16
3.475754161483488e-17
1.193773544314168e-16