/*--------------------------------*- C++ -*----------------------------------*\
| =========                 |                                                 |
| \\      /  F ield         | OpenFOAM: The Open Source CFD Toolbox           |
|  \\    /   O peration     | Version:  v1812                                 |
|   \\  /    A nd           | Web:      www.OpenFOAM.com                      |
|    \\/     M anipulation  |                                                 |
\*---------------------------------------------------------------------------*/
FoamFile
{
    version     2.0;
    format      ascii;
    class       surfaceScalarField;
    location    "10000";
    object      phi;
}
// * * * * * * * * * * * * * * * * * * * * * * * * * * * * * * * * * * * * * //

dimensions      [0 3 -1 0 0 0 0];
oriented        oriented;


internalField   nonuniform List<scalar> 
5567
(
0.0007751905060629038
-6.605614417825702e-18
0.0007751905060629036
-8.683213142014785e-20
0.0007751905060629031
3.006984757202034e-19
0.0007751905060629029
2.004708010860355e-19
0.0007751905060629026
2.425447154460349e-19
0.0007751905060629023
1.264161716434455e-19
0.0007751905060629024
1.387461508435483e-19
0.0007751905060629022
1.95252343164656e-19
0.0007751905060629019
1.332866393343665e-19
0.0007751905060629018
1.249390751071779e-19
0.0007751905060629017
3.989434379740269e-20
0.0007751905060629015
3.369808758409149e-19
0.0007751905060629014
-3.032027827685072e-22
0.0007751905060629014
1.052664958513904e-19
0.0007751905060629016
-3.188685925453852e-19
0.0007751905060629013
3.86956321853566e-19
0.0007751905060629011
2.304606040862146e-19
0.0007751905060629013
-1.421291842690942e-19
0.0007751905060629009
3.808701670891317e-19
0.0007751905060629008
1.240726247996061e-19
0.0007751905060629005
1.849882602109858e-19
0.0007751905060629002
5.851313390973397e-19
0.0007751905060628998
3.313107299968285e-19
0.0007751905060629
-9.943257781661657e-20
0.0007751905060628996
3.615078344672318e-19
0.0007751905060629
-3.311992343822239e-19
0.0007751905060629004
-5.826349129714094e-19
0.0007751905060629005
-1.830670274035977e-19
0.0007751905060629007
-7.919245772569169e-20
0.0007751905060629008
-3.162039460607314e-19
0.0007751905060629004
5.330652896369066e-19
0.0007751905060629005
-5.077118369784601e-20
0.0007751905060629007
-2.937812478867064e-19
0.000775190506062901
-2.559527556147858e-19
0.0007751905060629009
9.99102276141128e-21
0.0007751905060629011
-1.644331986568339e-19
0.0007751905060629008
2.991952355433105e-19
0.0007751905060629004
4.086305388545559e-19
0.0007751905060629004
-1.002606254085704e-19
0.0007751905060629009
-4.483185095459476e-19
0.0007751905060629013
-4.343215808216756e-19
0.0007751905060629014
-4.214216703496799e-20
0.0007751905060629016
-2.562953676311996e-19
0.0007751905060629017
-2.462661489456288e-19
0.0007751905060629017
8.55742994568493e-20
0.0007751905060629017
-6.292199277125e-21
0.0007751905060629022
-6.36852118537349e-19
0.0007751905060629028
-4.196949097928781e-19
0.0007751905060629024
3.195057818673519e-19
0.0007751905060629026
-1.113946204811319e-19
0.0007751905060629023
2.847045627628302e-19
0.0007751905060629021
3.216200195959704e-19
0.0007751905060629022
1.096854615707467e-19
0.000775190506062902
1.353546182877483e-19
0.0007751905060629021
-6.954939219044736e-20
0.0007751905060629021
-1.199011353884514e-19
0.0007751905060629021
2.757466880597552e-20
0.000775190506062902
9.565761048900108e-20
0.0007751905060629015
4.884899427261605e-19
0.0007751905060629019
-4.659518020323185e-19
0.0007751905060629017
1.195390541691594e-19
0.0007751905060629018
-1.397601095721607e-19
0.0007751905060629022
-3.586459146790382e-19
0.0007751905060629024
-2.515256715051609e-19
0.0007751905060629032
-7.422741752782758e-19
3.042249766166222e-19
0.000833077439679216
-5.618420600181989e-18
0.0008330774396792166
-1.080382962402265e-18
0.0008330774396792167
-1.113712677734657e-19
0.0008330774396792166
2.559869020850201e-19
0.000833077439679216
7.512025178749511e-19
0.000833077439679216
1.222839631158776e-19
0.000833077439679216
2.392482390486643e-19
0.0008330774396792159
2.927092770654545e-19
0.000833077439679216
-1.516815991189935e-19
0.000833077439679216
1.48651545449955e-19
0.0008330774396792156
3.379891009031368e-19
0.0008330774396792153
6.422039205124504e-19
0.0008330774396792153
6.838212573772864e-20
0.0008330774396792156
-6.619713498741041e-20
0.0008330774396792158
-6.527451378966171e-19
0.0008330774396792153
8.748830808095985e-19
0.0008330774396792152
4.283830888901011e-19
0.000833077439679215
1.534911126000535e-19
0.000833077439679215
4.529644845178221e-19
0.0008330774396792148
3.874167045285048e-19
0.0008330774396792148
-5.45199684462457e-20
0.0008330774396792141
1.441326195918489e-18
0.0008330774396792143
1.930926826750139e-19
0.0008330774396792139
2.341485550270981e-19
0.0008330774396792138
5.021163754216062e-19
0.0008330774396792147
-1.12190225835776e-18
0.0008330774396792146
-6.195464384013961e-19
0.0008330774396792144
-1.519530949088428e-19
0.0008330774396792148
-3.748843456841038e-19
0.000833077439679215
-6.628569478608722e-19
0.0008330774396792147
8.531432477440361e-19
0.000833077439679215
-2.481592844294501e-19
0.0008330774396792153
-7.282874476292343e-19
0.0008330774396792158
-6.402321267007889e-19
0.0008330774396792149
7.241698104314202e-19
0.0008330774396792148
6.321407939093211e-20
0.0008330774396792152
-2.344325545849684e-19
0.0008330774396792146
1.098058156291228e-18
0.0008330774396792147
-4.946046649672969e-19
0.0008330774396792153
-9.007467314419563e-19
0.0008330774396792159
-1.002072309988534e-18
0.0008330774396792154
4.888746852418639e-19
0.0008330774396792157
-4.499131537524298e-19
0.0008330774396792159
-7.176013581861319e-19
0.0008330774396792166
-6.56759926619516e-19
0.0008330774396792164
2.484615789008831e-19
0.0008330774396792165
-8.961958303625493e-19
0.0008330774396792167
-4.479671513024597e-19
0.000833077439679217
1.093214252765339e-19
0.0008330774396792167
-2.814458540624807e-20
0.0008330774396792162
9.718810044132564e-19
0.0008330774396792164
3.331564004802926e-19
0.0008330774396792171
-4.196543314505181e-19
0.0008330774396792161
1.131413627704962e-18
0.000833077439679216
4.270673831748761e-20
0.0008330774396792161
-4.760682637182078e-19
0.0008330774396792162
4.321974662007489e-20
0.0008330774396792162
1.120001117781871e-19
0.0008330774396792157
9.599696787110618e-19
0.0008330774396792161
-8.480208601982826e-19
0.0008330774396792157
3.908141256326401e-19
0.000833077439679216
-5.4192498507287e-19
0.0008330774396792163
-6.21066308476259e-19
0.0008330774396792165
-4.680770991697648e-19
0.0008330774396792178
-1.964230449493327e-18
1.458026330423913e-18
0.0008970800221991773
-4.624245491452512e-18
0.0008970800221991791
-3.008065092051696e-18
0.0008970800221991795
-7.072337698410168e-19
0.0008970800221991786
1.213635780656384e-18
0.0008970800221991781
1.025315118033539e-18
0.0008970800221991781
8.129609491914151e-20
0.0008970800221991788
-2.110324058881825e-19
0.0008970800221991786
4.592019095375417e-19
0.0008970800221991787
-4.494683759492708e-19
0.000897080022199179
-2.965541924704897e-19
0.0008970800221991779
1.480962480699595e-18
0.000897080022199178
6.329286550571431e-19
0.0008970800221991783
-3.777263921722706e-19
0.0008970800221991787
-3.271920311067543e-19
0.0008970800221991788
-7.866343087636082e-19
0.0008970800221991779
1.796928921192861e-18
0.000897080022199178
4.373737686085776e-19
0.0008970800221991788
-6.17402321565738e-19
0.0008970800221991786
6.195576295061677e-19
0.0008970800221991778
1.194627962123671e-18
0.0008970800221991769
7.334596937561287e-19
0.000897080022199177
1.480401636512498e-18
0.0008970800221991766
5.150386386382718e-19
0.000897080022199177
-9.260550612669433e-20
0.0008970800221991766
9.266578023844535e-19
0.000897080022199176
-5.110712772145721e-19
0.0008970800221991768
-1.586599079262448e-18
0.000897080022199177
-4.987324737452936e-19
0.0008970800221991775
-6.91689114156744e-19
0.0008970800221991776
-9.016951884863135e-19
0.0008970800221991774
1.134214540994827e-18
0.0008970800221991777
-5.03839022755306e-19
0.0008970800221991784
-1.577230656630904e-18
0.0008970800221991774
6.522248653455991e-19
0.0008970800221991777
2.349761511995025e-19
0.0008970800221991775
3.405771733900499e-19
0.0008970800221991771
1.132953988806385e-19
0.0008970800221991775
6.757548844259589e-19
0.0008970800221991773
-3.741845675668788e-19
0.0008970800221991774
-8.219754931452898e-19
0.0008970800221991792
-2.987881018695938e-18
0.0008970800221991786
1.161676207864435e-18
0.0008970800221991788
-5.809558156108839e-19
0.0008970800221991783
-4.357076554721682e-19
0.0008970800221991781
-2.441342395103701e-19
0.0008970800221991788
-4.581334317502599e-19
0.0008970800221991788
-1.138697382296299e-18
0.0008970800221991799
-1.225955358334602e-18
0.0008970800221991791
8.483708860469802e-19
0.0008970800221991793
-2.860771501857846e-19
0.000897080022199179
1.430724285343912e-18
0.000897080022199179
3.547528383574607e-19
0.0008970800221991787
-3.657715861061136e-21
0.000897080022199179
7.610933306387526e-19
0.0008970800221991783
7.848207372085687e-19
0.0008970800221991794
-1.791097839455283e-18
0.0008970800221991783
1.288933708420587e-18
0.0008970800221991783
3.582080110514477e-20
0.000897080022199178
1.244194473225853e-18
0.0008970800221991775
-2.195358084154433e-19
0.0008970800221991774
3.632547327794927e-19
0.0008970800221991775
-6.420814742632382e-19
0.0008970800221991778
-8.848567830667715e-19
0.0008970800221991792
-2.012953272128631e-18
0.0008970800221991795
-2.16910140344231e-18
2.431322524577386e-18
0.0009942268281855808
-2.764559153135823e-18
0.0009942268281855804
-2.586500619638153e-18
0.0009942268281855815
-2.000683121582912e-18
0.0009942268281855832
-7.679600599076402e-19
0.0009942268281855832
1.06952465609581e-18
0.0009942268281855832
1.904674640006298e-19
0.000994226828185583
3.181473457028493e-19
0.000994226828185583
4.215233884525811e-19
0.0009942268281855834
-1.105280239439942e-18
0.0009942268281855828
1.707958968977781e-19
0.0009942268281855837
6.773012203644341e-19
0.0009942268281855837
7.232349084509692e-19
0.0009942268281855832
5.994266116581985e-20
0.0009942268281855834
-2.583325651304742e-19
0.0009942268281855832
-8.723978309432015e-19
0.000994226828185583
1.994014620970784e-18
0.0009942268281855832
4.812863900905546e-19
0.0009942268281855819
5.396102970997878e-19
0.0009942268281855826
-7.633600311688581e-20
0.0009942268281855834
3.028912523112129e-19
0.000994226828185583
1.030188881908699e-18
0.0009942268281855824
2.45296289361543e-18
0.0009942268281855819
1.017572636085789e-18
0.0009942268281855826
-8.211397030283919e-19
0.0009942268281855824
1.156819896926925e-18
0.0009942268281855832
-1.388029376073127e-18
0.0009942268281855821
-7.352931043727315e-19
0.0009942268281855815
2.703506163046966e-19
0.0009942268281855821
-1.158486763309221e-18
0.0009942268281855824
-1.397648765458559e-18
0.0009942268281855821
1.339727683832119e-18
0.0009942268281855826
-8.700955215687186e-19
0.0009942268281855806
5.290315009411658e-20
0.0009942268281855824
-8.295791698663087e-19
0.0009942268281855824
1.315815196234593e-19
0.0009942268281855819
8.335500418848169e-19
0.0009942268281855819
9.431920856016669e-20
0.0009942268281855819
6.819539997759545e-19
0.0009942268281855817
-3.711931068188842e-19
0.000994226828185583
-1.829492851179353e-18
0.0009942268281855817
-1.794950232605345e-18
0.000994226828185583
-9.329546147001795e-20
0.0009942268281855832
-7.873882188956805e-19
0.000994226828185583
-3.765321916043209e-19
0.000994226828185583
-1.069394834612516e-19
0.0009942268281855837
-1.102821284264821e-18
0.0009942268281855834
-1.352213675033136e-18
0.0009942268281855821
1.341116082132205e-19
0.0009942268281855834
-3.39746800499609e-19
0.0009942268281855834
-6.107542375980615e-19
0.0009942268281855832
1.827198419082191e-18
0.0009942268281855837
4.190364627359794e-19
0.0009942268281855834
2.908884831509191e-19
0.0009942268281855832
9.269655961129773e-19
0.0009942268281855839
3.062629745268235e-19
0.0009942268281855813
6.295568682240491e-19
0.0009942268281855819
5.921777565561941e-19
0.0009942268281855821
-1.726983673899074e-19
0.0009942268281855817
1.542277449545708e-18
0.0009942268281855824
-1.003863029009691e-18
0.0009942268281855824
3.03893478831535e-19
0.0009942268281855824
-7.257824859719218e-19
0.0009942268281855832
-1.617445889920161e-18
0.0009942268281855815
-4.760737219702279e-19
0.0009942268281855839
-4.322146569749215e-18
3.439334422233286e-18
0.001310085873446379
-1.946237298159168e-19
0.001310085873446379
-3.34802206104959e-18
0.00131008587344638
-3.093372494293163e-18
0.001310085873446381
-1.768642782482403e-18
0.001310085873446382
5.431171323119501e-19
0.001310085873446382
-2.295473873274752e-19
0.001310085873446383
-1.333120462713066e-20
0.001310085873446383
1.874601558741221e-19
0.001310085873446383
-1.195389707652753e-18
0.001310085873446381
1.632617506106067e-18
0.001310085873446384
-2.036172454036619e-18
0.001310085873446383
1.542632516528121e-18
0.001310085873446383
-1.96336373696106e-19
0.001310085873446384
-8.827966171809532e-19
0.001310085873446383
-1.76710070990512e-19
0.001310085873446382
2.835078280485373e-18
0.001310085873446383
4.923052489174187e-19
0.001310085873446382
1.090733513548303e-18
0.00131008587344638
1.363937272225147e-18
0.00131008587344638
5.881632954252411e-19
0.00131008587344638
1.561174412756489e-18
0.00131008587344638
1.896017954648177e-18
0.00131008587344638
1.008986732073829e-18
0.001310085873446379
7.46866572017355e-19
0.001310085873446379
1.173903261634196e-18
0.001310085873446379
-1.346031965703379e-18
0.001310085873446379
-1.104694585714292e-18
0.00131008587344638
-1.099904373322985e-18
0.00131008587344638
-5.232752859265889e-19
0.001310085873446381
-2.46695341817695e-18
0.001310085873446379
2.857452203938363e-18
0.001310085873446382
-3.514468623356131e-18
0.001310085873446379
2.813949726273564e-18
0.001310085873446382
-3.061798555708679e-18
0.001310085873446379
2.276603315086068e-18
0.001310085873446381
-9.291974977060072e-19
0.001310085873446379
2.10171565587419e-18
0.00131008587344638
-5.246221312213414e-19
0.00131008587344638
-2.811536876765389e-21
0.001310085873446381
-2.477764494885395e-18
0.001310085873446381
-2.116267070821931e-18
0.001310085873446381
-1.461794882447136e-19
0.001310085873446382
-1.358877409682543e-18
0.001310085873446382
-2.151390758154493e-19
0.001310085873446382
-4.4031331875705e-20
0.001310085873446382
-1.946817905698483e-18
0.001310085873446382
-1.250217977210208e-18
0.001310085873446382
4.603590250780237e-19
0.001310085873446382
-2.487563373531462e-19
0.001310085873446382
-1.053112168994111e-18
0.001310085873446382
2.270929413605296e-18
0.001310085873446382
1.693789298822391e-19
0.001310085873446382
6.679742582797798e-19
0.00131008587344638
2.762069526781649e-18
0.00131008587344638
7.375280990936269e-19
0.00131008587344638
-1.632564105929577e-19
0.00131008587344638
9.505386117199333e-19
0.001310085873446382
-1.543985210272857e-18
0.001310085873446381
1.979936568144834e-18
0.001310085873446381
-8.99613019065007e-19
0.00131008587344638
6.28785665658506e-19
0.00131008587344638
-1.504533470157588e-19
0.00131008587344638
-2.025550586223542e-18
0.001310085873446381
-1.029684355037953e-18
0.001310085873446382
-5.548854945805005e-18
4.212371395189487e-18
0.002139148820355962
3.497358956149324e-18
0.002139148820355962
-4.26797299789874e-18
0.002139148820355963
-3.707185014298581e-18
0.002139148820355965
-3.317048966034556e-18
0.002139148820355966
-1.056830129996985e-18
0.002139148820355965
1.922180260695211e-20
0.002139148820355966
-1.837770224806128e-20
0.002139148820355969
-2.949101545424125e-18
0.002139148820355968
-1.149349009296349e-19
0.00213914882035597
-5.962494656081236e-19
0.002139148820355968
-1.009670924851248e-19
0.002139148820355968
2.398221155059764e-18
0.002139148820355969
-1.932687042561682e-18
0.002139148820355971
-2.25945407356687e-18
0.002139148820355968
1.302300652087522e-18
0.002139148820355968
3.711877831540608e-18
0.002139148820355969
2.143786627818149e-19
0.002139148820355966
3.485839481383702e-18
0.002139148820355968
-5.207995803967493e-19
0.002139148820355968
4.077111929931671e-19
0.002139148820355965
4.459191154538383e-18
0.002139148820355966
1.39827189160765e-18
0.002139148820355963
3.122472707864582e-18
0.002139148820355963
1.858692981081686e-18
0.002139148820355964
1.936324400034706e-19
0.002139148820355964
-1.966235306036384e-18
0.002139148820355965
-3.101002605079554e-18
0.002139148820355964
4.850571770752471e-19
0.002139148820355966
-2.08362039851574e-18
0.002139148820355965
-1.924070426879342e-18
0.002139148820355967
6.569725283412749e-19
0.002139148820355963
7.654429716444194e-19
0.002139148820355966
-5.797772178896489e-19
0.002139148820355965
-1.144463513672988e-18
0.002139148820355965
1.902196222998572e-18
0.002139148820355965
-4.144552001983676e-19
0.002139148820355966
4.137694226794398e-19
0.002139148820355965
4.685362581861981e-19
0.002139148820355963
1.682713785989177e-18
0.002139148820355964
-3.122470575061801e-18
0.002139148820355966
-4.367081881526453e-18
0.002139148820355964
1.976923594124793e-18
0.002139148820355965
-2.101681966859819e-18
0.002139148820355966
-1.507532283182601e-18
0.002139148820355964
2.259355831978118e-18
0.002139148820355965
-2.974729569268219e-18
0.002139148820355965
-1.417872994671188e-18
0.002139148820355965
7.204172945051251e-19
0.002139148820355965
-6.173887785556872e-19
0.002139148820355966
-1.891313173645583e-18
0.002139148820355968
8.19194328386318e-19
0.002139148820355965
2.474645504268433e-18
0.002139148820355965
9.798834344935636e-19
0.002139148820355965
2.250272424242872e-18
0.002139148820355967
-6.434893111682167e-19
0.002139148820355965
2.139434425346292e-18
0.002139148820355965
5.13572521566886e-19
0.002139148820355966
-2.634102797101208e-18
0.002139148820355964
4.342666262550416e-18
0.002139148820355963
-3.037965937550073e-19
0.002139148820355964
-8.297968219108388e-19
0.002139148820355964
3.147752199747248e-19
0.002139148820355963
-7.615727328848271e-19
0.002139148820355964
-1.729750804955979e-18
0.002139148820355968
-9.714881969757138e-18
6.550390525440206e-18
0.003474106448633286
6.879999529561499e-18
0.003474106448633287
-5.51995254375387e-18
0.00347410644863329
-6.761136845422286e-18
0.00347410644863329
-3.857587360919186e-18
0.003474106448633291
-1.767411069576347e-18
0.003474106448633295
-4.702311375109071e-18
0.003474106448633296
-1.23673107623565e-19
0.003474106448633294
-8.174588494771006e-19
0.003474106448633297
-4.05676940778994e-18
0.003474106448633296
1.351489056232232e-18
0.003474106448633295
2.26695429124312e-19
0.003474106448633297
9.6059334358949e-19
0.003474106448633297
-1.940284287967674e-18
0.003474106448633297
-2.253962167565986e-18
0.003474106448633297
3.373364101818785e-19
0.003474106448633296
5.062068453055528e-18
0.003474106448633296
1.000553101620384e-18
0.003474106448633297
1.868807834241209e-18
0.003474106448633294
3.012211988643587e-18
0.003474106448633293
1.131771445375791e-18
0.003474106448633295
1.867791537998583e-18
0.003474106448633292
5.340281278288431e-18
0.003474106448633294
6.914289771130283e-19
0.003474106448633294
2.329186534935646e-18
0.003474106448633292
2.113936146998536e-18
0.003474106448633293
-2.52837901545431e-18
0.003474106448633292
-2.619784554189938e-18
0.003474106448633293
-5.530845180825898e-19
0.003474106448633295
-4.026347069572258e-18
0.003474106448633283
1.03738989452171e-17
0.003474106448633291
-7.212506041295193e-18
0.003474106448633294
-2.078343287717828e-18
0.00347410644863329
2.632838650508051e-18
0.00347410644863329
-5.613596848359641e-19
0.003474106448633293
-1.588908962553332e-18
0.00347410644863329
2.794213495793396e-18
0.00347410644863329
2.493908779846545e-19
0.00347410644863329
2.604538270329279e-19
0.003474106448633292
-4.33783488405816e-19
0.003474106448633292
-2.944932044359928e-18
0.003474106448633291
-3.199179127118365e-18
0.003474106448633294
-4.915019158792982e-19
0.003474106448633294
-1.47065254336317e-18
0.003474106448633291
2.544060428878037e-19
0.003474106448633294
6.854285130191219e-20
0.003474106448633294
-3.662617239363678e-18
0.003474106448633295
-2.587181008765512e-18
0.003474106448633296
3.223526700238036e-19
0.003474106448633296
-1.519044654238862e-19
0.003474106448633294
-2.503992054527158e-19
0.003474106448633291
4.057735074127742e-18
0.003474106448633294
-1.320952781304543e-19
0.003474106448633293
1.566519688099619e-18
0.003474106448633294
1.597588964609915e-18
0.003474106448633289
4.384652074241808e-18
0.003474106448633291
-5.764007106968322e-19
0.003474106448633292
1.258016494739433e-19
0.003474106448633289
3.955665246325701e-19
0.003474106448633291
1.725545766150427e-18
0.003474106448633291
1.755609851317403e-19
0.003474106448633288
1.421550421359346e-18
0.003474106448633287
1.209761416423966e-18
0.003474106448633291
-4.342291662435336e-18
0.003474106448633292
-2.857570994971205e-18
0.003474106448633291
-8.298413750733001e-18
8.267744498340588e-18
0.004751415315364145
2.872045152069761e-19
0.004751415315364139
-8.001544197159798e-20
0.004751415315364138
-5.92226121221609e-18
0.004751415315364139
-4.749138877473773e-18
0.004751415315364141
-5.286882734565921e-18
0.004751415315364143
-6.188397406988563e-18
0.004751415315364146
-1.365864238197571e-18
0.004751415315364146
-1.706514651316579e-18
0.004751415315364144
-2.784040951190229e-18
0.004751415315364146
-1.840309517713331e-19
0.004751415315364146
-6.124225543785855e-19
0.004751415315364147
8.58372400816707e-19
0.004751415315364148
-3.232624554939267e-18
0.004751415315364149
-3.506806711398994e-18
0.004751415315364147
8.822748411702673e-19
0.004751415315364147
5.581353540903223e-18
0.004751415315364152
-3.7604130214854e-18
0.004751415315364146
8.103270895084896e-18
0.004751415315364145
4.472597753687896e-18
0.004751415315364145
1.686705923358092e-18
0.004751415315364145
1.021810025177771e-18
0.004751415315364144
6.827309058676554e-18
0.004751415315364142
2.233916542222449e-18
0.004751415315364144
1.18337224441295e-18
0.004751415315364142
3.862653221351525e-18
0.004751415315364143
-4.103025449539002e-18
0.004751415315364143
-3.861984330786275e-18
0.004751415315364143
2.501425068448792e-19
0.004751415315364146
-5.811829567359382e-18
0.004751415315364155
-8.129874051944673e-19
0.004751415315364144
5.616902888058252e-18
0.004751415315364144
-2.100531125252559e-18
0.004751415315364141
4.103773735636816e-18
0.004751415315364142
1.104568970588561e-19
0.004751415315364141
-1.277269120084653e-18
0.004751415315364144
1.217041542787975e-18
0.004751415315364142
1.716686199293248e-18
0.004751415315364142
-1.236321593994536e-19
0.004751415315364142
-6.574698740985824e-19
0.004751415315364142
-2.197325796791117e-18
0.004751415315364139
-9.017079933087737e-19
0.00475141531536414
-1.012494238461062e-18
0.00475141531536414
-1.318328855311352e-18
0.004751415315364141
-1.414204806543551e-18
0.004751415315364143
-1.643120411079522e-18
0.004751415315364142
-2.855982046604153e-18
0.004751415315364139
-5.423908261928566e-19
0.004751415315364144
-3.378027155270965e-18
0.004751415315364145
-5.574971845017366e-19
0.004751415315364142
2.423739048776978e-18
0.004751415315364143
3.625394325570978e-18
0.004751415315364142
1.774022896044464e-18
0.00475141531536414
3.509058034333236e-18
0.004751415315364139
2.182509991353117e-18
0.004751415315364139
5.585736753391953e-18
0.004751415315364137
-8.881846634666394e-20
0.004751415315364138
-5.916906960730045e-19
0.004751415315364139
-2.767876611348496e-19
0.004751415315364139
2.007853167973221e-18
0.004751415315364137
1.559535218386304e-18
0.004751415315364136
1.923414259727193e-18
0.004751415315364137
2.65767507866854e-19
0.004751415315364139
-6.371694903846505e-18
0.004751415315364139
-3.207304983630232e-18
0.004751415315364139
-8.26512922914109e-18
8.579459629346694e-18
0.005506351929665558
7.376099750821138e-18
0.005506351929665563
-5.763559534819456e-18
0.005506351929665564
-7.161873111106491e-18
0.005506351929665566
-7.022717762170964e-18
0.005506351929665567
-5.692943203349174e-18
0.005506351929665565
-4.820196620917487e-18
0.005506351929665568
-2.99872292817111e-18
0.005506351929665573
-6.562073677407368e-18
0.005506351929665573
-3.096414233623933e-18
0.005506351929665568
4.914702854832095e-18
0.005506351929665569
-8.505912167648977e-19
0.005506351929665572
-1.292505504097036e-18
0.005506351929665578
-9.050867438957639e-18
0.005506351929665572
1.396049317881731e-18
0.005506351929665571
1.911589002607768e-18
0.00550635192966557
6.654342986287641e-18
0.005506351929665565
1.750650320349605e-18
0.005506351929665572
1.92400493836288e-18
0.005506351929665569
6.709455279282591e-18
0.005506351929665572
-1.521581089860851e-18
0.005506351929665565
7.35794547617881e-18
0.005506351929665568
5.016732432221501e-18
0.005506351929665572
-3.521127523786179e-18
0.005506351929665573
1.297459115667008e-18
0.005506351929665568
8.311316689220979e-18
0.005506351929665567
-2.813615423734917e-18
0.005506351929665566
-3.609416781500374e-18
0.005506351929665575
-7.435954793029194e-18
0.00550635192966557
-1.299158289401906e-19
0.005506351929665567
6.623433509467048e-19
0.005506351929665576
-1.433039362036114e-18
0.005506351929665571
2.674164104099483e-18
0.005506351929665568
5.616921845086273e-18
0.005506351929665571
-1.431874838902753e-18
0.005506351929665573
-5.025683633455301e-18
0.005506351929665566
8.512807012067826e-18
0.005506351929665567
7.636183485262167e-19
0.005506351929665568
-7.043396787809656e-19
0.005506351929665565
1.346596304847301e-18
0.005506351929665567
-3.257234721284493e-18
0.005506351929665567
-1.010584427180967e-18
0.005506351929665575
-8.08871586016668e-18
0.005506351929665574
-3.614304103515661e-19
0.005506351929665566
5.659977568226982e-18
0.005506351929665572
-6.702761763647526e-18
0.005506351929665572
-2.793496819019819e-18
0.005506351929665572
-2.223845460701864e-18
0.005506351929665569
1.259324326311558e-18
0.005506351929665568
2.648626306263024e-19
0.005506351929665567
2.574527179126945e-18
0.005506351929665568
3.201953033312558e-18
0.005506351929665566
3.700689224285524e-18
0.00550635192966557
-1.019586777748212e-19
0.005506351929665565
7.199983913062002e-18
0.005506351929665564
5.925999875823336e-18
0.005506351929665563
7.629929456559558e-19
0.005506351929665568
-5.457110222338988e-18
0.005506351929665567
1.037220045068455e-18
0.005506351929665563
6.200729256618214e-18
0.005506351929665565
7.357630801890398e-20
0.005506351929665568
-1.858058199503541e-18
0.005506351929665567
1.276351585302043e-18
0.005506351929665565
-2.706509028858908e-18
0.005506351929665563
-1.703929276901546e-18
0.005506351929665564
-8.631542074375359e-18
8.239291377469648e-18
0.005836530413183353
5.170661178575996e-18
0.005836530413183359
-1.126263777045376e-17
0.005836530413183352
-2.039257770651948e-18
0.005836530413183353
-6.86161941586435e-18
0.005836530413183363
-1.53520961854169e-17
0.005836530413183352
5.802399582818931e-18
0.005836530413183352
-2.990467855538308e-18
0.005836530413183353
-7.586368359537662e-18
0.005836530413183348
1.708805321079354e-18
0.005836530413183353
-9.214402033040531e-19
0.005836530413183364
-1.116850642402286e-17
0.005836530413183353
9.715358768194049e-18
0.005836530413183346
-2.16909288945662e-18
0.005836530413183352
-4.73557742118055e-18
0.005836530413183353
6.259063961850741e-19
0.005836530413183355
5.153683163819344e-18
0.005836530413183354
2.839751009939787e-18
0.005836530413183353
2.553063711085195e-18
0.005836530413183353
6.472996577309172e-18
0.005836530413183346
5.23922419553069e-18
0.005836530413183357
-3.949708546042607e-18
0.005836530413183352
9.74813201405831e-18
0.005836530413183345
3.001836180060288e-18
0.005836530413183346
1.580688184013921e-18
0.005836530413183353
6.0647956176126e-19
0.005836530413183353
-3.444410743403669e-18
0.005836530413183352
-3.360349647232857e-18
0.005836530413183347
-2.315445352638976e-18
0.005836530413183353
-5.121787378601107e-18
0.005836530413183353
-1.35669628250215e-19
0.00583653041318335
3.223126481006169e-18
0.005836530413183356
-3.200509591023819e-18
0.005836530413183357
3.386956402124071e-18
0.005836530413183355
7.539179738459096e-19
0.005836530413183349
5.764994034590329e-19
0.005836530413183356
2.859320465274366e-18
0.005836530413183355
1.565458540635596e-18
0.005836530413183355
-5.243737641000628e-19
0.005836530413183355
2.37238475854449e-19
0.005836530413183353
-1.531412978806968e-18
0.005836530413183354
-1.744704157352334e-18
0.00583653041318335
-2.967468217656783e-18
0.005836530413183348
1.19937559753406e-18
0.005836530413183352
3.946734121771228e-19
0.005836530413183346
1.489307463886586e-18
0.005836530413183345
-2.388081594254441e-18
0.005836530413183346
-3.848934525903519e-18
0.005836530413183352
-4.645578472524937e-18
0.005836530413183352
1.23167572941543e-18
0.005836530413183352
1.889221063494934e-18
0.00583653041318335
6.146065993712152e-18
0.00583653041318335
4.457952297845507e-18
0.005836530413183346
3.994522604805087e-18
0.005836530413183351
2.112208187341685e-18
0.005836530413183351
5.45841583376722e-18
0.005836530413183351
2.546033630283481e-19
0.005836530413183346
2.530457489215352e-20
0.005836530413183355
-8.080799394397035e-18
0.005836530413183347
1.401432639082576e-17
0.005836530413183349
-1.462821372695677e-18
0.005836530413183355
-7.957413143068058e-18
0.005836530413183342
1.386422204726401e-17
0.005836530413183348
-7.70064328969259e-18
0.005836530413183359
-1.257274848169962e-17
0.005836530413183348
2.111053774460698e-18
5.361950782541452e-18
0.00600056394397919
1.912770319493823e-18
0.006000563943979184
-6.226417214749158e-18
0.006000563943979188
-5.584990543255859e-18
0.006000563943979182
-6.035644512364557e-19
0.006000563943979176
-9.430760093745304e-18
0.006000563943979187
-5.985061224902717e-18
0.006000563943979181
3.555345544720551e-18
0.006000563943979182
-8.357269281056541e-18
0.006000563943979187
-3.649941583869648e-18
0.006000563943979186
1.054842302826292e-20
0.006000563943979175
-3.915920726936041e-19