/*--------------------------------*- C++ -*----------------------------------*\
| =========                 |                                                 |
| \\      /  F ield         | OpenFOAM: The Open Source CFD Toolbox           |
|  \\    /   O peration     | Version:  v1812                                 |
|   \\  /    A nd           | Web:      www.OpenFOAM.com                      |
|    \\/     M anipulation  |                                                 |
\*---------------------------------------------------------------------------*/
FoamFile
{
    version     2.0;
    format      ascii;
    class       volVectorField;
    location    "10000";
    object      U;
}
// * * * * * * * * * * * * * * * * * * * * * * * * * * * * * * * * * * * * * //

dimensions      [0 1 -1 0 0 0 0];


internalField   nonuniform List<vector> 
2838
(
(0.6451256994199981 -2.096103120618003e-16 2.78381819005052e-05)
(0.645125699419996 -4.695017120770002e-17 2.783850134449616e-05)
(0.6451256994199964 1.158269479993936e-17 2.783857995081542e-05)
(0.6451256994199956 -5.096440126738532e-19 2.783853088903303e-05)
(0.6451256994199962 -4.780398966583122e-18 2.783858189335894e-05)
(0.6451256994199951 5.837820407669188e-18 2.783851610617541e-05)
(0.645125699419996 -1.627347769876386e-17 2.783856520131312e-05)
(0.645125699419995 -9.619851826494659e-18 2.783849016173134e-05)
(0.6451256994199955 9.362870636979355e-18 2.783854237765716e-05)
(0.6451256994199949 1.462650980895377e-17 2.783846078638447e-05)
(0.6451256994199951 7.584488708961276e-18 2.783851875031268e-05)
(0.6451256994199948 -1.639802163812662e-18 2.783843155145475e-05)
(0.6451256994199943 -1.504557858756372e-17 2.783849670136588e-05)
(0.6451256994199949 2.305939012118881e-17 2.783840393535159e-05)
(0.6451256994199946 -2.911269205992041e-17 2.783847716119748e-05)
(0.6451256994199951 1.800133965342145e-17 2.78383784199236e-05)
(0.6451256994199941 4.201863660991913e-17 2.78384603895569e-05)
(0.645125699419995 -8.612371221147709e-18 2.783835503496645e-05)
(0.645125699419994 -9.893130873324949e-18 2.783844635162324e-05)
(0.6451256994199944 -1.145272257376121e-17 2.783833361585968e-05)
(0.6451256994199939 1.053693275264812e-17 2.783843489467776e-05)
(0.6451256994199941 4.831935140640557e-17 2.783831392366542e-05)
(0.6451256994199933 3.076711903922971e-17 2.783842583036566e-05)
(0.6451256994199938 -6.102676083797851e-17 2.783829570027493e-05)
(0.645125699419993 2.603944024466441e-17 2.783841897233903e-05)
(0.6451256994199934 2.198435989527405e-18 2.783827869265772e-05)
(0.6451256994199934 -3.429764175074308e-17 2.783841415269426e-05)
(0.6451256994199942 -2.409488143145612e-17 2.783826266232984e-05)
(0.6451256994199938 -1.127081436774667e-18 2.783841122838083e-05)
(0.6451256994199945 -1.667736022698761e-18 2.783824738771757e-05)
(0.6451256994199938 -1.519801184271937e-17 2.783841008294596e-05)
(0.6451256994199938 4.176680830194153e-17 2.783823266316812e-05)
(0.6451256994199941 1.049327392913284e-17 2.783841062630038e-05)
(0.6451256994199941 -7.546316088603444e-17 2.783821829637786e-05)
(0.6451256994199948 -1.303550956957562e-17 2.783841279383311e-05)
(0.6451256994199943 6.979705902612676e-17 2.783820410513792e-05)
(0.6451256994199945 2.187454846670449e-17 2.783841654550286e-05)
(0.6451256994199939 -5.903140870954838e-17 2.783818991375657e-05)
(0.6451256994199938 -2.875242677217022e-17 2.783842186529528e-05)
(0.645125699419994 3.023050981525087e-17 2.783817554933169e-05)
(0.6451256994199945 -1.34315645543951e-18 2.783842876113843e-05)
(0.6451256994199948 -3.385045304442436e-18 2.783816083793833e-05)
(0.6451256994199945 -9.547799083070497e-18 2.783843726532991e-05)
(0.6451256994199951 -4.863089824157374e-19 2.783814560081229e-05)
(0.6451256994199949 4.326664283887534e-18 2.783844743533802e-05)
(0.645125699419995 -1.598082275086643e-17 2.783812965075798e-05)
(0.645125699419995 3.759099774011445e-18 2.783845935455264e-05)
(0.6451256994199958 -3.838568998399286e-17 2.783811278935841e-05)
(0.6451256994199958 -5.515331112952571e-17 2.783847313203415e-05)
(0.6451256994199958 2.900401544057066e-17 2.783809480646362e-05)
(0.6451256994199954 6.51141014081664e-17 2.783848889896842e-05)
(0.6451256994199953 2.449231696166666e-17 2.78380754852914e-05)
(0.6451256994199956 -2.39408813136712e-17 2.783850679667467e-05)
(0.6451256994199951 -5.02599312114291e-17 2.783805462098321e-05)
(0.6451256994199952 1.231166253234443e-17 2.783852694415862e-05)
(0.6451256994199953 2.771935949920332e-17 2.783803207093713e-05)
(0.6451256994199955 -9.090216108966724e-17 2.783854935683156e-05)
(0.645125699419995 4.712903355322645e-17 2.783800788129336e-05)
(0.6451256994199955 8.13293915297242e-17 2.783857374675919e-05)
(0.645125699419994 -3.979122511377369e-17 2.783798259809629e-05)
(0.6451256994199962 5.843781254199268e-18 2.783859901256697e-05)
(0.6451256994199939 -4.034718245066976e-18 2.783795801817648e-05)
(0.6451256994199966 -3.04791834230737e-18 2.783862227585047e-05)
(0.645125699419994 -8.487108605674503e-18 2.783794227459694e-05)
(0.6451256994199971 -2.053703014831049e-17 2.78386482172394e-05)
(0.6451256994199949 5.592708215489025e-17 2.783794311161117e-05)
(0.6929490981636502 -2.525659246007835e-16 2.991621048010979e-05)
(0.6929490981636496 -1.021278731939252e-16 2.991639710264658e-05)
(0.6929490981636506 -1.799343756679212e-17 2.99164684050567e-05)
(0.69294909816365 -1.221793667196101e-18 2.99164100161334e-05)
(0.6929490981636501 2.403853447009913e-17 2.991645732424643e-05)
(0.6929490981636491 2.852243404660801e-19 2.991638452274089e-05)
(0.6929490981636501 -1.047852827924691e-17 2.99164328358286e-05)
(0.6929490981636491 1.832323329190202e-17 2.991635285772201e-05)
(0.6929490981636499 -7.585312843027623e-18 2.991640625886122e-05)
(0.6929490981636495 2.025732495447869e-17 2.99163207344893e-05)
(0.6929490981636496 5.5173634281793e-18 2.991638100715919e-05)
(0.6929490981636491 2.061665773501032e-17 2.991629021621185e-05)
(0.6929490981636489 2.560058214179311e-17 2.991635836279416e-05)
(0.6929490981636494 -1.025413535201446e-17 2.991626200241458e-05)
(0.6929490981636495 -2.013350523378014e-17 2.991633871562718e-05)
(0.6929490981636496 3.285556602256766e-17 2.991623619964815e-05)
(0.6929490981636487 2.049491523346856e-17 2.991632206841296e-05)
(0.6929490981636495 7.303400717266066e-18 2.991621265902516e-05)
(0.6929490981636485 1.668457133665275e-17 2.991630826523145e-05)
(0.692949098163649 1.951338981049993e-17 2.991619113092622e-05)
(0.6929490981636482 9.485579726544996e-18 2.991629709710826e-05)
(0.6929490981636484 3.172622780061353e-17 2.991617133621069e-05)
(0.692949098163648 6.679333938813955e-18 2.991628835060225e-05)
(0.6929490981636484 2.056638077127057e-18 2.991615299812606e-05)
(0.6929490981636477 2.760673055663189e-17 2.991628182934203e-05)
(0.6929490981636481 -2.879964549122186e-17 2.991613585536975e-05)
(0.6929490981636481 -5.337539584189248e-17 2.991627736263671e-05)
(0.6929490981636487 6.28860967864726e-18 2.991611966609737e-05)
(0.6929490981636482 -1.916827121801142e-17 2.991627480802122e-05)
(0.6929490981636494 -4.981620395827779e-17 2.991610420760049e-05)
(0.6929490981636482 5.143423965261464e-17 2.991627405108377e-05)
(0.6929490981636489 -6.302687500498154e-18 2.991608927400579e-05)
(0.6929490981636489 -2.389503713033568e-17 2.991627500426931e-05)
(0.692949098163649 -7.468649048892726e-18 2.991607467309213e-05)
(0.6929490981636491 1.8534766132569e-17 2.991627760551833e-05)
(0.6929490981636486 -1.888290573828249e-17 2.99160602227676e-05)
(0.6929490981636488 3.188879022987353e-18 2.991628181712897e-05)
(0.6929490981636484 4.318954260906374e-17 2.991604574740326e-05)
(0.6929490981636485 -7.74649709579891e-18 2.991628762510843e-05)
(0.6929490981636486 -3.591116402900776e-17 2.991603107409008e-05)
(0.6929490981636497 -3.700111237722147e-17 2.991629503907109e-05)
(0.6929490981636494 1.371968766996696e-17 2.991601602881409e-05)
(0.6929490981636491 -1.766341950809229e-17 2.991630409274188e-05)
(0.6929490981636499 -2.128794268506351e-17 2.991600043253613e-05)
(0.6929490981636492 -1.060444068607909e-17 2.991631484499409e-05)
(0.6929490981636502 2.003457305002544e-18 2.991598409727144e-05)
(0.6929490981636498 -6.722588741685236e-17 2.991632738120763e-05)
(0.6929490981636504 -2.317890057939157e-17 2.991596682244754e-05)
(0.6929490981636501 1.901228395642718e-17 2.991634181438878e-05)
(0.6929490981636509 4.271963381750379e-18 2.991594839235862e-05)
(0.6929490981636497 3.47062485594854e-17 2.991635828476267e-05)
(0.6929490981636499 -6.931126570279676e-18 2.991592857660547e-05)
(0.6929490981636502 -2.733321710329304e-18 2.99163769548674e-05)
(0.69294909816365 3.779161495108539e-17 2.991590713794637e-05)
(0.6929490981636496 -7.230991396876599e-18 2.991639799347939e-05)
(0.6929490981636498 -1.587269473004229e-17 2.991588385756023e-05)
(0.6929490981636498 1.770787885663605e-17 2.991642153310188e-05)
(0.6929490981636498 -1.159063546314894e-17 2.991585860101221e-05)
(0.69294909816365 2.309134128681922e-17 2.991644756510982e-05)
(0.6929490981636489 -2.953409382814253e-17 2.991583147953312e-05)
(0.6929490981636506 1.841172964346522e-17 2.991647568066608e-05)
(0.6929490981636485 -1.242560271178224e-17 2.99158032475529e-05)
(0.692949098163651 -1.390136694132809e-17 2.991650461280047e-05)
(0.692949098163649 -6.176671191974812e-18 2.991577792939862e-05)
(0.6929490981636515 -1.052840181035532e-16 2.991653839045772e-05)
(0.6929490981636506 1.184719231912727e-16 2.991576771913036e-05)
(0.7407060685576558 -2.361049821566855e-16 3.200136475914846e-05)
(0.7407060685576551 -1.444735553091294e-16 3.200154734292467e-05)
(0.7407060685576563 -4.290720706399851e-17 3.200159392520443e-05)
(0.7407060685576563 -1.344386540006402e-17 3.200151942050903e-05)
(0.7407060685576566 5.106433712937152e-17 3.200155544704957e-05)
(0.7407060685576559 5.018528045223618e-19 3.200147571998827e-05)
(0.7407060685576567 -2.124918232257936e-17 3.200151922346268e-05)
(0.740706068557656 2.070761245800384e-17 3.200143688647514e-05)
(0.7407060685576565 -1.752907703405246e-17 3.200148859228204e-05)
(0.7407060685576563 3.074356895280935e-17 3.200140284110316e-05)
(0.7407060685576562 1.661633885021808e-17 3.200146281032727e-05)
(0.7407060685576562 4.10735324429648e-17 3.200137272975081e-05)
(0.7407060685576561 3.183401950643372e-17 3.200144114313531e-05)
(0.7407060685576562 -2.299760884975833e-17 3.200134587074566e-05)
(0.7407060685576565 -5.156314467621311e-17 3.200142303991716e-05)
(0.7407060685576562 6.913726638542313e-17 3.200132173353531e-05)
(0.7407060685576555 4.104722429723075e-17 3.200140807417925e-05)
(0.7407060685576563 2.729834656419183e-17 3.200129988295992e-05)
(0.740706068557655 2.752385892533514e-17 3.200139590114844e-05)
(0.7407060685576559 2.487569435642065e-17 3.200127994810522e-05)
(0.7407060685576551 2.46349338841937e-17 3.200138623596946e-05)
(0.7407060685576553 5.528771927624063e-17 3.200126160611535e-05)
(0.7407060685576548 1.280719438159463e-17 3.200137884207702e-05)
(0.7407060685576555 -5.903443479447056e-18 3.200124457258185e-05)
(0.7407060685576544 4.477725357516114e-17 3.200137352390641e-05)
(0.7407060685576548 -4.770336651728036e-17 3.200122859469589e-05)
(0.7407060685576549 -8.06477572513608e-17 3.200137012156054e-05)
(0.7407060685576555 6.582490171083043e-18 3.200121344567292e-05)
(0.740706068557655 -4.197497972844994e-17 3.200136850657901e-05)
(0.740706068557656 -6.141854260869378e-17 3.200119891990996e-05)
(0.7407060685576548 6.447226349994176e-17 3.200136857850692e-05)
(0.7407060685576555 -1.853239134116786e-17 3.200118482866391e-05)
(0.7407060685576556 -1.958320397623984e-17 3.200137026215457e-05)
(0.7407060685576552 -3.432232692883441e-17 3.200117099612072e-05)
(0.7407060685576561 1.562547062698558e-17 3.200137350553995e-05)
(0.7407060685576552 1.707386689360492e-17 3.200115725575927e-05)
(0.7407060685576554 1.575616166894217e-17 3.200137827843621e-05)
(0.7407060685576553 3.874879751220213e-17 3.200114344688289e-05)
(0.7407060685576554 -3.281509690159968e-17 3.200138457159462e-05)
(0.7407060685576552 -5.273029954009982e-17 3.200112941122499e-05)
(0.7407060685576561 -6.504446893148906e-17 3.200139239658252e-05)
(0.7407060685576561 1.9884262748322e-17 3.200111498948633e-05)
(0.7407060685576562 -3.184015597809203e-17 3.200140178634628e-05)
(0.7407060685576566 -2.615167580471258e-17 3.200110001764856e-05)
(0.7407060685576559 -1.950442287523944e-17 3.200141279651013e-05)
(0.7407060685576565 -1.516233241618672e-17 3.200108432291051e-05)
(0.7407060685576564 -7.442537683571679e-17 3.200142550757722e-05)
(0.7407060685576567 -2.060755210290209e-17 3.200106771900034e-05)
(0.7407060685576562 -5.367532142396512e-18 3.200144002818858e-05)
(0.7407060685576572 6.839938810213515e-19 3.20010500005513e-05)
(0.7407060685576565 8.286972918778843e-17 3.200145649988767e-05)
(0.7407060685576565 -8.281471063198979e-18 3.200103093586741e-05)
(0.7407060685576569 -1.348044271942364e-17 3.200147510425322e-05)
(0.7407060685576567 4.335837618605139e-17 3.200101025663965e-05)
(0.7407060685576564 3.71162733148198e-18 3.20014960747735e-05)
(0.7407060685576564 -5.619286703423691e-18 3.200098764062569e-05)
(0.7407060685576562 -3.573950746203254e-19 3.200151972008835e-05)
(0.7407060685576558 -9.497663217122964e-19 3.200096267594325e-05)
(0.7407060685576564 6.806481518630051e-17 3.200154647777045e-05)
(0.7407060685576552 -5.553677511015448e-17 3.200093477175575e-05)
(0.7407060685576562 2.177990036810935e-17 3.200157705231961e-05)
(0.7407060685576552 -1.544563478603021e-17 3.200090291788536e-05)
(0.7407060685576564 -2.768344193846709e-17 3.200161292222292e-05)
(0.7407060685576553 -1.67322160019941e-17 3.200086622343551e-05)
(0.7407060685576567 -1.631749052082113e-16 3.200166294190665e-05)
(0.7407060685576572 1.692852664216586e-16 3.200082188015497e-05)
(0.7738262747831509 -1.479805509463881e-16 3.345266322962375e-05)
(0.7738262747831496 -1.794764536936324e-16 3.345282997156654e-05)
(0.7738262747831515 -8.327010247851264e-17 3.345284835204648e-05)
(0.7738262747831515 -1.948338423744411e-17 3.345276170795513e-05)
(0.7738262747831524 4.812199861004576e-17 3.345278861911711e-05)
(0.7738262747831518 -1.096084973755351e-17 3.345270709058317e-05)
(0.7738262747831525 -2.985540858857673e-17 3.345274678643199e-05)
(0.7738262747831516 1.473311755280274e-17 3.345266603819467e-05)
(0.7738262747831527 -3.623226822302231e-17 3.345271577107736e-05)
(0.7738262747831522 4.174622696188978e-17 3.345263305062453e-05)
(0.7738262747831524 1.303108993909591e-17 3.345269164516539e-05)
(0.7738262747831522 5.176227159007542e-17 3.345260525643448e-05)
(0.773826274783152 3.879672875078755e-17 3.345267235148048e-05)
(0.7738262747831525 -4.343391283771049e-17 3.345258109770894e-05)
(0.7738262747831525 -6.134148909152603e-17 3.345265675561642e-05)
(0.773826274783152 1.00977870367476e-16 3.345255965908354e-05)
(0.7738262747831518 4.853898335204034e-17 3.345264417831803e-05)
(0.7738262747831522 4.978157938899125e-17 3.345254034541922e-05)
(0.7738262747831512 3.941426459456214e-17 3.345263417518066e-05)
(0.7738262747831518 2.206333279046688e-17 3.345252273063875e-05)
(0.7738262747831509 4.497596098415007e-17 3.345262643290836e-05)
(0.7738262747831512 6.660478028743071e-17 3.345250648528737e-05)
(0.7738262747831509 1.845675747718161e-17 3.345262071871923e-05)
(0.7738262747831512 -1.251933092005054e-18 3.345249133994155e-05)
(0.7738262747831501 5.810015878221291e-17 3.345261685420094e-05)
(0.773826274783151 -5.143886189952731e-17 3.345247706536544e-05)
(0.7738262747831505 -1.045626456056954e-16 3.345261470083627e-05)
(0.7738262747831512 8.991659572440971e-18 3.345246346073794e-05)
(0.7738262747831504 -5.82910192906264e-17 3.345261415138259e-05)
(0.7738262747831519 -6.772452116272733e-17 3.345245034604045e-05)
(0.7738262747831507 6.716623047740016e-17 3.34526151244239e-05)
(0.7738262747831517 -4.204379856274044e-17 3.345243755665855e-05)
(0.7738262747831512 4.531295592402068e-18 3.34526175607519e-05)
(0.7738262747831508 -4.832723788184776e-17 3.345242493924246e-05)
(0.7738262747831519 1.247815274029198e-17 3.345262142097803e-05)
(0.773826274783151 3.754971847406902e-17 3.345241234830067e-05)
(0.7738262747831509 1.250817640192396e-17 3.345262668396445e-05)
(0.7738262747831511 4.080104301658979e-17 3.345239964318273e-05)
(0.7738262747831509 -2.984906972608327e-17 3.345263334600853e-05)
(0.773826274783151 -7.200517359300589e-17 3.345238668523422e-05)
(0.7738262747831516 -8.291498008375116e-17 3.345264142063398e-05)
(0.7738262747831519 9.071816850680301e-18 3.345237333491575e-05)
(0.7738262747831517 -4.481464133954203e-17 3.345265093911354e-05)
(0.7738262747831524 -2.090410477890432e-17 3.34523594486398e-05)
(0.7738262747831516 -1.507374261228053e-17 3.345266195180442e-05)
(0.773826274783152 -4.407748058784917e-17 3.345234487500536e-05)
(0.7738262747831525 -7.868655969664183e-17 3.345267453067035e-05)
(0.7738262747831522 -1.778513122745822e-18 3.345232944988602e-05)
(0.7738262747831518 -1.886650633631847e-17 3.345268877364271e-05)
(0.7738262747831526 -2.275063549311261e-17 3.345231298931801e-05)
(0.773826274783152 1.097301852953761e-16 3.345270481228715e-05)
(0.773826274783152 -4.286541455259652e-18 3.345229527799587e-05)
(0.7738262747831525 -9.180608994158754e-18 3.345272282596955e-05)
(0.7738262747831518 5.913425175433184e-17 3.345227604850096e-05)
(0.7738262747831517 5.168499559426061e-18 3.345274306999721e-05)
(0.773826274783152 1.032176214870295e-17 3.34522549395488e-05)
(0.7738262747831514 6.480479162347019e-19 3.345276593616291e-05)
(0.7738262747831511 9.251762993721248e-18 3.345223140408698e-05)
(0.7738262747831516 8.508594434250622e-17 3.345279209345839e-05)
(0.7738262747831507 -5.953200475851464e-17 3.345220448939412e-05)
(0.7738262747831516 2.459446903061822e-17 3.345282283046122e-05)
(0.7738262747831507 -1.761878842264546e-17 3.345217224319089e-05)
(0.7738262747831514 -4.32139575119838e-17 3.345286093823317e-05)
(0.7738262747831512 -1.593496217380291e-17 3.345213049518531e-05)
(0.7738262747831519 -2.238376778099165e-16 3.345291600159999e-05)
(0.7738262747831528 1.897800599206031e-16 3.345205928148211e-05)
(0.8027391467885687 -1.771479937017833e-17 3.472282518701364e-05)
(0.8027391467885672 -2.137144845068784e-16 3.472306699592224e-05)
(0.8027391467885689 -1.471236887110552e-16 3.472308676732899e-05)
(0.8027391467885688 -4.173862483925083e-17 3.472300001619945e-05)
(0.8027391467885699 3.141689014889868e-17 3.472302269410645e-05)
(0.8027391467885693 -3.668327049282358e-17 3.472294478607182e-05)
(0.8027391467885705 -3.252546626512811e-17 3.472298255235202e-05)
(0.8027391467885698 1.136173258781471e-17 3.472290704129302e-05)
(0.8027391467885707 -5.414795968720792e-17 3.47229552296953e-05)
(0.8027391467885699 4.518945040145089e-17 3.472287834491569e-05)
(0.8027391467885704 7.319998429893489e-18 3.472293519151684e-05)
(0.8027391467885705 4.992456447717307e-17 3.472285493439916e-05)
(0.8027391467885701 3.675880623773766e-17 3.472291985403133e-05)
(0.8027391467885709 -6.296238052161785e-17 3.47228349317269e-05)
(0.8027391467885709 -5.301287471078454e-17 3.47229078846875e-05)
(0.8027391467885703 1.342576065783825e-16 3.472281730587714e-05)
(0.8027391467885702 4.498299865691424e-17 3.472289853956368e-05)
(0.8027391467885702 7.102300445078636e-17 3.47228014360134e-05)
(0.8027391467885695 6.182188280779966e-17 3.472289137036464e-05)
(0.8027391467885699 2.953361779275721e-17 3.472278691176758e-05)
(0.8027391467885692 6.949573825346149e-17 3.472288608711731e-05)
(0.8027391467885693 7.334726798356387e-17 3.472277343729231e-05)
(0.8027391467885688 3.49417495402871e-17 3.472288249081255e-05)
(0.8027391467885693 1.998860969794035e-17 3.472276078288549e-05)
(0.8027391467885683 6.783510393215843e-17 3.472288043886462e-05)
(0.8027391467885692 -5.135789707623971e-17 3.472274875939018e-05)
(0.8027391467885683 -1.26748826627363e-16 3.472287982653229e-05)
(0.8027391467885693 1.716655225286044e-18 3.47227372038399e-05)
(0.8027391467885688 -7.09248505734686e-17 3.472288057648051e-05)
(0.8027391467885698 -6.965015555938366e-17 3.472272597094307e-05)
(0.8027391467885684 6.740605356551544e-17 3.472288263264556e-05)
(0.8027391467885697 -6.408276359222998e-17 3.472271492762981e-05)
(0.8027391467885694 3.138024931292115e-17 3.472288595646835e-05)
(0.8027391467885687 -5.24385397581939e-17 3.472270394931535e-05)
(0.8027391467885695 5.473294713020049e-18 3.472289052458487e-05)
(0.8027391467885688 6.065197074935786e-17 3.472269291711021e-05)
(0.8027391467885691 1.415691133880968e-18 3.472289632737299e-05)
(0.8027391467885689 4.051982327500444e-17 3.47226817155267e-05)
(0.8027391467885687 -1.14116890373781e-17 3.472290336819768e-05)
(0.8027391467885691 -1.024454293793965e-16 3.472267023043694e-05)
(0.8027391467885693 -1.025853289096787e-16 3.472291166316804e-05)
(0.8027391467885694 5.677348560117783e-18 3.472265834701028e-05)
(0.8027391467885694 -6.323334525105706e-17 3.472292124153411e-05)
(0.8027391467885701 -1.487945915761039e-17 3.472264594740058e-05)
(0.8027391467885695 -1.571309381028032e-17 3.472293214679181e-05)
(0.8027391467885697 -8.970198640120571e-17 3.472263290777988e-05)
(0.8027391467885705 -8.364764450795729e-17 3.472294443899323e-05)
(0.8027391467885699 1.47332948152163e-17 3.472261909406717e-05)
(0.8027391467885696 -1.385145489058568e-17 3.472295819909682e-05)
(0.8027391467885703 -4.698434561082248e-17 3.472260435500989e-05)
(0.8027391467885698 1.305082505354556e-16 3.472297353720142e-05)
(0.8027391467885699 6.223308504521653e-18 3.4722588509919e-05)
(0.8027391467885702 -3.594196313680485e-19 3.472299060862727e-05)
(0.8027391467885695 9.715619727964327e-17 3.472257132514279e-05)
(0.8027391467885696 1.444342287548768e-17 3.472300964666201e-05)
(0.8027391467885695 7.094118025762789e-18 3.472255246586271e-05)
(0.8027391467885694 1.366699215177627e-17 3.472303103229449e-05)
(0.8027391467885692 1.011538003823063e-17 3.472253139158197e-05)
(0.8027391467885696 9.981516262523826e-17 3.472305545096131e-05)
(0.8027391467885688 -5.481311932711802e-17 3.472250712345118e-05)
(0.8027391467885691 3.444910565095103e-17 3.472308428325868e-05)
(0.8027391467885687 -8.458299523638063e-18 3.472247772793282e-05)
(0.8027391467885685 -8.649171360724379e-17 3.472312064770535e-05)
(0.8027391467885692 -2.377901085450999e-17 3.472243904195e-05)
(0.8027391467885691 -2.843287251492358e-16 3.472317305437768e-05)
(0.8027391467885709 2.088555829495074e-16 3.47223589309319e-05)
(0.8343785997871286 1.606672722635153e-16 3.611792912229944e-05)
(0.8343785997871269 -2.445838218994833e-16 3.611821792486795e-05)
(0.8343785997871284 -2.353663025493693e-16 3.611829069235071e-05)
(0.8343785997871284 -7.153035354192678e-17 3.611823235571274e-05)
(0.834378599787129 1.092077138987495e-17 3.611826239603706e-05)
(0.834378599787129 -1.079605991153446e-16 3.611819808133865e-05)
(0.8343785997871299 -2.95210618628779e-17 3.611823734754144e-05)
(0.8343785997871295 -5.005978769410678e-18 3.611817324023818e-05)
(0.8343785997871304 -9.869943160678054e-17 3.611822077266068e-05)
(0.83437859978713 5.762283501327364e-17 3.611815450927137e-05)
(0.83437859978713 3.261732188265619e-18 3.611820921300669e-05)
(0.8343785997871304 3.699305632863392e-17 3.611813928928826e-05)
(0.8343785997871298 2.00675768954872e-17 3.611820085418921e-05)
(0.8343785997871309 -8.359367616981895e-17 3.611812624779255e-05)
(0.8343785997871304 -3.024210383432768e-17 3.61181947568779e-05)
(0.8343785997871302 1.726825089301093e-16 3.611811465109988e-05)
(0.8343785997871301 4.765816857861039e-17 3.611819040364283e-05)
(0.8343785997871299 9.096372723376567e-17 3.611810406364065e-05)
(0.8343785997871297 8.669318263820569e-17 3.611818749563315e-05)
(0.8343785997871298 3.322501506224594e-17 3.611809420675891e-05)
(0.8343785997871295 9.258742836807732e-17 3.611818585307588e-05)
(0.8343785997871289 1.163821789383264e-16 3.611808488730439e-05)
(0.8343785997871288 4.39189940802938e-17 3.611818536378148e-05)
(0.8343785997871289 7.237159653925011e-17 3.61180759599349e-05)
(0.8343785997871281 6.617980540257907e-17 3.611818595574872e-05)
(0.8343785997871294 -6.231081781117711e-17 3.611806730664924e-05)
(0.8343785997871284 -1.407979843544398e-16 3.611818758219508e-05)
(0.834378599787129 -2.368036945261204e-17 3.611805882547592e-05)
(0.8343785997871289 -8.658476996226333e-17 3.611819021333186e-05)
(0.8343785997871294 -3.790124314414235e-17 3.61180504240304e-05)
(0.8343785997871281 8.268516429329641e-17 3.611819383167305e-05)
(0.8343785997871295 -9.841148595207775e-17 3.611804201573586e-05)
(0.8343785997871288 6.391246676636318e-17 3.611819842937531e-05)
(0.8343785997871286 -6.142398385556536e-17 3.61180335175381e-05)
(0.8343785997871292 -1.680491937860545e-17 3.61182040067181e-05)
(0.8343785997871288 1.071158641797369e-16 3.611802484844963e-05)
(0.8343785997871286 -1.376537268927513e-17 3.611821057114282e-05)
(0.8343785997871287 3.384326757978826e-17 3.611801592850618e-05)
(0.8343785997871284 -1.056331769375952e-17 3.611821813678029e-05)
(0.8343785997871287 -1.257580481590791e-16 3.611800667800138e-05)
(0.8343785997871289 -9.977577505631674e-17 3.611822672419004e-05)
(0.8343785997871291 -2.081704572050881e-17 3.611799701673787e-05)
(0.8343785997871287 -8.288013608978854e-17 3.611823636047931e-05)
(0.8343785997871297 1.0224479389115e-17 3.611798686314868e-05)
(0.8343785997871287 -3.4683333078381e-17 3.611824707974784e-05)
(0.8343785997871291 -1.422756507160789e-16 3.611797613301165e-05)
(0.8343785997871297 -8.467275729201863e-17 3.611825892432281e-05)
(0.8343785997871291 3.286052183528607e-17 3.611796473724597e-05)
(0.8343785997871295 -5.322922016985799e-18 3.611827194735498e-05)
(0.8343785997871299 -7.640170030756663e-17 3.611795257781194e-05)
(0.8343785997871292 1.539379955544903e-16 3.611828621812524e-05)
(0.8343785997871296 1.893721639064067e-17 3.611793953987124e-05)
(0.8343785997871297 2.108171875239305e-17 3.61183018326688e-05)
(0.8343785997871292 1.443076519852289e-16 3.611792547646164e-05)
(0.8343785997871289 2.374250485610241e-17 3.611831893500834e-05)
(0.8343785997871288 -2.013723054581331e-17 3.611791017839802e-05)
(0.8343785997871289 5.099566095954318e-17 3.61183377591226e-05)
(0.8343785997871287 -1.048812266254898e-17 3.611789331411186e-05)
(0.8343785997871291 1.179920002205102e-16 3.611835870653761e-05)
(0.8343785997871285 -1.60110805213706e-17 3.611787430159414e-05)
(0.8343785997871286 4.95250576678436e-17 3.611838249825026e-05)
(0.8343785997871285 1.805260152820502e-17 3.611785229944233e-05)
(0.8343785997871281 -1.497166427112582e-16 3.611841177375822e-05)
(0.8343785997871286 -5.932195473051952e-17 3.611783237123087e-05)
(0.8343785997871287 -3.582589379957273e-16 3.611847469894347e-05)
(0.8343785997871301 2.337077860761442e-16 3.611784449291231e-05)
(0.8706277743456886 3.451521850858077e-16 3.772889863390271e-05)
(0.8706277743456873 -2.261076412366576e-16 3.772900483805484e-05)
(0.8706277743456883 -3.08506549416051e-16 3.772911593848558e-05)
(0.8706277743456885 -1.436613786494371e-16 3.772910425687244e-05)
(0.8706277743456887 -7.653709667332307e-17 3.772915468144782e-05)
(0.8706277743456898 -2.01353039203764e-16 3.772911853507078e-05)
(0.8706277743456898 6.355893761279922e-18 3.772916469805639e-05)
(0.8706277743456901 -2.812362836807519e-17 3.772912129027562e-05)
(0.8706277743456903 -2.055678719750061e-16 3.772916963842684e-05)
(0.8706277743456906 4.427340498276176e-17 3.772912111327723e-05)
(0.8706277743456905 8.577819961569424e-18 3.772917317604656e-05)
(0.8706277743456904 4.340642466405123e-17 3.772911978314702e-05)
(0.8706277743456897 -7.600347156975343e-18 3.772917630250067e-05)
(0.8706277743456911 -1.008542651316524e-16 3.772911785129024e-05)
(0.8706277743456906 -4.772688339086996e-17 3.772917938214482e-05)
(0.8706277743456904 2.401514294567495e-16 3.772911552200154e-05)
(0.8706277743456906 5.877299208957958e-17 3.772918258243097e-05)
(0.8706277743456904 8.341440241624269e-17 3.772911288148378e-05)
(0.8706277743456901 1.380772417909726e-16 3.772918600182e-05)
(0.8706277743456899 7.091197335563446e-17 3.77291099708755e-05)
(0.8706277743456899 7.993584468161529e-17 3.772918971210375e-05)
(0.8706277743456896 2.306753863541972e-16 3.772910681064847e-05)
(0.8706277743456896 5.889820937520276e-17 3.772919377265676e-05)
(0.8706277743456897 7.48597391814197e-17 3.772910340899426e-05)
(0.8706277743456889 8.361919828928248e-17 3.772919823550713e-05)
(0.8706277743456891 -7.163456595188944e-17 3.772909976487462e-05)
(0.8706277743456892 -1.606355850800723e-16 3.772920314738482e-05)
(0.8706277743456893 -4.214205038588822e-17 3.772909586954519e-05)
(0.8706277743456895 -1.431741016961802e-16 3.772920855086496e-05)
(0.8706277743456901 1.616106817896074e-17 3.772909170756888e-05)
(0.8706277743456888 1.505695114253238e-16 3.772921448516532e-05)
(0.8706277743456897 -1.253984166265876e-16 3.77290872577859e-05)
(0.8706277743456889 8.253259808909891e-17 3.772922098682715e-05)
(0.8706277743456892 -5.80732606720806e-17 3.77290824942632e-05)
(0.8706277743456893 -5.024537127632e-17 3.772922809026327e-05)
(0.8706277743456894 1.470551061862581e-16 3.772907738726914e-05)
(0.8706277743456889 2.596360430537797e-18 3.772923582805946e-05)
(0.8706277743456893 1.324964060427794e-17 3.772907190429608e-05)
(0.8706277743456891 -4.251728201913766e-17 3.772924423111309e-05)
(0.8706277743456889 -1.138395799573128e-16 3.77290660111373e-05)
(0.8706277743456888 -1.323344880349743e-16 3.772925332851893e-05)
(0.8706277743456898 -3.658358770585295e-17 3.7729059673092e-05)
(0.8706277743456889 -1.003903011086766e-16 3.772926314713329e-05)
(0.8706277743456896 2.796433556807125e-18 3.772905285632747e-05)
(0.8706277743456893 -2.650727608815399e-17 3.772927371078862e-05)
(0.8706277743456894 -2.072354703411435e-16 3.772904552949312e-05)
(0.8706277743456896 -1.012581717226383e-16 3.772928503910358e-05)
(0.8706277743456897 4.899514710117068e-17 3.772903766570147e-05)
(0.8706277743456899 -2.564563873245086e-18 3.772929714562988e-05)
(0.8706277743456899 -5.598442783588703e-17 3.772902924523907e-05)