/*--------------------------------*- C++ -*----------------------------------*\
| =========                 |                                                 |
| \\      /  F ield         | OpenFOAM: The Open Source CFD Toolbox           |
|  \\    /   O peration     | Version:  v1812                                 |
|   \\  /    A nd           | Web:      www.OpenFOAM.com                      |
|    \\/     M anipulation  |                                                 |
\*---------------------------------------------------------------------------*/
FoamFile
{
    version     2.0;
    format      ascii;
    class       volVectorField;
    location    "10000";
    object      wallShearStress;
}
// * * * * * * * * * * * * * * * * * * * * * * * * * * * * * * * * * * * * * //

dimensions      [0 2 -2 0 0 0 0];


internalField   uniform (0 0 0);

boundaryField
{
    inlet
    {
        type            cyclic;
    }
    outlet
    {
        type            cyclic;
    }
    bottomWall
    {
        type            calculated;
        value           nonuniform List<vector> 
66
(
(-0.001610651181085466 7.214586064740407e-19 -6.950211501050432e-08)
(-0.001610651181085461 1.136403109424932e-19 -6.950291254940534e-08)
(-0.001610651181085462 -4.333288653190136e-20 -6.950310880164124e-08)
(-0.001610651181085459 -1.252025335495637e-20 -6.950298631168641e-08)
(-0.001610651181085462 6.435433154926102e-21 -6.950311365148681e-08)
(-0.001610651181085458 -2.417223232145758e-20 -6.950294940410841e-08)
(-0.001610651181085461 5.420892953834848e-20 -6.950307197733968e-08)
(-0.001610651181085459 2.254530749751657e-20 -6.950288462998842e-08)
(-0.001610651181085459 -4.068232601134637e-20 -6.950301499472609e-08)
(-0.001610651181085458 -5.816750250787316e-20 -6.950281129011496e-08)
(-0.001610651181085459 -2.524772192044777e-20 -6.950295600558598e-08)
(-0.001610651181085458 -1.819921501097674e-20 -6.950273830081365e-08)
(-0.001610651181085456 5.482359551249643e-20 -6.950290095714776e-08)
(-0.001610651181085458 -7.202319379104217e-20 -6.950266935315089e-08)
(-0.001610651181085457 1.016143296542268e-19 -6.950285217224376e-08)
(-0.001610651181085459 -7.414077729658029e-20 -6.950260565013259e-08)
(-0.001610651181085456 -1.398375182441736e-19 -6.95028102993766e-08)
(-0.001610651181085458 2.866940172384858e-20 -6.950254726614804e-08)
(-0.001610651181085456 1.397715705404146e-20 -6.950277525161079e-08)
(-0.001610651181085457 3.338561208971714e-20 -6.950249379019811e-08)
(-0.001610651181085455 -3.985168821015145e-20 -6.950274664766155e-08)
(-0.001610651181085456 -1.797674507756131e-19 -6.95024446257392e-08)
(-0.001610651181085454 -1.071952017101431e-19 -6.950272401727339e-08)
(-0.001610651181085455 1.984475371580363e-19 -6.950239912836488e-08)
(-0.001610651181085454 -1.008985109136804e-19 -6.950270689520137e-08)
(-0.001610651181085454 6.898496655298751e-21 -6.950235666634738e-08)
(-0.001610651181085455 1.330911038496633e-19 -6.950269486224942e-08)
(-0.001610651181085456 8.968699056204811e-20 -6.950231664427639e-08)
(-0.001610651181085455 1.326651414831146e-20 -6.95026875612709e-08)
(-0.001610651181085457 5.514908460066367e-21 -6.950227850896058e-08)
(-0.001610651181085455 2.69342041089842e-20 -6.950268470152428e-08)
(-0.001610651181085455 -1.295581133471513e-19 -6.950224174695748e-08)
(-0.001610651181085456 -2.548956565583918e-20 -6.950268605808851e-08)
(-0.001610651181085456 2.701989786880839e-19 -6.950220587815282e-08)
(-0.001610651181085457 4.809559578085161e-20 -6.950269146965271e-08)
(-0.001610651181085457 -2.370470032448117e-19 -6.950217044763536e-08)
(-0.001610651181085457 -8.703415782756548e-20 -6.950270083624798e-08)
(-0.001610651181085455 1.822906690497156e-19 -6.95021350167648e-08)
(-0.001610651181085455 9.09371970766147e-20 -6.950271411789209e-08)
(-0.001610651181085456 -7.216288545091278e-20 -6.950209915386566e-08)
(-0.001610651181085457 1.865179443580785e-20 -6.950273133437862e-08)
(-0.001610651181085458 1.130510707001981e-20 -6.950206242470866e-08)
(-0.001610651181085457 4.600010100929573e-20 -6.950275256634326e-08)
(-0.001610651181085459 6.320450955478626e-21 -6.950202438298272e-08)
(-0.001610651181085458 -1.910504513747565e-20 -6.950277795726413e-08)
(-0.001610651181085458 5.79368949673284e-20 -6.950198456132651e-08)
(-0.001610651181085459 1.11443641459806e-20 -6.950280771533626e-08)
(-0.00161065118108546 1.467725885562202e-19 -6.950194246436283e-08)
(-0.00161065118108546 1.835978028083727e-19 -6.950284211284498e-08)
(-0.00161065118108546 -1.108039307030481e-19 -6.950189756742141e-08)
(-0.00161065118108546 -2.214586585658773e-19 -6.95028814773151e-08)
(-0.001610651181085459 -8.153156152833334e-20 -6.950184932927357e-08)
(-0.00161065118108546 7.969532945959977e-20 -6.950292616157079e-08)
(-0.001610651181085459 1.530916243675976e-19 -6.950179723845988e-08)
(-0.001610651181085459 -3.150597587895679e-20 -6.950297646272735e-08)
(-0.001610651181085459 -8.757176963259204e-20 -6.950174093895363e-08)
(-0.00161065118108546 2.88421363716561e-19 -6.950303241926137e-08)
(-0.001610651181085458 -1.474082252286927e-19 -6.95016805459506e-08)
(-0.00161065118108546 -3.039074662923539e-19 -6.950309331230248e-08)
(-0.001610651181085455 1.51415823196744e-19 -6.950161742273097e-08)
(-0.001610651181085461 -2.422883101961078e-20 -6.95031563921072e-08)
(-0.001610651181085456 2.290888214386669e-20 -6.950155605534643e-08)
(-0.001610651181085463 1.966071656674509e-20 -6.950321447231561e-08)
(-0.001610651181085455 3.773027855165384e-20 -6.950151674918483e-08)
(-0.001610651181085464 9.205960180573642e-20 -6.9503279238808e-08)
(-0.001610651181085457 -1.577400037033901e-19 -6.950151883891393e-08)
)
;
    }
    topWall
    {
        type            calculated;
        value           nonuniform List<vector> 
66
(
(-0.0016106511811829 -1.444282501639037e-18 -6.951306935088648e-08)
(-0.001610651181182949 2.278852100698969e-19 -6.951306339367072e-08)
(-0.001610651181182895 -2.405158226153116e-19 -6.95133396569523e-08)
(-0.001610651181182961 -3.236836858293545e-19 -6.951326929721569e-08)
(-0.001610651181183116 1.792631982000941e-18 -6.951338629315124e-08)
(-0.001610651181182888 3.026601085034888e-18 -6.951323732668582e-08)
(-0.001610651181182892 -2.328208470436771e-18 -6.951333780556642e-08)
(-0.001610651181183062 -3.00840758982022e-19 -6.951316766522472e-08)
(-0.001610651181182875 3.163914068280394e-18 -6.951327765955517e-08)
(-0.0016106511811829 -5.102488177361317e-19 -6.951309695867755e-08)
(-0.001610651181183052 -1.444668348797448e-18 -6.95132230636238e-08)
(-0.001610651181182883 -1.651735687937285e-19 -6.951303339174641e-08)
(-0.001610651181182944 2.224067564353904e-18 -6.951317782123438e-08)
(-0.001610651181182945 -1.554161072221342e-18 -6.951297831633305e-08)
(-0.001610651181182937 -6.185673096541445e-19 -6.951314209993212e-08)
(-0.001610651181182887 9.402723254975348e-19 -6.951293111584697e-08)
(-0.001610651181183053 -8.246916180580974e-20 -6.951311503334078e-08)
(-0.001610651181182939 1.700322176673801e-18 -6.951289065770983e-08)
(-0.00161065118118288 1.118983772106889e-18 -6.951309555113547e-08)
(-0.001610651181182891 -2.100778717879539e-18 -6.95128557691487e-08)
(-0.001610651181182937 -3.067460181247132e-18 -6.951308265044342e-08)
(-0.001610651181182941 -3.204501833041125e-19 -6.951282538558792e-08)
(-0.00161065118118293 2.261931199663057e-19 -6.951307547301176e-08)
(-0.001610651181182883 3.583039512280853e-19 -6.951279858325933e-08)
(-0.001610651181182997 2.470349626979026e-18 -6.951307331417186e-08)
(-0.001610651181183051 -2.338035257834642e-19 -6.951277457172427e-08)
(-0.00161065118118287 3.12324413440657e-19 -6.951307560928004e-08)
(-0.001610651181182828 1.013598439648958e-19 -6.951275267398431e-08)
(-0.001610651181182883 -1.015331723620474e-18 -6.951308191503476e-08)
(-0.001610651181182886 5.221233714460928e-19 -6.951273230495205e-08)
(-0.00161065118118277 2.441331481785484e-19 -6.95130918916191e-08)
(-0.001610651181182846 -2.42034361791663e-19 -6.951271295115751e-08)
(-0.001610651181183059 -7.227571189572956e-19 -6.951310528803111e-08)
(-0.001610651181183 -7.894379308969705e-19 -6.951269415301387e-08)
(-0.001610651181182935 -6.91876820523585e-19 -6.951312193066613e-08)
(-0.001610651181183051 1.450677235963204e-18 -6.951267548907867e-08)
(-0.001610651181182989 2.799998889563133e-19 -6.951314171545075e-08)
(-0.001610651181182873 -1.030598914424598e-18 -6.95126565621231e-08)
(-0.001610651181182879 -2.536338136003617e-19 -6.951316460296796e-08)
(-0.001610651181182878 -8.676319250469137e-19 -6.951263698607624e-08)
(-0.001610651181182996 -1.273252264504056e-19 -6.95131906165489e-08)
(-0.001610651181182871 1.272159349708351e-18 -6.951261637342672e-08)
(-0.001610651181183006 -3.523189941752704e-19 -6.951321984300232e-08)
(-0.001610651181182928 -1.441436574667873e-18 -6.951259432259855e-08)
(-0.001610651181182939 4.259824857123782e-19 -6.951325243599291e-08)
(-0.001610651181182868 5.377095778936925e-19 -6.951257040512408e-08)
(-0.001610651181182894 -1.159624867017794e-18 -6.951328862111638e-08)
(-0.001610651181182927 -9.491960177426452e-19 -6.951254415305757e-08)
(-0.00161065118118295 1.294204880525161e-18 -6.951332870156301e-08)
(-0.001610651181182922 -8.622368176017533e-19 -6.951251504864886e-08)
(-0.001610651181182894 3.358305792158855e-18 -6.951337306028364e-08)
(-0.00161065118118299 1.965463263541334e-18 -6.951248252245941e-08)
(-0.001610651181182949 -3.254554404792195e-18 -6.951342214884194e-08)
(-0.001610651181182871 -2.805456801398334e-19 -6.951244597481424e-08)
(-0.001610651181182895 -1.113981887171892e-19 -6.951347643820874e-08)
(-0.001610651181182818 8.138138929423885e-19 -6.951240486105534e-08)
(-0.001610651181182963 2.020214024311894e-18 -6.951353626667212e-08)
(-0.001610651181182932 -1.271240170025606e-18 -6.95123589459384e-08)
(-0.001610651181182964 -2.334961978105131e-18 -6.951360141318724e-08)
(-0.001610651181182915 1.560877293650514e-18 -6.951230902331231e-08)
(-0.00161065118118292 1.434776306225566e-18 -6.951366978574017e-08)
(-0.001610651181183028 -3.828200937751482e-19 -6.951225832125572e-08)
(-0.001610651181182794 4.953209824177726e-19 -6.951373233250766e-08)
(-0.00161065118118304 -7.952343716801275e-19 -6.951223188373122e-08)
(-0.001610651181182958 -1.423146714458385e-18 -6.951388362085835e-08)
(-0.001610651181182868 -1.580577035042687e-19 -6.951269058471998e-08)
)
;
    }
    left
    {
        type            cyclic;
    }
    right
    {
        type            cyclic;
    }
}


// ************************************************************************* //
