/*--------------------------------*- C++ -*----------------------------------*\
| =========                 |                                                 |
| \\      /  F ield         | OpenFOAM: The Open Source CFD Toolbox           |
|  \\    /   O peration     | Version:  v1812                                 |
|   \\  /    A nd           | Web:      www.OpenFOAM.com                      |
|    \\/     M anipulation  |                                                 |
\*---------------------------------------------------------------------------*/
FoamFile
{
    version     2.0;
    format      ascii;
    class       volScalarField;
    location    "10000";
    object      nut;
}
// * * * * * * * * * * * * * * * * * * * * * * * * * * * * * * * * * * * * * //

dimensions      [0 2 -1 0 0 0 0];


internalField   nonuniform List<scalar> 
5655
(
5.71785806799899e-06
5.717857913930671e-06
5.717857831404311e-06
5.717857961669102e-06
5.717857880942491e-06
5.717857960832324e-06
5.717857915337893e-06
5.717857957482974e-06
5.71785794818338e-06
5.717857973828767e-06
5.717857921331664e-06
5.717857904417706e-06
5.71785795678031e-06
5.717857939637275e-06
5.717857917723734e-06
5.717857984882416e-06
5.717857889788955e-06
5.717857966370184e-06
5.717857832518926e-06
5.717857941451442e-06
5.717857891099826e-06
5.717857932680185e-06
5.717857836645597e-06
5.717857901005486e-06
5.717857852527679e-06
5.717857933389764e-06
5.717857890474399e-06
5.717857902123305e-06
5.717857904463472e-06
5.717857886540409e-06
5.717857893101184e-06
5.717857865013857e-06
5.717857911801069e-06
5.717857840480809e-06
5.717857914189576e-06
5.717857871294312e-06
5.717857907739272e-06
5.717857855826838e-06
5.717857867209952e-06
5.717857891713234e-06
5.717857920264921e-06
5.717857879842631e-06
5.71785784542107e-06
5.717857868403563e-06
5.71785786144713e-06
5.717857937209087e-06
5.717857855980115e-06
5.71785784275888e-06
5.717857882540168e-06
5.717857898310015e-06
5.717857852182005e-06
5.717857892999569e-06
5.71785782343866e-06
5.7178578346558e-06
5.717857844026908e-06
5.717857862757446e-06
5.717857879656636e-06
5.717857857067803e-06
5.717857842214597e-06
5.717857835440989e-06
5.717857827153588e-06
5.71785784326386e-06
5.717857800086298e-06
5.717857858431349e-06
5.717857829055731e-06
5.717857834641879e-06
5.717857786994055e-06
5.717857867961784e-06
5.717857810659547e-06
5.717857814762573e-06
5.717857816870045e-06
5.717857832483268e-06
5.717857803724382e-06
5.717857838017757e-06
5.717857836517129e-06
5.717857861039477e-06
5.717857912345175e-06
5.717857867578669e-06
5.717857931861219e-06
5.717857883957664e-06
5.717857914706721e-06
5.71785787833659e-06
5.717857878950143e-06
5.717857821831599e-06
5.717857794932887e-06
5.717857832332456e-06
5.717857839745303e-06
7.167475401057867e-07
7.167471791288613e-07
7.167477806921121e-07
7.16747540193145e-07
7.167478261939172e-07
7.167477806755875e-07
7.16747812993153e-07
7.167476294191785e-07
7.167478931542946e-07
7.167476551002252e-07
7.16747502374995e-07
7.167476451574029e-07
7.167473839035931e-07
7.16747279172321e-07
7.167472751087762e-07
7.167471654209258e-07
7.167467390441786e-07
7.16747202646117e-07
7.1674652299807e-07
7.167467206376208e-07
7.167467378515679e-07
7.167465375629868e-07
7.167467289066102e-07
7.167467770827401e-07
7.167466994395425e-07
7.16746535230838e-07
7.167468236899604e-07
7.167465000574685e-07
7.167468655816424e-07
7.167465620202683e-07
7.167465621323321e-07
7.167463568711203e-07
7.167466640506865e-07
7.167463314578048e-07
7.16746658207524e-07
7.167463933907321e-07
7.167466068835147e-07
7.167463428996264e-07
7.167465972937137e-07
7.167464649494252e-07
7.167466638009409e-07
7.167466309631722e-07
7.167463946299739e-07
7.167464757042275e-07
7.167467080272255e-07
7.167466483711987e-07
7.167464834748212e-07
7.167467256249276e-07
7.167466130473652e-07
7.167466869746528e-07
7.167467402967931e-07
7.167466530081963e-07
7.167467537805686e-07
7.16746673436125e-07
7.167467296269806e-07
7.167465604777105e-07
7.16746935417999e-07
7.167467363347851e-07
7.16746801831254e-07
7.167470243500637e-07
7.167468547465921e-07
7.16746901397882e-07
7.167470190688422e-07
7.167471432499789e-07
7.167469641760479e-07
7.167472836393229e-07
7.167472447431847e-07
7.167476037793145e-07
7.167475587799947e-07
7.167474811238576e-07
7.16747560472209e-07
7.167477512184127e-07
7.16747620736963e-07
7.167476157241299e-07
7.16747924306349e-07
7.167477130635054e-07
7.167476906602702e-07
7.167478435789288e-07
7.167477242467356e-07
7.167478429544373e-07
7.167477843494081e-07
7.167478209074761e-07
7.167477456609873e-07
7.16748195220791e-07
7.167481050714069e-07
7.167483036871637e-07
7.167484366144065e-07
9.165923984293724e-07
9.165912661871504e-07
9.165947956456734e-07
9.165925591096672e-07
9.165944552123356e-07
9.165931216978601e-07
9.165939581800378e-07
9.165928107348083e-07
9.165945441736702e-07
9.165925097355368e-07
9.165921465073116e-07
9.165931626586041e-07
9.165917231670921e-07
9.165906673418594e-07
9.165916685987353e-07
9.165906257465149e-07
9.165887059330356e-07
9.165911975420188e-07
9.165878874431887e-07
9.165892821357609e-07
9.16589788139517e-07
9.165882202288424e-07
9.165893679607784e-07
9.165895758957291e-07
9.165889581091521e-07
9.165883841891347e-07
9.165902064661956e-07
9.165883009707334e-07
9.165899109417871e-07
9.165881731081601e-07
9.165881650633524e-07
9.165875960686916e-07
9.165894122533447e-07
9.165876858451785e-07
9.165888960418836e-07
9.165878241324301e-07
9.16588681055515e-07
9.16587098050424e-07
9.165891606111012e-07
9.165879828355238e-07
9.165880796292553e-07
9.165892055869587e-07
9.165874698515566e-07
9.165880137223035e-07
9.165895692170078e-07
9.165884249673973e-07
9.165877873871993e-07
9.165896408107834e-07
9.16588833909825e-07
9.165890644817413e-07
9.165897994400368e-07
9.165889072302423e-07
9.165895356937698e-07
9.165890336265965e-07
9.165893891721529e-07
9.165886800702242e-07
9.165906987495947e-07
9.165892369546458e-07
9.165890937238625e-07
9.165908281052814e-07
9.165894082937178e-07
9.165899571215287e-07
9.165908614253076e-07
9.165913614409643e-07
9.165900206245096e-07
9.165924156679959e-07
9.165916174594509e-07
9.165924218430655e-07
9.165934218940371e-07
9.165926341764317e-07
9.165929572369356e-07
9.165944705218169e-07
9.165929702367241e-07
9.165931262335683e-07
9.165948295131636e-07
9.165937062079632e-07
9.165930996462779e-07
9.165947497639279e-07
9.165936943428933e-07
9.165937355167235e-07
9.165939887356706e-07
9.165945628666836e-07
9.165937650753339e-07
9.165962791530398e-07
9.165952616139092e-07
9.16595579043955e-07
9.165965831941834e-07
2.164599641948529e-06
2.164600140780149e-06
2.164608723690998e-06
2.164603403045171e-06
2.164608382909782e-06
2.164601996643782e-06
2.164604412026576e-06
2.164599251351444e-06
2.164609754972913e-06
2.16459622290413e-06
2.164600941139642e-06
2.164607093006577e-06
2.164595967596423e-06
2.164598220977154e-06
2.16460347598774e-06
2.164595332302645e-06
2.164592867404788e-06
2.16460220245545e-06
2.164590694961453e-06
2.164593893404922e-06
2.164600767342044e-06
2.164588807994611e-06
2.164593606920599e-06
2.164599549768208e-06
2.164589548744522e-06
2.164591779273443e-06
2.164598671871673e-06
2.16459216102798e-06
2.164593406592403e-06
2.164597198114179e-06
2.16459134769116e-06
2.164589578444688e-06
2.164598198246257e-06
2.164591189484351e-06
2.164590112240506e-06
2.164597123637602e-06
2.164591981824734e-06
2.16458971737906e-06
2.164598375829988e-06
2.164592250706434e-06
2.164590694516978e-06
2.164598684114905e-06
2.164592161909754e-06
2.164591121176187e-06
2.164600514582831e-06
2.164589395194852e-06
2.164592662757318e-06
2.164599460636044e-06
2.164592615879826e-06
2.164591795450622e-06
2.164600346097447e-06
2.16459004609821e-06
2.164594322096399e-06
2.164600763026496e-06
2.164591541794023e-06
2.164595093533751e-06
2.164603315299045e-06
2.164592462837286e-06
2.164596950542264e-06
2.164603592638724e-06
2.164597883631548e-06
2.164597190480987e-06
2.164605261219887e-06
2.16460041962265e-06
2.164598244582528e-06
2.164607464527401e-06
2.164601373900483e-06
2.164600702968677e-06
2.164609925538406e-06
2.164599445445944e-06
2.164603436230939e-06
2.164609804107212e-06
2.16460337269565e-06
2.164602343432431e-06
2.164610880853088e-06
2.164604718767847e-06
2.164603173940366e-06
2.164612125154853e-06
2.164605047373056e-06
2.164606919101382e-06
2.164612729915436e-06
2.164608452885964e-06
2.164606017769583e-06
2.164615435952375e-06
2.164608883985417e-06
2.164605929308923e-06
2.16461311628459e-06
4.670615750390834e-06
4.670609385852765e-06
4.670632516787577e-06
4.670618511902271e-06
4.670619836685391e-06
4.670629192969819e-06
4.670607692639952e-06
4.670611900804056e-06
4.670634722911674e-06
4.670599491886449e-06
4.670613444494203e-06
4.670631684565677e-06
4.670600305884093e-06
4.670610087365549e-06
4.670627115488275e-06
4.670594538747499e-06
4.67060277620518e-06
4.670620912217811e-06
4.670599735298122e-06
4.670597230374369e-06
4.670621127426246e-06
4.670587861045326e-06
4.670599658777431e-06
4.670618581300969e-06
4.670587066096367e-06
4.67059787699409e-06
4.67061726490635e-06
4.670587744640736e-06
4.670598663797637e-06
4.670616725645376e-06
4.670588196455466e-06
4.670597489441462e-06
4.670615315010499e-06
4.670596119758171e-06
4.670592811566334e-06
4.670614949612136e-06
4.6705964346188e-06
4.670594045047728e-06
4.670616644575883e-06
4.670598574291735e-06
4.67059553297728e-06
4.670618030132493e-06
4.670598834464396e-06
4.670596727648913e-06
4.670621935519763e-06
4.670590211486277e-06
4.670601178387543e-06
4.670620613302431e-06
4.670590722599221e-06
4.670600863113367e-06
4.670620771726672e-06
4.670591016578567e-06
4.670603341979844e-06
4.670623474169768e-06
4.670594249781332e-06
4.670607170765207e-06
4.670627801969466e-06
4.670598193410926e-06
4.670611227473773e-06
4.67063143460951e-06
4.670603703965115e-06
4.670614020315153e-06
4.670632273237568e-06
4.670614465167591e-06
4.670611488095889e-06
4.670634188661791e-06
4.67061526518178e-06
4.670612764360708e-06
4.670638054023634e-06
4.670606770290252e-06
4.670618558795321e-06
4.670637123075086e-06
4.670611827676892e-06
4.670619464855189e-06
4.670638035051818e-06
4.670620271837888e-06
4.670618151846619e-06
4.670641654726929e-06
4.670623613345399e-06
4.670623164153778e-06
4.670645083558169e-06
4.67062737458563e-06
4.670623459824076e-06
4.670645640392047e-06
4.670625461734513e-06
4.670617124095045e-06
4.670637691600714e-06
8.819158577172259e-06
8.819145912381503e-06
8.819191970314721e-06
8.819158534866339e-06
8.819151700183722e-06
8.819192534343027e-06
8.81913513847646e-06
8.819153109081333e-06
8.819196264862784e-06
8.819127209266505e-06
8.819155427364106e-06
8.819194937900133e-06
8.819130369028896e-06
8.819153386981686e-06
8.819190568671837e-06
8.819121127772566e-06
8.819142934164106e-06
8.819179403972712e-06
8.819135859702452e-06
8.819131036343146e-06
8.819180938141938e-06
8.819112387654032e-06
8.81913476501766e-06
8.819176193247094e-06
8.81910759507632e-06
8.819133615760474e-06
8.819171679746367e-06
8.819108742879977e-06
8.819132552817545e-06
8.819174187925658e-06
8.819110387386289e-06
8.819134789545309e-06
8.819169221836538e-06
8.81912908572879e-06
8.819123082193797e-06
8.819169585604321e-06
8.819128271425055e-06
8.819126258560442e-06
8.819172118816336e-06
8.819133420520324e-06
8.819129060303809e-06
8.819175670928731e-06
8.819134311752085e-06
8.819131596355921e-06
8.819183037073125e-06
8.819117008023597e-06
8.819140888540599e-06
8.81918073275442e-06
8.819115147842655e-06
8.819139443457918e-06
8.819179646812703e-06
8.819117153438931e-06
8.819142784211863e-06
8.819185391134197e-06
8.819122726692017e-06
8.81915104301896e-06
8.819191938486265e-06
8.819131364973834e-06
8.819157906580084e-06
8.81920000722716e-06
8.819138335654844e-06
8.81916263460501e-06
8.81919891867887e-06
8.819158213639197e-06
8.819154425256113e-06
8.819198738412735e-06
8.819157555473107e-06
8.819152335525106e-06
8.819203952209406e-06
8.819137889665396e-06
8.819162815704812e-06
8.819203109397261e-06
8.819141636474104e-06
8.819165211597368e-06
8.819202011322903e-06
8.819164310644959e-06
8.819161848671202e-06
8.819209528719502e-06
8.819171332191486e-06
8.819169049204937e-06
8.819215973369744e-06
8.819174026320144e-06
8.819168517977431e-06
8.819211064876127e-06
8.819164534843246e-06
8.819155104314641e-06
8.819200187589361e-06
1.502162183832208e-05
1.502159972563631e-05
1.502167724119529e-05
1.502161615770006e-05
1.502160294760746e-05
1.502168255622561e-05
1.502157509369747e-05
1.502161374182104e-05
1.502168490997873e-05
1.502157041773305e-05
1.50216173841865e-05
1.502168846364934e-05
1.502157793689143e-05
1.50216190796831e-05
1.502168650510538e-05
1.502156613534124e-05
1.502160642794528e-05
1.502166952030836e-05
1.502159610798953e-05
1.502158697847584e-05
1.502167439782621e-05
1.502155609190425e-05
1.502159128534881e-05
1.502166630379833e-05
1.502154381021459e-05
1.502159130060311e-05
1.502165454075758e-05
1.502154633789222e-05
1.502158622149523e-05
1.502166219451951e-05
1.502154903226075e-05
1.502159322932796e-05
1.502165133167009e-05
1.50215821964055e-05
1.50215710010611e-05
1.502165235039871e-05
1.502157900765596e-05
1.502157622509081e-05
1.502165575154305e-05
1.502158817730151e-05
1.502158114625994e-05
1.502166284940627e-05
1.502159027879175e-05
1.502158605485363e-05
1.502167552351485e-05
1.502156093532618e-05
1.502160290690517e-05
1.5021671484143e-05
1.50215570919383e-05
1.502159851733991e-05
1.502166829653261e-05
1.502155885530286e-05
1.502160205352744e-05
1.502167724134123e-05
1.502156650549793e-05
1.502161580371081e-05
1.502168501496522e-05
1.502158027886379e-05
1.502162518884982e-05
1.502169815183857e-05
1.502158913702974e-05
1.502163136359526e-05
1.502169380023282e-05
1.502162026443885e-05
1.502161481502334e-05
1.50216893577943e-05
1.502161824201619e-05
1.502160632541314e-05
1.502169699977478e-05
1.502158146229047e-05
1.502162484903221e-05
1.502169588952138e-05
1.502158608226653e-05
1.502162865392615e-05
1.502169197929044e-05
1.502162705239408e-05
1.502162113882806e-05
1.502170344687492e-05
1.502163765821926e-05
1.502162964941205e-05
1.5021712817707e-05
1.502163722287006e-05
1.502162783505817e-05
1.502170344619869e-05
1.502160007021707e-05
1.502161888061555e-05
1.502168898675309e-05
2.386107890259435e-05
2.386105189160887e-05
2.386116078367129e-05
2.386106774788699e-05
2.386105174681158e-05
2.386117568493717e-05
2.386100570902241e-05
2.386107198429737e-05
2.386117708058743e-05
2.386100841399509e-05
2.386107641636462e-05
2.386118969284335e-05
2.386102257325875e-05
2.38610860348551e-05
2.386119155227646e-05
2.386101387915874e-05
2.386107410627126e-05
2.386117300401216e-05
2.386106330339662e-05
2.38610465526751e-05
2.386118426742277e-05
2.386100160798456e-05
2.38610497397787e-05
2.386116739240158e-05
2.386097988247654e-05
2.386105030709521e-05
2.386114133127813e-05
2.386098156070981e-05
2.386103637383789e-05
2.386115708853011e-05
2.386098513581902e-05
2.386105021052719e-05
2.386113860925036e-05
2.386103689913804e-05
2.386101221068267e-05
2.386114009701102e-05
2.386102892954573e-05
2.386101957776452e-05
2.386114349773578e-05
2.386104369377552e-05
2.386102729941121e-05
2.386115645844104e-05
2.386104729150067e-05
2.38610365043523e-05
2.386117702070568e-05
2.386100124489285e-05
2.386106543676768e-05
2.386117025688282e-05
2.386099510109293e-05
2.386105463928789e-05
2.386116302894972e-05
2.386099266279394e-05
2.386105570409806e-05
2.386117153471817e-05
2.386100315463217e-05
2.386107505613034e-05
2.386117721028576e-05
2.38610209201544e-05
2.38610856822706e-05
2.386119647641558e-05
2.386103215032468e-05
2.386109350522906e-05
2.386118975241009e-05
2.386107745109375e-05
2.386106691216679e-05
2.386118191007687e-05
2.386107218011631e-05
2.386105059518503e-05
2.38611910726339e-05
2.386101730588149e-05
2.386108070789636e-05
2.386119010784473e-05
2.386102411096908e-05
2.3861084436209e-05
2.386118411938518e-05
2.386108281834189e-05
2.386106906611846e-05
2.386119858125761e-05
2.386109556849406e-05
2.386107794572791e-05
2.386121182376886e-05
2.386109300766063e-05
2.386107671407361e-05
2.386119081935498e-05
2.386103419077809e-05
2.386106606646428e-05
2.386117911202342e-05
3.643567898203514e-05
3.643571615741174e-05
3.643580111717044e-05
3.643566072201922e-05
3.643569489356068e-05
3.643583096882951e-05
3.643559230667837e-05
3.643569710482353e-05
3.643583028746671e-05
3.643561120313583e-05
3.643569909449256e-05
3.643585555444239e-05
3.643563130168215e-05
3.643571447397445e-05
3.64358549245689e-05
3.643564682495782e-05
3.64357120565918e-05
3.643584774919065e-05
3.643569640719415e-05
3.643568070755688e-05
3.643587192058483e-05
3.643561805722871e-05
3.643567515772901e-05
3.643583779851168e-05
3.64355925812357e-05
3.643567134373989e-05
3.643579084514631e-05
3.643558557716513e-05
3.643564126924287e-05
3.643581817401165e-05
3.643559357152728e-05
3.643566807475594e-05
3.643579097710378e-05
3.643566145438576e-05
3.643561037321119e-05
3.643579423706272e-05
3.64356447513988e-05
3.643562025654438e-05
3.643579525119012e-05
3.643566626359838e-05
3.643562964554286e-05
3.643581608010479e-05
3.643567030998415e-05
3.643564557926105e-05
3.643584394139309e-05
3.643560217250353e-05
3.643569335040938e-05
3.643583426334213e-05
3.643559540942233e-05
3.643567345535717e-05
3.643582230993047e-05
3.643558454861998e-05
3.643566479265722e-05
3.643582367883391e-05
3.64356036797156e-05
3.643568462919378e-05
3.643582021968781e-05
3.643561958222127e-05
3.643569146172274e-05
3.643584522563093e-05
3.643563692942173e-05
3.64357039414854e-05
3.643584230791413e-05
3.64356920514588e-05
3.6435680179944e-05
3.6435829556007e-05
3.643567700917999e-05
3.643565044354818e-05
3.643584463232355e-05
3.643561846241435e-05
3.643569107309698e-05
3.643584597087216e-05
3.643563119946888e-05
3.643570011117446e-05
3.643583986409062e-05
3.643569049321914e-05
3.643567822912398e-05
3.643585499012969e-05
3.64357017303656e-05
3.643568406244732e-05
3.643587015829345e-05
3.643570023761931e-05
3.643568347003805e-05
3.643582313130083e-05
3.643567911230654e-05
3.643563248772728e-05
3.643583283740977e-05
5.524544853383607e-05
5.524549182652128e-05
5.524543619900802e-05
5.524544004153882e-05
5.524540579555017e-05
5.524554476128861e-05
5.524524712664362e-05
5.524539897171773e-05
5.524553266886154e-05
5.524529590496152e-05
5.5245382182323e-05
5.524557745271071e-05
5.524531683974281e-05
5.524540480798266e-05
5.52455695960441e-05
5.524539099776753e-05
5.524538652052198e-05
5.524559630166847e-05
5.524534685217603e-05
5.524542939501858e-05
5.524562127187673e-05
5.524529956258682e-05
5.524536366749171e-05
5.524554070599891e-05
5.524534247247933e-05
5.52453193513266e-05
5.524547058320338e-05
5.524530824106175e-05
5.524525957969384e-05
5.524551159524589e-05
5.524533060307315e-05
5.524531354687244e-05
5.524549050028396e-05
5.524535100675136e-05
5.52452621134922e-05
5.524549579056499e-05
5.524531951773716e-05
5.524527546458229e-05
5.524549083471744e-05
5.524535127210597e-05
5.524528305333959e-05
5.524552023332826e-05
5.524535112712452e-05
5.524530695955729e-05
5.524555260630084e-05
5.524525622656047e-05
5.52453767995992e-05
5.524553670459522e-05
5.524524953681294e-05
5.524534322913818e-05
5.524552183537457e-05
5.524522401165915e-05
5.524532067981644e-05
5.524549371637989e-05
5.524532109645364e-05
5.524530292610163e-05
5.52454819881266e-05
5.524533193667044e-05
5.524529441802097e-05
5.52455223306424e-05
5.524533545076605e-05
5.524531804826228e-05
5.524552756479797e-05
5.52453601436658e-05
5.524537761322438e-05
5.524552604332207e-05
5.524528635865009e-05
5.524534339022232e-05
5.524552867390269e-05
5.524535061128973e-05
5.524532485828179e-05
5.524553779591521e-05
5.524537164232761e-05
5.52453488018735e-05
5.524556567865211e-05
5.524530939251567e-05
5.524539851245738e-05
5.524558561655913e-05
5.524531794246859e-05
5.524540497528667e-05
5.524560138549002e-05
5.524532356795317e-05
5.52454023429302e-05
5.524551686084581e-05
5.524538897095809e-05
5.524527149932044e-05
5.524550829980025e-05
8.830315481476081e-05
8.830319395183689e-05
8.830314931775288e-05
8.830317038941068e-05
8.830313141072217e-05
8.830324567408876e-05
8.830290901715591e-05
8.830305067519317e-05
8.830321961392817e-05
8.830302660180488e-05
8.830300269221727e-05
8.830324223993196e-05
8.83030316793102e-05
8.830298928932636e-05
8.830315296984678e-05
8.830298322352314e-05
8.830294354728879e-05
8.830318991997176e-05
8.830284005044938e-05
8.830296549238913e-05
8.830316267977986e-05
8.830278002568262e-05
8.830288328965269e-05
8.830309078618613e-05
8.830275994276504e-05
8.830285960374819e-05
8.830303311957029e-05
8.830274793284846e-05
8.830283584572619e-05
8.83030740160861e-05
8.830276794245971e-05
8.830285992308032e-05
8.830304684160121e-05
8.83028413704858e-05
8.830277699269349e-05
8.830303054647052e-05
8.830281431140709e-05
8.830278476415929e-05
8.83030378699014e-05
8.830284177982599e-05
8.830279321740064e-05
8.830303547546489e-05
8.830283116603904e-05
8.830278766920916e-05
8.830305755525608e-05
8.830270816360562e-05
8.830284143952103e-05
8.830303628632986e-05
8.830268661294395e-05
8.830282094992209e-05
8.830302051497619e-05
8.830268471725655e-05
8.830281746307885e-05
8.830302641678822e-05
8.83027281625814e-05
8.830282819820061e-05
8.830302720311693e-05
8.830283138117958e-05
8.830279768400553e-05
8.83030498779564e-05
8.830283596469015e-05
8.830281444888624e-05
8.83030534260645e-05
8.830284088269923e-05
8.830282723533067e-05
8.830304169274023e-05
8.830284753532723e-05
8.830283677016959e-05
8.830310809460092e-05
8.830284952766816e-05
8.830295264067499e-05
8.83031865996213e-05
8.83029186199464e-05
8.830303609956916e-05
8.83032687874096e-05
8.830295771104322e-05
8.83031147915659e-05
8.830332077831176e-05
8.830299653736814e-05
8.830312752783962e-05
8.830331985611646e-05
8.830296652134353e-05
8.830305207800427e-05
8.830321681389338e-05
8.830302272314182e-05
8.830291887677508e-05
8.830318916077088e-05
0.000157119646248322
0.0001571197339232218
0.0001571196782298915
0.0001571197444449589
0.0001571196795310202
0.0001571197780910046
0.0001571194438391353
0.000157119579868815
0.000157119781008745
0.00015711956488445
0.0001571195195787997
0.0001571197431305236
0.0001571195754674778
0.0001571194919931014
0.0001571194812712437
0.0001571193817619019
0.000157119403011814
0.0001571195380916696
0.000157119150910077
0.000157119276102116
0.0001571194701190026
0.0001571190548695822
0.0001571191720805531
0.0001571193713745887
0.000157119004959558
0.0001571191501915333
0.0001571193282863556
0.0001571190017546826
0.0001571191274863821
0.0001571193603017236
0.0001571190290896788
0.0001571191377433054
0.0001571193284277921
0.0001571190890635286
0.0001571190276885067
0.0001571192836555862
0.0001571190461390136
0.0001571190254160476
0.0001571192912691776
0.0001571190911447524
0.000157119034119798
0.0001571192322732063
0.0001571190588109433
0.000157118986846548
0.0001571192555117128
0.000157118883319642
0.0001571190213719039
0.0001571192187160499
0.0001571188458385706
0.0001571190004013216
0.0001571192035956843
0.0001571188746789064
0.0001571190174884874
0.0001571192398982551
0.0001571189183526658
0.000157119055051574
0.0001571192751856654
0.0001571190615848552
0.0001571190299845012
0.0001571192952862384
0.0001571190738447965
0.000157119046594504
0.0001571192933272899
0.0001571190679728099
0.0001571190543908055
0.0001571193149748073
0.0001571191220649322
0.0001571191365128546
0.0001571194489890381
0.0001571192038964077
0.0001571193696540745
0.0001571196223271965
0.0001571193913297708
0.0001571195524611447
0.0001571198064460738
0.0001571195026138142
0.0001571196995943211
0.0001571199163639927
0.0001571195896097857
0.0001571197368269415
0.0001571198574594419
0.0001571195707418581
0.0001571195232171203
0.0001571197414004445
0.0001571195117519589
0.0001571194366124449
0.0001571197118279867
0.0002989996811390391
0.0002989997906533368
0.0002989997158135129
0.000298999796099362
0.0002989997669452365
0.0002989998084576876
0.0002989995631100407
0.0002989996675422798
0.0002989998971288269
0.0002989996783560241
0.0002989996085526491
0.0002989997788894095
0.0002989995184825805
0.0002989993795752196
0.0002989993748075365
0.0002989992258405035
0.0002989991634840815
0.0002989992146571116
0.0002989989925435178
0.0002989989457767307
0.000298999167311589
0.0002989987591145387
0.000298998835407348
0.0002989990027373853
0.0002989986555213445
0.0002989988182576756
0.0002989989501504755
0.0002989987508969426
0.0002989987256016942
0.0002989989803927885
0.0002989987690840335
0.0002989987162744979
0.0002989989373682047
0.000298998681831285
0.0002989986088580877
0.0002989988375219609
0.0002989985816328072
0.0002989985705748924
0.0002989988217875338
0.0002989986958544074
0.0002989986441825549
0.0002989985527789078
0.0002989986537083829
0.0002989984691449101
0.0002989987075458698
0.0002989983567410956
0.0002989984687536813
0.0002989986486593735
0.0002989982969910163
0.0002989984390868925
0.000298998621415606
0.0002989984729690306
0.0002989984071576944
0.0002989987261591683
0.0002989984424799228
0.0002989985680365552
0.0002989988030705129
0.0002989985886022717
0.0002989985736564579
0.0002989988442865722
0.0002989986463924409
0.0002989985965871691
0.0002989988440811509
0.0002989986313671113
0.0002989986341919729
0.0002989989241902049
0.0002989987849251393
0.0002989988180425015
0.0002989991523853986
0.0002989991277772475
0.0002989992088479091
0.0002989994939482724
0.0002989994970415915
0.0002989995700843111
0.0002989998771843008
0.0002989996431977307
0.0002989998361404791
0.0002990000751925637
0.0002989998755970534
0.0002989999993464173
0.0002989998980085103
0.0002989996775081975
0.0002989995784221196
0.0002989998075845305
0.0002989994768173425
0.0002989995115906171
0.0002989997085809569
0.0005765472641257041
0.0005765473920172758
0.0005765473185364119
0.0005765474190645311
0.0005765472736625279
0.0005765472597428246
0.0005765474297003375
0.0005765473068681639
0.0005765476282577071
0.0005765474347197047
0.0005765473432387987
0.0005765472749305745
0.0005765470376938862
0.0005765468584299013
0.0005765467513291925
0.0005765465843926652
0.000576546277234628
0.0005765461710870857
0.0005765462199466541
0.0005765461700887114
0.000576546252599739
0.0005765458502550328
0.0005765458968020561
0.000576545949761287
0.0005765457877136583
0.000576545793516989
0.0005765459970375148
0.0005765457368372466
0.0005765457921897939
0.0005765459622647379
0.0005765457268819467
0.0005765457073913376
0.000576545860272161
0.0005765455479229039
0.0005765455191809561
0.0005765456364966255
0.0005765453253959203
0.0005765454243178884
0.0005765456261342867
0.0005765453382559509
0.0005765453049964889
0.0005765452517151198
0.0005765453476915038
0.0005765452512787915
0.0005765453401203455
0.0005765451180624349
0.0005765451443266176
0.0005765452359921538
0.0005765450495151681
0.0005765450629563586
0.0005765453022463343
0.0005765451354291014
0.0005765451633855449
0.0005765454230955475
0.0005765452198547492
0.0005765453506401423
0.0005765455719546837
0.0005765453273294365
0.0005765454424997738
0.0005765456593853605
0.0005765455421324098
0.0005765454538534628
0.0005765456857112076
0.0005765455058885273
0.0005765455300492563
0.0005765458269258424
0.0005765458444904955
0.0005765458756152938
0.0005765462588957683
0.0005765462238830741
0.0005765463927046005
0.0005765468440696251
0.0005765468797945311
0.0005765470252931726
0.0005765474817583362
0.0005765474957904857
0.0005765474749135182
0.0005765479158922875
0.0005765477816516943
0.0005765478816638008
0.0005765474623125393
0.0005765473371937365
0.000576547316203109
0.000576547465362681
0.0005765471555362688
0.000576547135878955
0.0005765472973915555
0.001058203283852838
0.001058203414602778
0.00105820327481147
0.001058203326223142
0.00105820339576462
0.001058203505507943
0.001058203693288805
0.001058203566102522
0.001058203869895448
0.001058203686868982
0.001058203610755723
0.001058203165522269
0.001058203060602451
0.001058202834181246
0.001058202354283688
0.001058202338720029
0.001058201904497482
0.001058201708409378
0.001058201668273417
0.001058201654536087
0.001058201650245454
0.00105820134137346
0.001058201207868661
0.001058201135020828
0.001058201234093582
0.001058201164172257
0.001058201346243972
0.001058201120621709
0.001058201227557281
0.001058201103673945
0.001058201196108446
0.001058201030918187
0.001058201043581978
0.001058200883449259
0.001058200619945038
0.001058200524627135
0.001058200388195651
0.001058200424311499
0.00105820055579516
0.001058200235783736
0.001058200238828344
0.001058200144037412
0.001058200244614955
0.001058200150448935
0.001058200161177512
0.001058200022701981
0.001058199933954585
0.001058200033629729
0.001058199870648144
0.001058199897483451
0.001058200157199454
0.001058200029632923
0.001058200096765494
0.00105820030949779
0.00105820025285968
0.001058200331306662
0.001058200552181868
0.001058200505011515
0.001058200541235317
0.001058200707365186
0.001058200581694132
0.001058200649121417
0.001058200784574033
0.001058200643686268
0.001058200704669563
0.001058201006645536
0.001058200952233754
0.001058201151240546
0.001058201637934808
0.001058201630015834
0.001058202123649876
0.001058202488243012
0.001058202708606992
0.001058203139392735
0.00105820357162554
0.001058203544724464
0.001058203777850385
0.001058204218883496
0.00105820417155836
0.001058204031329489
0.001058203743751131
0.00105820361234492
0.001058203422370635
0.001058203434424332
0.001058203277731368
0.001058203248579186
0.001058203285255672
0.001762326955843836
0.001762327202869192
0.001762327078778673
0.001762327179934936
0.001762327253821416
0.001762327421244051
0.001762327602337987
0.001762327623908734
0.001762327944695814
0.001762327712710695
0.001762327568490934
0.001762326944837372
0.001762326890783572
0.001762326323604887
0.001762326021521151
0.001762325750477359
0.001762325386454306
0.001762325118488271
0.001762325040447746
0.001762325014838028
0.001762324994859445
0.001762324657713378
0.00176232466099772
0.00176232444156794
0.00176232448758981
0.00176232448012962
0.001762324648493748
0.001762324541415909
0.0017623245560161
0.001762324463343187
0.001762324460504395
0.001762324306527246