/*--------------------------------*- C++ -*----------------------------------*\
| =========                 |                                                 |
| \\      /  F ield         | OpenFOAM: The Open Source CFD Toolbox           |
|  \\    /   O peration     | Version:  v1812                                 |
|   \\  /    A nd           | Web:      www.OpenFOAM.com                      |
|    \\/     M anipulation  |                                                 |
\*---------------------------------------------------------------------------*/
FoamFile
{
    version     2.0;
    format      ascii;
    class       volScalarField;
    location    "10000";
    object      nuTilda;
}
// * * * * * * * * * * * * * * * * * * * * * * * * * * * * * * * * * * * * * //

dimensions      [0 2 -1 0 0 0 0];


internalField   nonuniform List<scalar> 
5655
(
0.0004955731019120466
0.0004955730886198861
0.0004955730875629344
0.0004955730897084602
0.0004955730879602955
0.0004955730890665514
0.0004955730886282691
0.0004955730901605016
0.0004955730901082966
0.0004955730882988516
0.0004955730901725458
0.0004955730906016243
0.0004955730882684764
0.000495573089735906
0.000495573090050424
0.000495573087912352
0.000495573089231695
0.0004955730876613601
0.0004955730897899253
0.0004955730897817924
0.0004955730885522327
0.0004955730893526189
0.0004955730886911445
0.0004955730900047438
0.0004955730879943766
0.0004955730897437492
0.0004955730885945971
0.0004955730887321237
0.0004955730871846272
0.0004955730879553927
0.0004955730881287546
0.000495573087747365
0.0004955730880527011
0.0004955730888171952
0.0004955730870410031
0.0004955730887632704
0.0004955730872626759
0.000495573087960591
0.0004955730891355639
0.0004955730868736508
0.0004955730878942898
0.0004955730874501724
0.000495573090423472
0.0004955730879252347
0.0004955730888065306
0.0004955730863617115
0.0004955730884466416
0.0004955730889617899
0.0004955730876370079
0.0004955730885497746
0.0004955730872815536
0.0004955730876882281
0.0004955730872166055
0.0004955730884066298
0.0004955730881433819
0.000495573087450403
0.0004955730876698847
0.0004955730870005297
0.0004955730882464929
0.0004955730857100225
0.0004955730889151086
0.0004955730873420365
0.0004955730874303948
0.0004955730856580797
0.0004955730866771925
0.0004955730868810001
0.0004955730869168054
0.0004955730855481339
0.0004955730862830156
0.0004955730878206377
0.0004955730866141006
0.0004955730863744232
0.0004955730888856782
0.0004955730868231766
0.0004955730894680288
0.0004955730859542332
0.0004955730888503678
0.0004955730878620271
0.0004955730884961152
0.0004955730880132885
0.0004955730885744218
0.0004955730883663621
0.0004955730881420745
0.000495573087881326
0.0004955730872777799
0.0004955730873648983
0.0004955730865043706
0.0002942023246609185
0.0002942022851468653
0.000294202335245025
0.0002942023195066305
0.0002942023350750709
0.0002942023348721182
0.00029420233153893
0.0002942023347458407
0.0002942023615695114
0.0002942023153404813
0.0002942023228541288
0.0002942023353371722
0.0002942022830878966
0.0002942022921589521
0.0002942022968740921
0.0002942022375708109
0.0002942022400652972
0.0002942022538609467
0.0002942022374015355
0.0002942022372669419
0.0002942022291927828
0.0002942022201817145
0.0002942022386876158
0.0002942022549177864
0.0002942022245846385
0.0002942022197334539
0.00029420224401903
0.000294202208237683
0.0002942022294218774
0.0002942022147794605
0.0002942022064805415
0.0002942021943300046
0.000294202228775291
0.000294202187599364
0.0002942022101335049
0.0002942022081105842
0.0002942021995259776
0.0002942021967609581
0.0002942022303137405
0.0002942021793938734
0.0002942022198671573
0.0002942022248950766
0.0002942022250984879
0.0002942022078586633
0.000294202233739846
0.0002942021983982194
0.0002942022153364315
0.0002942022377669691
0.0002942022188122315
0.0002942022394117228
0.0002942022273673316
0.000294202219367948
0.0002942022304344005
0.0002942022349377184
0.0002942022439792848
0.0002942022087051345
0.0002942022486093256
0.0002942022390929015
0.0002942022380958313
0.0002942022485099688
0.000294202261473824
0.0002942022613923062
0.0002942022578128356
0.0002942022510159282
0.0002942022546307479
0.0002942022911480742
0.0002942022787406713
0.0002942022990059472
0.0002942023106152006
0.0002942023244913002
0.0002942023038671311
0.0002942023335266881
0.0002942023366345686
0.0002942023214856019
0.0002942023750912839
0.0002942023045172424
0.0002942023359159039
0.0002942023432264393
0.0002942023295859623
0.0002942023435710227
0.000294202331688068
0.0002942023387553091
0.0002942023323792489
0.0002942023820703153
0.0002942023568720392
0.0002942023848419638
0.0002942023662590595
0.0003128983159493932
0.0003128981445895805
0.000312898399709772
0.0003128982644223694
0.0003128983709137586
0.0003128983006000708
0.0003128983464608053
0.0003128982959254405
0.000312898404589065
0.0003128982424916971
0.0003128982553548661
0.0003128982985266094
0.0003128980820493806
0.000312898139409149
0.000312898210196311
0.0003128978988071868
0.0003128979805251403
0.0003128980600078161
0.0003128979807229253
0.0003128979500513983
0.0003128979770485514
0.0003128979266738141
0.0003128979644297998
0.0003128980201981833
0.0003128979037962569
0.000312897881359174
0.0003128980307858577
0.0003128978801131424
0.0003128979463756052
0.0003128979011264444
0.00031289787279977
0.0003128978392581748
0.0003128979922320061
0.0003128977729735284
0.0003128978963640594
0.000312897911978697
0.0003128978194435915
0.0003128978587323506
0.0003128980194669433
0.0003128976939233722
0.000312897880975168
0.0003128979365888811
0.0003128978870968656
0.0003128978100965352
0.0003128980029666549
0.0003128978090921838
0.000312897897849085
0.0003128979933166303
0.0003128978789379867
0.0003128979593897244
0.0003128979735895045
0.000312897934850162
0.00031289794587162
0.0003128980148353085
0.0003128980753635864
0.0003128978194593863
0.000312898055510321
0.000312897985712566
0.0003128979250696588
0.0003128980387241629
0.0003128980634654858
0.0003128980040574992
0.0003128980505659791
0.0003128980335334939
0.0003128980937829386
0.0003128982413997889
0.0003128981362461293
0.0003128981491254425
0.0003128982645523583
0.0003128983145274647
0.0003128981810766983
0.0003128983618038422
0.0003128983270199209
0.0003128982519153002
0.0003128984960743486
0.0003128981695320917
0.0003128983562760815
0.0003128984445732427
0.0003128982980964825
0.0003128984007337271
0.0003128983178744232
0.0003128983590758708
0.0003128983543884714
0.0003128985801317649
0.0003128983660711733
0.0003128984985777025
0.0003128984539719019
0.0003881437967273151
0.0003881435169112362
0.0003881440032607046
0.0003881438065808433
0.0003881438868680899
0.0003881438094453711
0.0003881438382271632
0.0003881436950967548
0.0003881439722668509
0.0003881436916148798
0.0003881435328046186
0.0003881438500971716
0.0003881436518309565
0.0003881434260601723
0.0003881438281524982
0.0003881432224404061
0.0003881434303374444
0.0003881436895660639
0.0003881433918684895
0.0003881432421713241
0.0003881435760361297
0.0003881433849940221
0.0003881431967808837
0.0003881435389188544
0.0003881433849040156
0.0003881431209887005
0.0003881435395145256
0.0003881433746981023
0.0003881431743686939
0.0003881435349199605
0.0003881430793979809
0.0003881432801331516
0.0003881436345983522
0.000388142986409008
0.0003881433286391682
0.0003881435989117506
0.0003881430165936866
0.0003881433325065774
0.0003881436539765507
0.0003881430108253527
0.0003881433631797441
0.0003881436550137332
0.000388143065817969
0.0003881433501124083
0.0003881435707104172
0.0003881433754328945
0.000388143182111271
0.0003881436164615346
0.0003881432119451895
0.0003881433615275643
0.0003881435497306135
0.0003881434067545287
0.0003881432109558979
0.0003881435939133712
0.0003881434898035332
0.0003881432278945554
0.0003881436767817013
0.0003881435129661891
0.0003881433445106941
0.0003881437700864617
0.000388143494923721
0.0003881436082929307
0.0003881439296447343
0.0003881433928118616
0.0003881437092471122
0.0003881440480411142
0.0003881434506305672
0.0003881437595755902
0.0003881439706879436
0.0003881438384853257
0.0003881436246153032
0.000388144086174624
0.000388143626191486
0.0003881438386118597
0.0003881442093791506
0.0003881435630528695
0.0003881439134452333
0.0003881441576755113
0.0003881439218445981
0.0003881438454181287
0.0003881442630123837
0.0003881437632471424
0.0003881440422451553
0.0003881444070917118
0.000388143725276309
0.0003881440080625232
0.0003881441349102766
0.0004709409739747251
0.0004709412089682634
0.0004709416399066706
0.0004709413174128534
0.0004709411219504284
0.0004709414706729991
0.000470941320888628
0.0004709409269866548
0.0004709415649912346
0.0004709411495845501
0.000470940935920222
0.0004709414850943132
0.000470941167373509
0.0004709408519253364
0.0004709414036279959
0.0004709409479707489
0.0004709407576895217
0.000470941476943409
0.0004709405450567256
0.0004709409123982963
0.0004709412407763956
0.0004709408829735386
0.0004709405910975989
0.0004709411737748435
0.0004709408464482267
0.000470940546467937
0.0004709411474074779
0.0004709408320089146
0.0004709405541901553
0.0004709411328902133
0.0004709407634100927
0.0004709406072727213
0.0004709413249228961
0.0004709403670287838
0.0004709408595823019
0.0004709413251798073
0.0004709403734794253
0.0004709408949333406
0.0004709413649945723
0.0004709404254891675
0.000470940933524299
0.0004709414061567874
0.0004709404497045508
0.0004709409296687245
0.0004709412524060623
0.0004709409240670656
0.0004709406322239252
0.0004709412374656747
0.0004709408549236627
0.0004709406589194044
0.0004709412122378623
0.0004709409213041209
0.000470940660211725
0.0004709412785722643
0.0004709409992560413
0.0004709407520981631
0.0004709413778491748
0.0004709410946938545
0.0004709408676577833
0.0004709414879613796
0.000470941181106279
0.000470941020436523
0.0004709417468682832
0.0004709408271656549
0.0004709413307666511
0.0004709418043583079
0.0004709408518549998
0.0004709413173552238
0.0004709416439791652
0.0004709413265416681
0.0004709410584618
0.0004709416605442589
0.0004709413254275323
0.0004709411577969294
0.0004709419009485211
0.0004709409668020269
0.0004709414886025029
0.0004709419678309147
0.000470941134646947
0.0004709415718797893
0.000470942072091634
0.0004709411592649947
0.0004709416381862658
0.0004709420679490562
0.0004709410692418124
0.0004709414788083917
0.000470941881941611
0.000552895872764743
0.0005528963232786735
0.0005528969000292306
0.0005528958655160498
0.0005528962948255719
0.0005528966334025076
0.0005528962975468298
0.0005528958770430352
0.0005528966875107408
0.0005528961735367789
0.0005528959226311431
0.0005528966633294052
0.0005528962301286014
0.0005528958853696313
0.0005528966061888286
0.0005528960889299486
0.0005528957958987595
0.0005528967607589914
0.0005528954986785939
0.0005528960733427132
0.000552896473247759
0.0005528959741088121
0.000552895603625702
0.0005528963827226418
0.000552895889345352
0.0005528955848606337
0.0005528963153372563
0.0005528958904759209
0.0005528955533061469
0.000552896342826388
0.0005528958786277555
0.000552895638244657
0.0005528965592056764
0.0005528953565844598
0.0005528959650580383
0.0005528965808153364
0.0005528953399366368
0.0005528960166471291
0.0005528966149933054
0.0005528954247076935
0.0005528960658014371
0.0005528966836496223
0.000552895446176403
0.0005528960666123711
0.0005528964884970051
0.0005528960302699663
0.0005528956942504594
0.0005528964543441595
0.0005528959722491023
0.0005528956690535622
0.0005528964234676305
0.0005528959992583066
0.0005528957001120355
0.0005528965001494772
0.0005528960780544069
0.0005528958278537636
0.0005528965983255456
0.0005528962129850304
0.0005528959397771073
0.0005528967316711799
0.0005528963156355603
0.0005528960732905306
0.0005528970267761498
0.0005528958059439118
0.0005528964551446041
0.0005528970322337463
0.0005528957997425396
0.000552896375330395
0.0005528968035887599
0.0005528963393584718
0.0005528960319178981
0.0005528967985673079
0.0005528963686729105
0.00055289611715424
0.0005528970827791264
0.0005528959009367285
0.0005528965631224089
0.0005528971936189009
0.0005528960289311477
0.0005528966733548657
0.0005528973003317068
0.0005528960617492721
0.0005528966691986548
0.0005528971308380037
0.0005528960147065008
0.0005528964246231073
0.0005528970856604624
0.0006328897183315941
0.000632890259608694
0.0006328908653526146
0.0006328895952278058
0.0006328901998509783
0.0006328906036662151
0.0006328901362214064
0.0006328897203645231
0.0006328906398722149
0.0006328900834158214
0.0006328897726591582
0.0006328906754477537
0.0006328901685487069
0.000632889782238944
0.0006328906583568404
0.0006328900898340061
0.0006328897254486905
0.0006328908734223111
0.0006328893903459485
0.0006328900990265038
0.0006328905629553206
0.0006328899670296257
0.0006328895062883304
0.0006328904494250795
0.0006328898476898175
0.0006328894941065518
0.0006328903304418175
0.0006328898647037639
0.0006328894226707986
0.0006328904000934107
0.0006328898597916821
0.0006328895492643972
0.0006328906264760966
0.0006328892332030606
0.0006328899279882649
0.0006328906583202184
0.0006328891942192076
0.0006328899858392081
0.0006328906857302031
0.0006328892986826464
0.0006328900433674148
0.0006328907759370402
0.0006328893244662546
0.0006328900494049879
0.000632890551087206
0.0006328900039382799
0.0006328896228934753
0.0006328905089028861
0.0006328899477240469
0.0006328895659005139
0.0006328904649629983
0.0006328899453871308
0.0006328895897439094
0.0006328905366854137
0.0006328900299389805
0.0006328897189399015
0.0006328906122364904
0.0006328901799804702
0.0006328898148143382
0.0006328907570589742
0.0006328902755071978
0.0006328899463445898
0.0006328910768884271
0.0006328896240174176
0.0006328903939966624
0.0006328910452471169
0.0006328895893285794
0.0006328902597442055
0.0006328907646596933
0.0006328902223920615
0.0006328898383212567
0.0006328907542622931
0.0006328902596884067
0.0006328899284314376
0.0006328910732857871
0.0006328896769145928
0.0006328904592621889
0.0006328911894957548
0.0006328897881468805
0.0006328905572937272
0.0006328912884804692
0.0006328897873574316
0.0006328904820486483
0.0006328909014708949
0.0006328902180423238
0.000632889924662474
0.0006328910416769073
0.0007122996230078289
0.0007123001005489157
0.0007123006861317973
0.0007122994837456015
0.0007122999920029
0.0007123004946042046
0.0007122999837030257
0.0007122995344899858
0.0007123005274455948
0.0007123000151797348
0.0007122995692308616
0.0007123006157000694
0.0007123001181642473
0.0007122996282736821
0.000712300683078718
0.0007123000673247462
0.0007122996616881685
0.0007123008940475005
0.000712299341755729
0.0007123001061581124
0.000712300621814327
0.0007122999902899687
0.0007122993882368934
0.0007123004958859304
0.0007122998020359921
0.0007122993890426358
0.000712300327395231
0.00071229980654504
0.0007122992686035047
0.0007123004256263228
0.0007122998016543394
0.0007122994402518217
0.0007123006250763366
0.0007122991065476776
0.0007122998591412555
0.0007123006690412845
0.0007122990365444636
0.0007122999172291521
0.0007123006814667162
0.0007122991567689658
0.0007122999790306869
0.0007123007953631168
0.0007122991849484528
0.0007122999906585003
0.0007123005400149578
0.0007122999788837463
0.0007122995085044561
0.0007123004939004385
0.0007122999250091045
0.0007122994149292104
0.0007123004307994838
0.0007122998789187163
0.0007122994063529666
0.0007123005039999304
0.000712299919646641
0.0007122995357579969
0.0007123005478714239
0.0007123000633486007
0.0007122996012426888
0.0007123007006372943
0.0007123001459331648
0.000712299749106444
0.0007123010074451021
0.0007122994106859638
0.0007123002807141143
0.000712300925199575
0.0007122993858607648
0.0007123000814918612
0.0007123006834457941
0.0007123000706571689
0.0007122996137229057
0.0007123006741812842
0.0007123001104840024
0.0007122997167280316
0.0007123009483999791
0.0007122994467411084
0.0007123002921809622
0.0007123010480647378
0.0007122995307812497
0.0007123003652665447
0.0007123011355196714
0.0007122995176141541
0.0007123002804491719
0.000712300737860306
0.0007122999989636724
0.0007122996390686293
0.0007123008905452812
0.0007943661231040362
0.0007943657672273885
0.0007943663027601643
0.000794365991424137
0.0007943654981823263
0.0007943663765874954
0.0007943658949830345
0.0007943654030927022
0.000794366441453904
0.0007943659900115683
0.0007943653995378558
0.000794366564717008
0.0007943660864634738
0.0007943655154695854
0.0007943666678867635
0.0007943660001229403
0.0007943656883083185
0.0007943668389086275
0.000794365441289308
0.0007943660795548847
0.0007943666764439007
0.0007943660736568471
0.0007943653305216832
0.0007943664995851051
0.0007943658065033267
0.000794365408988311
0.0007943662928334991
0.0007943657274821616
0.0007943652274727556
0.0007943664152556727
0.0007943657653940513
0.0007943654333369656
0.000794366582462309
0.0007943650463998704
0.0007943658348114576
0.0007943666423821674
0.000794364941081843
0.0007943658920659698
0.0007943666294409218
0.0007943650710977082
0.0007943659444802543
0.0007943667608432489
0.0007943650892121817
0.0007943659468638563
0.0007943664956333951
0.0007943659881495313
0.0007943654076235329
0.0007943664530717386
0.0007943659523226201
0.0007943652851174954
0.0007943663825533435
0.0007943658594484098
0.0007943652571490045
0.0007943664099339905
0.000794365819295369
0.0007943654386859705
0.0007943664365905469
0.0007943658543409333
0.0007943654611622073
0.0007943665952510818
0.0007943659151452381
0.0007943656065263712
0.0007943668586495932
0.0007943652624837876
0.0007943661718832433
0.0007943667452456159
0.0007943652916597053
0.0007943659062217327
0.000794366571068378
0.0007943659452384246
0.0007943655200290217
0.0007943665726821314
0.000794365998786907
0.0007943656023803778
0.0007943667811600838
0.0007943653727678384
0.0007943660855390265
0.0007943668530941549
0.0007943654118871652
0.0007943661236983787
0.0007943668958347274
0.0007943654426442393
0.0007943660982927555
0.0007943667060220266
0.0007943653131939876
0.0007943657819642399
0.0007943665714417373
0.0008853410575353596
0.0008853411831087559
0.0008853405246361068
0.0008853410623901383
0.000885340291742871
0.0008853410920891779
0.0008853407129218024
0.0008853402886202071
0.0008853411733492005
0.0008853407784708581
0.0008853402067402334
0.0008853413071370923
0.0008853409051477069
0.000885340369947917
0.0008853415629457649
0.0008853402969173651
0.0008853409645646887
0.0008853414223578808
0.0008853409798196168
0.0008853405151990455
0.0008853414864839785
0.0008853409800682978
0.0008853401386219021
0.0008853412949643378
0.0008853404943643201
0.0008853406441592726
0.0008853411137957599
0.0008853400638765251
0.0008853403924381713
0.0008853412232014627
0.0008853403300887443
0.0008853406445332787
0.0008853412702153154
0.0008853398829355665
0.0008853406474810615
0.0008853413501802051
0.0008853397325184189
0.0008853407055149479
0.0008853413038685292
0.0008853398737323248
0.0008853407343620216
0.0008853414392883951
0.0008853398599287043
0.0008853407274347831
0.0008853411789234794
0.0008853408054453206
0.0008853401505322288
0.0008853411312943884
0.0008853407844587827
0.0008853399993589059
0.000885341067136654
0.000885340656193416
0.0008853399540053239
0.0008853410963618698
0.0008853403547361125
0.0008853405567898873
0.0008853411837647975
0.0008853399999675508
0.0008853405659642276
0.0008853413762136352
0.0008853399952904844
0.0008853406901958151
0.0008853413870624229
0.0008853401326785219
0.0008853409109681124
0.0008853411983683352
0.0008853405803134465
0.0008853402632988686
0.0008853413147470687
0.0008853404382341754
0.0008853406820324942
0.0008853413415027642
0.0008853404864646679
0.0008853407389529624
0.0008853412988426789
0.0008853407734139016
0.0008853403948387578
0.0008853413604262771
0.0008853407710965167
0.000885340423627477
0.0008853414162850215
0.0008853407304083728
0.0008853404682604874
0.0008853413764964136
0.0008853400411884387
0.0008853406145586555
0.0008853412060938203
0.001002412328025372
0.001002412375348465
0.001002412188841006
0.001002412338207685
0.00100241206808583
0.001002412364754415
0.001002411998117549
0.001002411648526102
0.001002412572460555
0.001002411535082524
0.00100241194825251
0.001002412539981833
0.001002411800080547
0.001002411907730576
0.001002412431336348
0.001002411314952935
0.001002411909199137
0.001002412256565955
0.001002411796550902
0.001002411363148837
0.001002412158359396
0.001002411641898435
0.001002411086643884
0.001002411943456344
0.001002411451379397
0.001002411142888288
0.001002411815706884
0.001002411318487143
0.001002411061808808
0.001002411913851841
0.001002411407601332
0.00100241119534921
0.001002412046611597
0.001002410803376793
0.001002411473181685
0.001002412027277062
0.00100241071576251
0.001002411498727699
0.001002412030204756
0.001002410821858236
0.001002411512814051
0.001002412030442661
0.001002410775042736
0.0010024114158429
0.001002411819599747
0.001002411405365137
0.00100241093623786
0.001002411754545965
0.001002411328146851
0.00100241085905115
0.001002411701949419
0.00100241130660601
0.001002410855358835
0.001002411718328012
0.001002411290629276
0.001002411075860054
0.001002411960012835
0.001002410793038492
0.001002411469582524
0.001002412051043431
0.001002410813321363
0.001002411528481388
0.001002412065814491
0.001002410850660243
0.001002411571548635
0.00100241200544411
0.001002411036806724
0.001002411458761424
0.001002412034508455
0.001002411649127482
0.001002411415719632
0.001002412241253652
0.001002411863924552
0.001002411647908105
0.001002412452386535
0.00100241206935755
0.001002411784580401
0.001002412605526171
0.001002412183010332
0.001002411849437522
0.001002412605973074
0.001002412012099158
0.001002411719702765
0.001002412559407312
0.001002411341097591
0.001002411867421786
0.001002412380398763
0.001172774758494199
0.001172774844931143
0.001172774789601308
0.001172774957490775
0.001172774435653798
0.001172774830235089
0.001172774602523101
0.001172774333277236
0.001172775047223715
0.001172774157000721
0.001172774594012112
0.001172774896894767
0.001172774634134707
0.001172774157763329
0.001172774449962908
0.001172773805486207
0.001172774270090895
0.001172774369043845
0.001172774020432003
0.00117277367259092
0.001172774215658812
0.001172773810776178
0.001172773408255666
0.00117277400083753
0.001172773670890583
0.00117277341306637
0.001172773924584772
0.001172773621008345
0.001172773376627547
0.001172773985018406
0.001172773632857769
0.001172773435660555
0.001172774057935286
0.001172773135348183
0.001172773634849495
0.001172773988461841
0.001172773043628761
0.001172773625148314
0.001172774000826853
0.001172773168122539
0.001172773591934903
0.001172773869471204
0.001172773094872869
0.001172773479624972
0.001172773751669604
0.001172773440305964
0.001172773081182279
0.001172773672607803
0.001172773330664854
0.001172773035643514
0.001172773640492888
0.001172773380128721
0.001172773048037603
0.001172773681960753
0.001172773433571598
0.001172773232289414
0.001172773924260296
0.001172773065306538
0.001172773613731807
0.001172774002025493
0.001172773098759699
0.001172773653523382
0.001172774008588838
0.001172773104271775
0.001172773683912554
0.001172774057211875
0.001172773247027878
0.001172773773113831
0.001172774185259875
0.001172774025015072
0.001172773833979032
0.001172774523662826
0.001172774400804596
0.001172774193843746
0.001172774875128717
0.001172774651428582
0.00117277449148097
0.001172775095589216
0.001172774842803229
0.001172774676507695
0.001172775041129227
0.001172774312584483
0.001172774558995396
0.001172774928949965
0.001172774042878283
0.001172774425270204
0.001172774801927405
0.001410348262056661
0.001410348337288514
0.001410348250346717
0.001410348333317163
0.001410348238596775
0.001410348296693653
0.001410348265293556
0.001410348046018932
0.001410348566411764
0.001410347953984314
0.001410348194961217
0.001410348312221213
0.001410348169610344
0.001410347609715777
0.001410347648188568
0.001410347345413011
0.001410347552974648
0.001410347549466408
0.001410347277586558
0.001410347234910098
0.001410347412274948
0.00141034711632011
0.001410346814406417
0.001410347172771966
0.001410346958598629
0.001410346870606797
0.001410347163089565
0.0014103468782056
0.001410346927874701
0.001410347230340602
0.001410346719527587
0.001410346905556578
0.001410347161003166
0.001410346535881503
0.001410346811878766
0.001410347022569863
0.001410346397653016
0.001410346769755415
0.001410346968516227
0.00141034675251118
0.001410346544974932
0.001410346668126893
0.001410346629401444
0.001410346608253408
0.001410346755862971
0.001410346560286543
0.001410346283649036
0.001410346665218542
0.001410346424709845
0.001410346262475314
0.001410346666509322
0.001410346549985083
0.001410346232560434
0.001410346744697042
0.001410346623685702
0.001410346457938137
0.001410346944115723
0.001410346401328147
0.00141034677739112
0.001410347041672147
0.001410346457988346
0.001410346826684789
0.001410347050503339
0.001410346462701319
0.001410346885485899
0.001410347163561018
0.00141034669261293
0.001410347109832135
0.001410347434767217
0.001410347445017448
0.001410347341922736
0.001410347895284697
0.001410347958508668
0.001410347827047994
0.001410348374997715
0.001410348302448444
0.001410348200646063
0.001410348670774116
0.00141034857508768
0.001410348641816788
0.001410348250980534
0.001410347985487978
0.001410348161483225
0.001410348314068066
0.001410348019103568
0.001410347836167776
0.001410348257938256
0.001732529497517631
0.001732529554328165
0.001732529474829342
0.001732529568278545
0.001732529522593916
0.001732529365185297
0.001732529644637612
0.001732529606656321
0.001732529844922348
0.001732529657720788
0.001732529419425701
0.001732529352686539
0.001732529398662405
0.001732528910096417
0.001732528821859554
0.001732528627754113
0.00173252861977351
0.001732528344845652
0.001732528509100895
0.001732528244971296
0.001732528391001252
0.001732528129993688
0.001732528029486322
0.001732528133439947
0.001732527913790074
0.001732528033902566
0.001732528143825502
0.001732528019686311
0.00173252787748513
0.001732528094310184
0.001732527949555684
0.001732527789651417
0.001732527977311878
0.001732527759116741
0.00173252757383622
0.001732527729754036
0.001732527556629239
0.001732527510351806
0.001732527739666027
0.001732527463801178
0.00173252752708866
0.001732527310968514
0.001732527498125664
0.001732527463314602
0.001732527487928176
0.001732527383318785
0.001732527215984764
0.001732527406025262
0.001732527133110549
0.001732527273357521
0.001732527469308427
0.001732527150139873
0.001732527335960959
0.001732527528358387
0.001732527472822463
0.00173252738167714
0.001732527674028663
0.001732527551073986
0.001732527548221974
0.001732527840192157
0.00173252751069636
0.001732527731584702
0.001732527873726765
0.001732527512761027
0.001732527807670626
0.001732527992196629
0.001732527952364081
0.001732528139456813
0.001732528448299858
0.001732528267390741
0.001732528523907534
0.001732528994863798
0.001732528941370589
0.001732529141283324
0.001732529619270012
0.001732529675925982
0.001732529577955282
0.001732530046554951
0.001732530001523469
0.001732530003479197
0.001732529486250661
0.001732529578347321
0.001732529398284391
0.001732529593365124
0.00173252944290844
0.001732529205697505
0.001732529490900177
0.002157259384250685
0.002157259462690746
0.00215725931411443
0.00215725945584555
0.002157259381014548
0.002157259470839549
0.00215725969173519
0.002157259709314529
0.002157259905625084
0.002157259599473026
0.002157259486325995
0.002157259265501165
0.002157259250562732
0.002157258831750105
0.002157258678509892
0.002157258572412343
0.002157258363866272
0.002157258029379349
0.002157258148767743
0.002157258064355853
0.002157258045537789
0.002157257787811464
0.002157257613608914
0.00215725767628651
0.002157257709059458
0.002157257706752457
0.002157257775063085
0.002157257675397508
0.002157257679511339
0.002157257640024119
0.002157257638027024
0.002157257552826727
0.002157257551918603
0.002157257274266353
0.002157257189712381
0.002157257019537545
0.002157257072678204
0.002157256961841228
0.002157257092821838
0.002157256925849278
0.002157256953828056
0.002157256741163087
0.002157256901548665
0.002157256840992744
0.002157256812486356
0.002157256760127089
0.002157256565924569
0.002157256747634017
0.002157256504583608
0.002157256669723446
0.002157256815590202
0.002157256607601514
0.002157256805727165
0.002157256941380152
0.002157256818430999
0.002157256899135948
0.002157257121398222
0.002157257110009945
0.002157257064058643
0.002157257260171837
0.002157257084709559
0.00215725725651947
0.002157257338339096
0.002157257123963522
0.002157257333157539
0.002157257522556157
0.002157257398507998
0.002157257639558239
0.002157258024908101
0.002157257940825859
0.002157258373280841
0.002157258631312916
0.002157258822181406
0.002157259196980126
0.002157259536773917
0.002157259591707316
0.002157259728693886
0.002157260095992174
0.002157260087283043
0.002157259815126292
0.002157259727738796
0.002157259510477946
0.002157259494203458
0.002157259489252291
0.002157259370682973
0.002157259316527981
0.002157259372454897
0.002697994022446456
0.002697994153872037
0.002697994085656563
0.002697994102636775
0.002697994145419416
0.002697994292225777
0.002697994493281217
0.002697994570378939
0.002697994781517943
0.002697994447604752
0.002697994284392544
0.002697994020032251
0.002697993936495867
0.002697993411329488
0.002697993352463628
0.002697992982585201
0.002697992886182577
0.002697992556472608
0.002697992638485414
0.002697992526823094
0.002697992481179408
0.002697992286875818
0.002697992290785397
0.002697992036687303
0.002697992182151304
0.002697992092923116
0.002697992264977041
0.002697992188210008
0.002697992159689583
0.002697992104268692
0.002697992080469312
0.002697992010668869
0.002697991789729818
0.002697991596663123
0.002697991388632871
0.00269799118361618
0.002697991300542651
0.002697991257170184
0.002697991251558258
0.002697991109574958
0.002697991094883361
0.002697991007703789
0.002697991066322572
0.002697990902547285
0.002697990797411654
0.002697990769547561
0.002697990747298211