/*--------------------------------*- C++ -*----------------------------------*\
| =========                 |                                                 |
| \\      /  F ield         | OpenFOAM: The Open Source CFD Toolbox           |
|  \\    /   O peration     | Version:  v1812                                 |
|   \\  /    A nd           | Web:      www.OpenFOAM.com                      |
|    \\/     M anipulation  |                                                 |
\*---------------------------------------------------------------------------*/
FoamFile
{
    version     2.0;
    format      ascii;
    class       volScalarField;
    location    "10000";
    object      nuTilda_0;
}
// * * * * * * * * * * * * * * * * * * * * * * * * * * * * * * * * * * * * * //

dimensions      [0 2 -1 0 0 0 0];


internalField   nonuniform List<scalar> 
5655
(
0.0004955730887840381
0.0004955730887634298
0.0004955730867078125
0.0004955730897916158
0.0004955730880216946
0.0004955730899836259
0.0004955730888017326
0.000495573089516826
0.0004955730892626261
0.0004955730906223676
0.0004955730884561487
0.0004955730878170987
0.0004955730901343255
0.0004955730891384231
0.00049557308839188
0.0004955730910757762
0.0004955730878515087
0.0004955730906193487
0.0004955730859893949
0.0004955730891759728
0.0004955730881189535
0.0004955730890643377
0.0004955730864805429
0.0004955730879186502
0.000495573087179705
0.0004955730889531785
0.0004955730880863875
0.0004955730883804797
0.0004955730889707303
0.0004955730881869616
0.0004955730883202554
0.0004955730876279443
0.0004955730888924552
0.0004955730865501296
0.0004955730893034345
0.000495573087468919
0.0004955730890401542
0.0004955730872875248
0.0004955730872239966
0.0004955730887029403
0.0004955730891932533
0.0004955730881615741
0.0004955730861528463
0.0004955730876670352
0.0004955730871665211
0.000495573090205313
0.0004955730871280966
0.0004955730865679513
0.0004955730881774112
0.0004955730883305189
0.0004955730874099829
0.0004955730884658417
0.0004955730865917862
0.0004955730865183313
0.0004955730868809997
0.0004955730876621376
0.0004955730880820457
0.0004955730876475511
0.0004955730867932587
0.0004955730874506416
0.0004955730861275883
0.0004955730871289307
0.0004955730858371579
0.0004955730881401109
0.0004955730869378627
0.0004955730870324035
0.0004955730856276979
0.000495573088455739
0.0004955730865331125
0.0004955730861345108
0.0004955730866029806
0.0004955730871401426
0.0004955730854527336
0.0004955730871505718
0.000495573086214804
0.0004955730881164701
0.0004955730886393655
0.0004955730876642407
0.0004955730893292351
0.0004955730880919503
0.0004955730888014435
0.0004955730878085948
0.0004955730879021628
0.0004955730863206558
0.0004955730857380016
0.0004955730868017225
0.0004955730873085729
0.000294202027173686
0.00029420199086672
0.0002942020566350987
0.000294202028907958
0.0002942020629327714
0.000294202056757438
0.0002942020623037878
0.0002942020360537827
0.0002942020632638038
0.0002942020460603581
0.0002942020226023825
0.0002942020380147961
0.0002942020196409854
0.000294202002245303
0.0002942020001124096
0.0002942020048839823
0.0002942019455699239
0.0002942020045463727
0.0002942019168277784
0.0002942019439803983
0.0002942019490393678
0.0002942019245794111
0.0002942019446398339
0.0002942019458242622
0.0002942019453106884
0.0002942019244093255
0.0002942019558585545
0.0002942019234263296
0.0002942019664818863
0.0002942019297390458
0.0002942019325274757
0.0002942019084345267
0.0002942019390565654
0.0002942019071979357
0.0002942019444842332
0.0002942019088387079
0.0002942019409892609
0.0002942019057059422
0.0002942019293863116
0.0002942019282490902
0.0002942019419989379
0.0002942019358149439
0.0002942019033322208
0.0002942019202127601
0.0002942019434293633
0.0002942019470564241
0.0002942019187798772
0.0002942019444973596
0.0002942019353902306
0.000294201938646615
0.0002942019499847167
0.0002942019406854469
0.0002942019508092584
0.0002942019382846868
0.000294201942970442
0.0002942019315571915
0.0002942019696489983
0.0002942019455232348
0.0002942019548397002
0.0002942019818798481
0.0002942019542857196
0.0002942019607115073
0.0002942019780469661
0.0002942019973504362
0.0002942019715813238
0.000294202003195765
0.0002942020020067886
0.0002942020444794808
0.0002942020344283172
0.0002942020191405871
0.0002942020369152638
0.0002942020531667568
0.0002942020342318445
0.0002942020386062829
0.0002942020630182597
0.0002942020576269726
0.0002942020440624442
0.0002942020625934884
0.000294202050784189
0.0002942020623926936
0.0002942020583252686
0.0002942020609779591
0.0002942020527879314
0.0002942020978439907
0.0002942020938993224
0.0002942021117947487
0.0002942021362360405
0.0003128971045622415
0.0003128970326333717
0.0003128973501405609
0.0003128971401258384
0.0003128973209157509
0.0003128971922361813
0.0003128972723672707
0.0003128971583105383
0.0003128973198103416
0.0003128971418227259
0.0003128970960692507
0.0003128971976039769
0.0003128971056938418
0.0003128969660223684
0.0003128970566252674
0.0003128970417113414
0.0003128967952942012
0.0003128970530759445
0.0003128967018181912
0.0003128968712408389
0.0003128969199628438
0.0003128967578664847
0.0003128968762287193
0.0003128968813151976
0.0003128968497250535
0.0003128967917276042
0.0003128969497391802
0.0003128967826468932
0.0003128969442319178
0.0003128967610296289
0.0003128967695814493
0.0003128967158584297
0.0003128968719889935
0.0003128967482638688
0.0003128968451263185
0.0003128967175748432
0.0003128968463064771
0.0003128966525117702
0.0003128968341654748
0.0003128968085852028
0.0003128967570981791
0.0003128968670054118
0.0003128966854609102
0.0003128967732721091
0.0003128968863136887
0.0003128968205410996
0.000312896718104994
0.0003128968977104112
0.0003128968438612569
0.0003128968432792499
0.0003128969224089097
0.0003128968335368391
0.0003128969015753903
0.0003128968212218266
0.0003128968415630275
0.0003128968461887506
0.0003128969976550993
0.0003128968541626249
0.000312896858090088
0.0003128970180295542
0.000312896847722938
0.0003128969302184365
0.0003128970178733281
0.0003128970806314901
0.0003128969074694427
0.0003128971314523711
0.0003128970755114226
0.0003128971630054752
0.0003128972385470036
0.0003128971319420733
0.0003128972134252449
0.0003128973257084822
0.0003128971661183356
0.0003128972090296946
0.0003128973217898739
0.0003128973027604881
0.0003128971711064345
0.0003128973299059744
0.0003128972584258243
0.0003128972288119453
0.000312897285411164
0.0003128973371592508
0.0003128972476790466
0.0003128974591272316
0.0003128974145645262
0.0003128974064924576
0.0003128975360023063
0.0003881417916957983
0.0003881419154734124
0.0003881422683351259
0.0003881420144585276
0.0003881422868670216
0.000388141928964767
0.000388142064496749
0.0003881418022850989
0.0003881423407106994
0.0003881416214232053
0.0003881419582526118
0.0003881422216615102
0.0003881416194131814
0.0003881418305344177
0.0003881420116119904
0.0003881417251601488
0.0003881415073164971
0.0003881419815190263
0.0003881413896333433
0.00038814163205926
0.000388141933315016
0.0003881412785186086
0.0003881416300546302
0.0003881418725728566
0.0003881413230727065
0.0003881415456067863
0.0003881418196060143
0.0003881414835090274
0.0003881416255262017
0.0003881417325638752
0.0003881415336071379
0.0003881413599771759
0.000388141759265899
0.0003881415552679083
0.0003881413758025353
0.0003881417066372379
0.0003881415927747947
0.0003881413507724176
0.0003881417634442211
0.000388141610869893
0.0003881413992231228
0.0003881417816264446
0.0003881415870990291
0.0003881414292483107
0.0003881419199077708
0.0003881413170180935
0.0003881415782215571
0.0003881418412230468
0.0003881415654035469
0.0003881414659502271
0.0003881419168131875
0.0003881413456426074
0.0003881416682898465
0.0003881419270631504
0.0003881414077055852
0.0003881417089803583
0.000388142052693265
0.0003881414553021294
0.0003881417815086376
0.0003881420380872492
0.0003881417871746418
0.0003881417075103718
0.0003881420848952972
0.0003881419738319005
0.0003881417370286632
0.0003881421776411698
0.0003881420118091357
0.0003881418679231279
0.0003881423514919861
0.0003881417658874219
0.0003881420774482777
0.0003881423054819476
0.0003881420731010689
0.0003881419400323107
0.0003881423289026809
0.000388142175172609
0.0003881419648668323
0.0003881424210239355
0.000388142074656383
0.0003881422127771496
0.0003881424220646877
0.0003881423325109362
0.0003881420926248636
0.0003881425364183366
0.0003881423711505589
0.0003881420987658814
0.0003881424882278026
0.000470938962141984
0.0004709386669712376
0.0004709393071056345
0.0004709389402606533
0.0004709390510391516
0.0004709392512492086
0.0004709385718118835
0.0004709388472805918
0.0004709394072179377
0.0004709383510957295
0.0004709388966761714
0.0004709393309752911
0.0004709383727393279
0.0004709388109912042
0.0004709392032977492
0.000470938250829834
0.0004709385945273386
0.0004709389680341932
0.0004709385628855259
0.0004709383541782044
0.0004709390548503085
0.0004709380460255501
0.0004709385447872712
0.0004709389909752188
0.0004709380313365135
0.0004709384993269044
0.0004709389551650717
0.0004709380592322547
0.0004709385234365368
0.000470938941746471
0.0004709380976651373
0.000470938465699528
0.0004709388292082783
0.0004709385000862621
0.0004709382219552776
0.0004709388167177078
0.0004709385086030399
0.0004709382519264175
0.0004709388608517041
0.0004709385637279764
0.0004709382894444708
0.0004709388940286857
0.0004709385644073944
0.0004709383312978323
0.0004709390783670415
0.0004709381119806585
0.0004709385825271489
0.0004709390385121269
0.0004709381526098646
0.0004709385628370088
0.0004709390523835735
0.0004709381402412046
0.0004709386465515041
0.0004709391217897144
0.0004709382237541119
0.0004709387455909612
0.0004709392352804686
0.0004709383254967049
0.0004709388443975203
0.000470939321524862
0.0004709384834698425
0.0004709388877692398
0.0004709392628271014
0.0004709389679392037
0.0004709386973296269
0.0004709393084940876
0.0004709389867848861
0.0004709387451698815
0.0004709394937049754
0.0004709385385978905
0.0004709390290337629
0.0004709394565254492
0.0004709387106548174
0.0004709390263482709
0.0004709394065469007
0.0004709391180451004
0.0004709388704034398
0.0004709395069051868
0.0004709391749697252
0.0004709390125176691
0.0004709395882007275
0.0004709392943631457
0.0004709390002312601
0.0004709396084980052
0.0004709392597364123
0.0004709388388120485
0.000470939401286971
0.0005528935402319792
0.0005528931186754361
0.0005528939014032622
0.0005528935417889497
0.0005528932512243251
0.0005528940036967681
0.0005528928985949147
0.0005528934226614069
0.0005528940645901496
0.000552892772214983
0.000552893456450597
0.0005528940446016896
0.0005528928201467909
0.0005528934257424408
0.0005528939711717712
0.0005528926717262431
0.0005528932340713009
0.0005528936817185539
0.000552893184515417
0.0005528928874267982
0.0005528938116884102
0.0005528925250128593
0.0005528931257191962
0.0005528937415891829
0.0005528924519487708
0.0005528931076697045
0.0005528936685656021
0.0005528924759408585
0.0005528930957854221
0.0005528937125181407
0.0005528925148773898
0.0005528931145134216
0.0005528935337623565
0.0005528930887940674
0.0005528927551904621
0.0005528935341674439
0.0005528930771405277
0.000552892805169502
0.0005528935763858463
0.0005528931577729483
0.0005528928480176868
0.0005528936285627384
0.0005528931694271377
0.0005528929015991494
0.0005528938510961377
0.0005528926041084368
0.0005528932250618519
0.0005528938137300814
0.000552892584258847
0.0005528932029088461
0.0005528938011278335
0.000552892617701226
0.0005528932633331938
0.0005528938971401809
0.0005528927093651844
0.0005528933954482473
0.0005528940029248768
0.0005528928471040078
0.000552893503291732
0.0005528941291047047
0.0005528929603635726
0.0005528935584712181
0.0005528940060258743
0.0005528935551464854
0.0005528932547888524
0.0005528940003490481
0.0005528935432701753
0.0005528932374467829
0.0005528941885197352
0.0005528929428566849
0.0005528935763314403
0.0005528941723226383
0.0005528930124948511
0.0005528935983384821
0.0005528940527314091
0.0005528936524461492
0.0005528933758579351
0.0005528941748262164
0.0005528937582006374
0.00055289349143005
0.0005528942755379574
0.0005528938042969125
0.0005528934815566754
0.0005528942287142252
0.0005528936186694521
0.0005528932795481421
0.0005528940130264248
0.0006328870308072971
0.0006328865278972376
0.0006328874361618142
0.0006328869911216114
0.0006328865946498378
0.0006328876019692042
0.000632886215686567
0.0006328869136421737
0.0006328876234666345
0.0006328861664507504
0.0006328869481836215
0.0006328876624404965
0.0006328862455492926
0.0006328869693030518
0.0006328876401017012
0.0006328861026555318
0.0006328868066935537
0.0006328873223392002
0.000632886772653337
0.0006328863993531513
0.0006328874985082791
0.0006328860001065794
0.0006328866636909901
0.000632887420836438
0.0006328858641764828
0.0006328866680697241
0.0006328872922464747
0.0006328858947289618
0.0006328866193955984
0.0006328873785667544
0.0006328859351656676
0.0006328866769822784
0.0006328871450060753
0.0006328866261842562
0.0006328862279105914
0.0006328871487881029
0.0006328865936233773
0.0006328862833078669
0.0006328871883559151
0.0006328866898646023
0.0006328863344585551
0.000632887259661117
0.0006328867112918705
0.0006328864030090456
0.0006328875187538564
0.0006328860571791545
0.0006328867910581467
0.0006328874750494726
0.0006328860210840588
0.0006328867473720976
0.0006328874441973473
0.000632886047248643
0.0006328867901004488
0.0006328875483826052
0.0006328861284306447
0.0006328869437896021
0.0006328876344127211
0.0006328862753362266
0.0006328870460631318
0.0006328877739429853
0.0006328863701480048
0.0006328870899798241
0.0006328876021426909
0.0006328870403686846
0.000632886699078586
0.0006328875490403685
0.0006328870231194411
0.0006328866227911041
0.000632887754775052
0.0006328862778794466
0.0006328870331486336
0.0006328877423537739
0.000632886331605214
0.0006328870571164995
0.0006328875771779686
0.0006328871199547844
0.000632886767764741
0.0006328877024642979
0.0006328872345445025
0.0006328868567209514
0.0006328878034694787
0.0006328872285514032
0.0006328868563121888
0.0006328878007965083
0.0006328865470463819
0.0006328869178109085
0.0006328875449218269
0.0007122965017231115
0.0007122960589350473
0.0007122969780723431
0.0007122964349093772
0.0007122960948801396
0.000712297197542715
0.0007122956237605182
0.0007122964610243292
0.0007122972005850721
0.0007122956407537573
0.0007122964946730305
0.0007122972999963628
0.0007122957510127659
0.000712296573337109
0.0007122972959021873
0.0007122956790363797
0.0007122964390023429
0.0007122970321794152
0.0007122964381213455
0.0007122960020335548
0.0007122972420304711
0.0007122955792665162
0.0007122962824464924
0.000712297111725196
0.0007122954205171459
0.0007122962880094103
0.0007122969015237076
0.0007122954362403218
0.0007122961860972021
0.0007122970298735501
0.0007122954747346369
0.0007122962693539122
0.0007122967708334598
0.0007122962473960745
0.0007122957336578276
0.0007122967709878142
0.0007122961894881659
0.0007122957894720407
0.0007122968017145234
0.0007122963000297069
0.0007122958476558834
0.0007122968958698814
0.0007122963273514036
0.0007122959384151057
0.0007122971956335775
0.0007122955794621305
0.0007122964025763031
0.0007122971419011172
0.0007122955347891019
0.0007122963236835993
0.0007122970892487797
0.0007122955255814237
0.0007122963376041681
0.0007122971515738576
0.0007122956195538228
0.0007122964922130423
0.0007122971948758141
0.0007122957528982888
0.0007122965790296663
0.0007122973405427421
0.0007122958400363896
0.0007122966085748282
0.000712297165502694
0.0007122965600058537
0.0007122961514428838
0.0007122971131275417
0.0007122965143003897
0.0007122960521602068
0.0007122972908374503
0.0007122957131669183
0.0007122965235118111
0.0007122972840996978
0.0007122957694930626
0.0007122965263716837
0.00071229712787191
0.000712296602829421
0.0007122961696641312
0.0007122972423905709
0.000712296705114257
0.0007122962358779504
0.0007122973485662827
0.0007122966832903679
0.0007122962524496743
0.000712297269463083
0.0007122959117313778
0.0007122963640297131
0.0007122970962720442
0.0007943617977606549
0.0007943622052384287
0.000794362665251182
0.0007943617046843648
0.0007943621372725619
0.0007943628668269979
0.0007943612172832828
0.0007943621873350253
0.0007943628389758675
0.0007943613280116484
0.0007943622037314621
0.000794362988361245
0.0007943614473985453
0.0007943622803694664
0.0007943629475207881
0.0007943615957968724
0.0007943622015749547
0.0007943628331214228
0.0007943621686772374
0.0007943618261174189
0.0007943630739828576
0.0007943613509947104
0.0007943620455257009
0.0007943628758759102
0.0007943612502853509
0.0007943619890632355
0.0007943625904813012
0.0007943612245444827
0.0007943618234109647
0.0007943627558651765
0.0007943612721897772
0.0007943619556583053
0.0007943624903028454
0.000794362040412349
0.000794361375910442
0.0007943624941992736
0.0007943619499856307
0.000794361431185822
0.0007943625064445659
0.0007943620684139204
0.0007943614843869911
0.0007943626191837017
0.0007943620929052711
0.0007943616049152418
0.0007943629240442481
0.0007943612598792903
0.0007943621571562493
0.0007943628651997091
0.0007943612208838067
0.0007943620484216266
0.0007943627987915247
0.0007943611706073134
0.0007943619922121632
0.0007943627996523055
0.0007943613303492748
0.0007943620798783067
0.0007943627639927851
0.0007943614392292129
0.0007943621240667996
0.0007943628990237186
0.000794361550113838
0.0007943621683364037
0.0007943627847808616
0.0007943621979681153
0.0007943617898433666
0.00079436272727321
0.0007943620732041529
0.0007943616561631863
0.0007943629029531146
0.0007943613989445315
0.0007943621005413108
0.0007943629125845095
0.0007943614772503167
0.000794362140610859
0.0007943627932386838
0.000794362147571199
0.0007943618051495737
0.0007943628833168414
0.000794362219493566
0.0007943618362485232
0.0007943629839147312
0.0007943621973787305
0.0007943618406119725
0.0007943626920418664
0.0007943620816997162
0.0007943615628106954
0.000794362812985705
0.0008853370532588619
0.0008853372552692794
0.0008853371724372743
0.0008853370031492657
0.0008853370820152058
0.0008853375892162096
0.0008853360282846537
0.000885337044247527
0.0008853374914321504
0.0008853362828889358
0.0008853369777019439
0.0008853376990176096
0.0008853363571264053
0.0008853370485855013
0.0008853375633113157
0.000885336995867275
0.0008853367329993662
0.0008853377654437963
0.0008853365015710979
0.0008853371370275365
0.0008853378849098277
0.0008853362320566917
0.0008853368964334114
0.0008853374939863829
0.0008853366492054992
0.0008853364642213534
0.000885337158880466
0.0008853366072219853
0.0008853362131712903
0.000885337353645069
0.0008853366399837867
0.0008853364310182933
0.0008853372167454513
0.000885336915201257
0.000885336136935473
0.0008853372184572453
0.0008853367892725862
0.0008853361923695804
0.0008853372066865783
0.0008853369199849834
0.0008853362253499258
0.0008853373260368714
0.0008853369240663863
0.0008853363640151461
0.0008853376030409782
0.000885336047236669
0.0008853369670174824
0.0008853375293763111
0.0008853360165837558
0.0008853368294989406
0.0008853374674702582
0.0008853359167578712
0.0008853367171511423
0.0008853372968763924
0.0008853365770585633
0.0008853364017020547
0.0008853371989832332
0.0008853367649452393
0.0008853363499667768
0.0008853373604100982
0.0008853367866291016
0.0008853364404305944
0.0008853373863739995
0.0008853368784698622
0.0008853367013057207
0.0008853374447894178
0.0008853362989482076
0.0008853367365817261
0.0008853374184022339
0.0008853367155304367
0.0008853364821319506
0.000885337460861453
0.0008853368182051725
0.0008853365983111657
0.0008853376348854974
0.0008853363615302914
0.0008853370038685213
0.0008853377265847171
0.0008853364110663611
0.0008853370304547309
0.0008853377965670883
0.0008853364575820811
0.0008853369995894834
0.0008853373291462146
0.0008853370752356466
0.0008853362021144292
0.0008853373409517985
0.001002409627721148
0.001002409772822417
0.001002409655787699
0.001002409688626236
0.001002409625622349
0.001002409991316439
0.001002408728374357
0.001002409443972562
0.001002409807256437
0.001002409385547185
0.001002409135307123
0.001002409913015082
0.001002409309750932
0.001002409094503799
0.001002409582302163
0.00100240928601318
0.001002408904160014
0.001002409799511052
0.001002408515875337
0.001002409194820497
0.001002409722375493
0.001002408323332232
0.001002408954790908
0.001002409502606773
0.001002408309638704
0.001002408835946791
0.001002409310015368
0.001002408308379768
0.001002408766999751
0.001002409443840556
0.001002408358835845
0.001002408818095693
0.001002409282551869
0.001002408884390134
0.001002408372418192
0.001002409222002517
0.001002408804133979
0.001002408395328109
0.001002409251320975
0.001002408879333126
0.001002408425255936
0.001002409241298283
0.001002408852403661
0.001002408437679716
0.001002409409988444
0.001002408111599974
0.001002408836111545
0.001002409345512162
0.001002408050400909
0.001002408779303924
0.001002409299294561
0.00100240805040859
0.00100240876618488
0.001002409317797266
0.001002408236525685
0.001002408730130052
0.0010024092327165
0.001002408846718354
0.001002408459592689
0.001002409293531266
0.001002408858323644
0.001002408507629355
0.001002409302854862
0.001002408865082413
0.001002408544944407
0.001002409276234687
0.001002408824644981
0.001002408625736705
0.001002409541145622
0.001002408609089171
0.001002409122275847
0.001002409791330395
0.001002408817273089
0.001002409383716804
0.001002410055192775
0.001002408904389579
0.001002409660291554
0.001002410214951451
0.001002409023955971
0.001002409689433389
0.001002410210961445
0.001002408961877781
0.001002409423776148
0.001002409800409073
0.001002409440360468
0.001002408817060451
0.001002409751095831
0.001172772902690307
0.001172773121307831
0.001172772982599187
0.001172773108212359
0.001172773122571253
0.001172773253856829
0.001172772381208402
0.001172772875649655
0.001172773178720743
0.001172772900448686
0.00117277260208189
0.001172773127759357
0.001172772747205103
0.001172772690740643
0.001172772547469852
0.001172772509640853
0.00117277239186546
0.001172772741858749
0.001172771763678017
0.00117277225723466
0.001172772605613149
0.001172771568452555
0.001172772060125984
0.001172772404607939
0.00117277147890415
0.001172771995387806
0.001172772310166331
0.001172771488896222
0.00117277194418179
0.001172772378884693
0.001172771562868106
0.001172771950927921
0.001172772259246243
0.001172771926662095
0.001172771558075964
0.001172772157357265
0.001172771838643798
0.00117277155528122
0.001172772174471612
0.001172771920026587
0.001172771593070649
0.001172772055536523
0.001172771855326124
0.001172771500483785
0.001172772167641749
0.001172771218187502
0.001172771753034244
0.001172772092359654
0.001172771152706013
0.00117277171031412
0.001172772061280264
0.001172771216525009
0.001172771754634633
0.001172772149615582
0.001172771321428525
0.001172771791634107
0.001172772157734518
0.001172771874675543
0.001172771572800459
0.001172772185551153
0.001172771897021948
0.001172771605204832
0.00117277217739693
0.001172771878030296
0.001172771615906648
0.001172772220874662
0.001172771978488859
0.001172771817507584
0.001172772556607936
0.001172771914142202
0.001172772463888577
0.001172772924352007
0.001172772307991799
0.001172772850576092
0.001172773318040444
0.00117277253124252
0.001172773158724624
0.001172773548975695
0.001172772707519264
0.001172773194476098
0.001172773400706637
0.001172772857392821
0.001172772626012552
0.001172773110450895
0.001172772791726332
0.001172772428670727
0.001172773074381067
0.001410347025529326
0.001410347212220023
0.001410347099669068
0.001410347224766459
0.001410347206663018
0.001410347264917378
0.001410346788655785
0.001410347089786523
0.001410347327749141
0.001410347150295199
0.001410346909079361
0.001410347199351174
0.001410346740085513
0.001410346699765395
0.001410346673977872
0.001410346504820654
0.001410346292598834
0.001410346396188941
0.001410346068012193
0.001410345992750625
0.001410346359753785
0.001410345670466589
0.00141034595040809
0.001410346132690123
0.001410345530484161
0.001410345892415622
0.001410346031858664
0.00141034575479556
0.001410345683312953
0.001410346063753388
0.001410345858207428
0.001410345674143153
0.001410346007236631
0.001410345761795747
0.001410345499440864
0.001410345866571442
0.001410345620340997
0.001410345440872675
0.001410345858041775
0.001410345698138966
0.001410345682828126
0.001410345448354351
0.001410345666121571
0.001410345306805667
0.00141034572004923
0.001410345102815513
0.001410345443337053
0.001410345640896103
0.001410345040946139
0.001410345393099292
0.001410345585990261
0.001410345339084264
0.001410345342044941
0.001410345761911908
0.001410345247072612
0.001410345567710801
0.001410345831017228
0.001410345632692628
0.001410345443791355
0.001410345871988425
0.001410345724034046
0.001410345468693404
0.001410345867842832
0.001410345692060166
0.001410345518853071
0.001410345979860413
0.001410345901200642
0.001410345790790735
0.001410346320456864
0.001410346267019975
0.001410346472391587
0.001410346807175475
0.001410346786602998
0.001410346987955485
0.001410347368924452
0.00141034693273843
0.001410347360782543
0.001410347638894357
0.001410347281116592
0.001410347499807324
0.001410347462936156
0.001410347135277037
0.001410346863121295
0.001410347255825544
0.001410346720616897
0.00141034686738468
0.001410347082026562
0.001732528671271566
0.0017325288348875
0.001732528764290471
0.001732528868522877
0.001732528673061051
0.001732528730802802
0.001732528846342178
0.00173252868091491
0.001732529044367928
0.001732528847341376
0.001732528829053737
0.001732528759847624
0.001732528380726653
0.001732528355685528
0.001732528238981935
0.001732528085339793
0.00173252762820477
0.001732527606199728
0.001732527597491176
0.001732527654596461
0.00173252770551232
0.001732527231885862
0.001732527351976529
0.001732527379548299
0.001732527246007043
0.001732527194713154
0.001732527445333461
0.001732527116724676
0.001732527270864195
0.001732527417867719
0.001732527136815311
0.001732527187440414
0.001732527323201355
0.001732526963292399
0.001732527012706427
0.001732527110933161
0.00173252673038215
0.001732526902008584
0.001732527090424796
0.001732526796063636
0.001732526714515385
0.00173252674249643
0.001732526793080873
0.001732526665731891
0.001732526786809131
0.0017325265057048
0.001732526628731226
0.001732526671403533
0.00173252652779765
0.001732526477911318
0.001732526739252719
0.001732526648268773
0.001732526597405472
0.001732526891177758
0.00173252661380645
0.001732526855683226
0.00173252704187876
0.001732526736060158
0.001732526910384924
0.001732527090121956
0.001732527078705997
0.001732526835824809
0.001732527112890418
0.001732527023263242
0.001732526912202823
0.001732527265703899
0.001732527311972567
0.001732527265230431
0.001732527686338836
0.001732527724155062
0.001732527849447472
0.001732528291778746
0.001732528372135185
0.001732528490692352
0.001732528937167606
0.001732528929929014
0.001732528947531966
0.001732529375447601
0.00173252919641563
0.00173252934558196
0.001732528974428838
0.001732528740583955
0.001732528799028189
0.001732528925495245
0.00173252853553325
0.001732528624529305
0.001732528724517979
0.002157258851071945
0.002157258974146229
0.002157258884900951
0.002157258860743117
0.002157259002458482
0.002157259090065004
0.002157259196002454
0.002157259014858208
0.002157259291619283
0.00215725924780458
0.002157259220313283
0.002157258770936276
0.002157258640766893
0.002157258612782824
0.002157258072951375
0.002157258121609458
0.002157257678885143
0.002157257636187263
0.00215725750454054
0.002157257541446176
0.002157257548035481
0.002157257304682537
0.002157257240588778
0.002157257102415089
0.002157257213116923
0.002157257121364475
0.002157257319519835
0.002157257083791032
0.00215725722373134
0.002157257084329852
0.002157257208926695
0.002157257044338504
0.002157257061823776
0.002157257029897971
0.002157256733754588
0.00215725671795967
0.002157256501217172
0.002157256621906792
0.002157256711583835
0.002157256393994938
0.002157256379750052
0.002157256392458225
0.002157256421673406
0.002157256335693923
0.002157256368654844
0.002157256218211959
0.002157256226901534
0.002157256240961419
0.002157256182596534
0.002157256110342899
0.002157256361318095
0.002157256327250218
0.002157256287163727
0.002157256482154122
0.002157256487052142
0.002157256538882383
0.002157256688067562
0.002157256632602273
0.002157256710982798
0.0021572568042567
0.002157256751435847
0.002157256728960149
0.002157256856095834
0.002157256808438771
0.002157256752908505
0.002157257031768654
0.002157257040355261
0.00215725714807954
0.002157257545112904
0.002157257589563453
0.002157257965033372
0.002157258282507695
0.002157258451551013
0.002157258780916091
0.002157259135114111
0.002157259063291525
0.002157259284610447
0.002157259632550776
0.002157259575126153
0.002157259566153079
0.002157259239753368
0.002157259206630919
0.002157258963889065
0.002157258983205852
0.00215725885178409
0.002157258848332903
0.002157258860660765
0.002697993455091281
0.002697993692261078
0.002697993575231394
0.002697993707759486
0.002697993775360368
0.002697993880613286
0.002697993953840802
0.002697993911477899
0.002697994180568384
0.002697994160154165
0.002697994104812447
0.002697993441216
0.002697993441969514
0.00269799311215235
0.002697992724223677
0.002697992680903986
0.002697992237912284
0.002697992160512863
0.002697991966850435
0.002697992036492289
0.002697992050965429
0.00269799174162153
0.002697991742696605
0.002697991664041507
0.002697991591946646
0.00269799166673214
0.002697991749103414
0.002697991665326929
0.00269799171422355
0.002697991631126378
0.002697991649824291
0.002697991490340659
0.002697991478126444
0.002697991434217944
0.002697990941540223
0.002697990845395283
0.002697990710714708
0.002697990830299471
0.002697990864495538
0.002697990584852364
0.002697990678859116
0.002697990465569534
0.002697990584608159
0.002697990555262527
0.002697990537395661
0.002697990299959599
0.002697990265124558