/*--------------------------------*- C++ -*----------------------------------*\
| =========                 |                                                 |
| \\      /  F ield         | OpenFOAM: The Open Source CFD Toolbox           |
|  \\    /   O peration     | Version:  v1812                                 |
|   \\  /    A nd           | Web:      www.OpenFOAM.com                      |
|    \\/     M anipulation  |                                                 |
\*---------------------------------------------------------------------------*/
FoamFile
{
    version     2.0;
    format      ascii;
    class       volScalarField;
    location    "10000";
    object      p;
}
// * * * * * * * * * * * * * * * * * * * * * * * * * * * * * * * * * * * * * //

dimensions      [0 2 -2 0 0 0 0];


internalField   nonuniform List<scalar> 
5655
(
2.824039272639791e-10
1.966662742810381e-07
3.257377858441343e-07
3.815583402842309e-07
3.807764819255389e-07
3.871029225788032e-07
3.149910040360384e-07
2.568354405846293e-07
2.287720796009972e-07
2.255206751112498e-07
2.386572033349492e-07
2.810259848983138e-07
3.168174398443666e-07
2.745595799926863e-07
2.011619800169557e-07
1.471109614429485e-07
1.834015576727243e-07
1.841292607702568e-07
1.833353330255573e-07
1.550072981857845e-07
9.956338216984592e-08
9.627017892061693e-08
1.379093413713306e-07
1.727617350080929e-07
1.877045960860732e-07
1.411415478908699e-07
1.696884899748864e-07
2.281698293859099e-07
2.96608166053193e-07
3.789684639879906e-07
4.745460536780217e-07
5.443480479840597e-07
5.826212133368251e-07
5.809476381562924e-07
6.310816901889847e-07
6.640377153976846e-07
7.236948506953535e-07
7.949436810879623e-07
8.610601276154746e-07
9.016498675566731e-07
9.22527134225283e-07
9.336679895095555e-07
9.51895016497793e-07
9.362781188746997e-07
9.121396530198454e-07
8.335198281162196e-07
7.859414191646329e-07
7.066547407066039e-07
6.760005024922005e-07
6.450229762177027e-07
6.430130632466133e-07
6.449119523152246e-07
6.808796449234167e-07
7.296292625393663e-07
7.737451968084677e-07
8.103957019898256e-07
8.643307999668919e-07
9.000431243559305e-07
9.278630932082576e-07
9.342020207668314e-07
9.380556537221158e-07
9.023045032634041e-07
8.662568710974717e-07
7.941770893441618e-07
7.254776609315663e-07
6.363528618332892e-07
5.497290123547355e-07
4.625042319121419e-07
3.697174947975488e-07
3.037445553520127e-07
2.354137093369941e-07
2.240575505696001e-07
1.895753944527042e-07
2.072790508440865e-07
2.070193432846191e-07
2.754684884358463e-07
3.003096124918952e-07
3.492030387886184e-07
3.796531875134939e-07
4.282280363065754e-07
4.308456635372074e-07
3.976452620888177e-07
3.716577528135155e-07
4.18387187835424e-07
4.552489779897411e-07
4.215645447427374e-07
1.876344395494078e-07
1.03131565025177e-08
1.961103655284967e-07
3.242152358445254e-07
3.814843802550162e-07
3.804474277897382e-07
3.868636833808152e-07
3.148593431368361e-07
2.569277797962509e-07
2.287881410266431e-07
2.254315440801986e-07
2.384003021139459e-07
2.805310483403705e-07
3.162486217832123e-07
2.741723964929413e-07
2.011807069411686e-07
1.471846283478029e-07
1.833519822401931e-07
1.840712262379885e-07
1.834133458991822e-07
1.552961335033554e-07
9.98974908243441e-08
9.671015747120637e-08
1.381788325794589e-07
1.729693870382314e-07
1.878327867332049e-07
1.41514458944306e-07
1.699877997969508e-07
2.283362337389019e-07
2.966316726774535e-07
3.789484512696694e-07
4.743592631690839e-07
5.441411474463511e-07
5.825026971999293e-07
5.809990565553547e-07
6.311078843065738e-07
6.640706348994726e-07
7.236889313686376e-07
7.948531614704354e-07
8.609299354775799e-07
9.015153658415941e-07
9.225087437322006e-07
9.336685420643194e-07
9.519231914987935e-07
9.362775951372673e-07
9.122649868361207e-07
8.337798934110952e-07
7.863063761820371e-07
7.070875740929037e-07
6.763577968577494e-07
6.453639315665668e-07
6.431680346817599e-07
6.450620697609851e-07
6.807547621981883e-07
7.294611631767697e-07
7.734647718314459e-07
8.101116725164061e-07
8.639061968195967e-07
8.99592664170511e-07
9.274830712574882e-07
9.337989013191371e-07
9.377446582213306e-07
9.020006246527663e-07
8.661068236831496e-07
7.940304441003495e-07
7.254157750972375e-07
6.362732914409065e-07
5.497011834730537e-07
4.625180759291681e-07
3.697834231262349e-07
3.038587660935222e-07
2.355304874190888e-07
2.241892924432493e-07
1.897140749677918e-07
2.073979588774078e-07
2.070955232909202e-07
2.75371465277736e-07
3.002305978188758e-07
3.48922773621732e-07
3.793490544000598e-07
4.276974480759629e-07
4.304893754818776e-07
3.973969706198439e-07
3.716109250620781e-07
4.182293919637417e-07
4.548264735514328e-07
4.202764974373104e-07
1.889771361762656e-07
2.597387888782927e-08
1.973259282119095e-07
3.213428654004241e-07
3.809804616445158e-07
3.798377978428073e-07
3.861552268176195e-07
3.145880089482308e-07
2.570187709229355e-07
2.287906134617395e-07
2.251481918179324e-07
2.378671935943994e-07
2.795401829590003e-07
3.150917991856262e-07
2.734288946533691e-07
2.013576727590359e-07
1.475559966077697e-07
1.834367392134884e-07
1.84125579542931e-07
1.83790428372782e-07
1.559468095580386e-07
1.00797132516166e-07
9.769735381684074e-08
1.388226169050395e-07
1.73388956514462e-07
1.881119737315933e-07
1.423212817835691e-07
1.706408288704047e-07
2.286495588858451e-07
2.967152346843595e-07
3.789529257196678e-07
4.739833067207807e-07
5.437274025368033e-07
5.822391417505599e-07
5.812290157342363e-07
6.311853702451561e-07
6.642171756225133e-07
7.237217480040596e-07
7.947481479794314e-07
8.606803489478749e-07
9.013033420475143e-07
9.225035404626467e-07
9.337792500877007e-07
9.520086844687566e-07
9.363462792993662e-07
9.125248527635275e-07
8.34367539475634e-07
7.870463586452054e-07
7.079494769930979e-07
6.770539268636075e-07
6.459406119938603e-07
6.434152336936096e-07
6.452527810798567e-07
6.804223912026962e-07
7.29018935793635e-07
7.728301067179109e-07
8.095343702143194e-07
8.629852777986931e-07
8.987286108400619e-07
9.266971144922225e-07
9.330780180131427e-07
9.371064871540101e-07
9.014830972208517e-07
8.65808413713882e-07
7.937963064487662e-07
7.253142237482736e-07
6.361414373102119e-07
5.496879509110136e-07
4.625502518918368e-07
3.699807508921803e-07
3.040706030666682e-07
2.358121688237097e-07
2.243946770722737e-07
1.899632518227676e-07
2.075384979302673e-07
2.07140743744945e-07
2.750417345496627e-07
2.998984379354214e-07
3.482592430955829e-07
3.786050699143472e-07
4.265953244455375e-07
4.297328216322839e-07
3.969744441457395e-07
3.717229253971443e-07
4.181441794335009e-07
4.542995687807431e-07
4.17781709959882e-07
1.891355520639227e-07
4.07524439106711e-08
2.002708799289841e-07
3.183896330540004e-07
3.798519793487441e-07
3.78962124953192e-07
3.848583517968765e-07
3.139801485753386e-07
2.569503457089026e-07
2.287307626540284e-07
2.246535610779024e-07
2.37058936620241e-07
2.780454271618519e-07
3.132273338652643e-07
2.719952086940785e-07
2.012171228511769e-07
1.479806644672078e-07
1.834704121052022e-07
1.840740923077674e-07
1.842363692561837e-07
1.567103038818585e-07
1.019897483233282e-07
9.915014452031985e-08
1.398676112456802e-07
1.739826406015674e-07
1.884124353417007e-07
1.434489009957502e-07
1.717066224410763e-07
2.291804904205206e-07
2.969271708867128e-07
3.790510061036555e-07
4.735370637411993e-07
5.431176400310923e-07
5.817571054991177e-07
5.815459269540032e-07
6.312916733534661e-07
6.644533525355903e-07
7.238199792948096e-07
7.946392561513541e-07
8.603396940009728e-07
9.009587974230825e-07
9.224420696744354e-07
9.339239460349746e-07
9.521028794694346e-07
9.364199587856882e-07
9.127941739364941e-07
8.351796824490107e-07
7.880692687332604e-07
7.092592828055376e-07
6.781668569751113e-07
6.468920266456332e-07
6.438944938115841e-07
6.456536285540562e-07
6.801138482387428e-07
7.284187503270828e-07
7.719216767894317e-07
8.087170012804803e-07
8.616666615273014e-07
8.97418968413231e-07
9.254816674157819e-07
9.319795049494401e-07
9.360954428426586e-07
9.006693133289545e-07
8.652861634965757e-07
7.934059551180213e-07
7.251119733547744e-07
6.359147834221928e-07
5.496369858281983e-07
4.625298418766623e-07
3.702617115603529e-07
3.043501517951914e-07
2.363053929946626e-07
2.246968231550771e-07
1.904280835171173e-07
2.077916416794319e-07
2.073690626959977e-07
2.746122589490511e-07
2.994403977682372e-07
3.473172133364268e-07
3.774968092311324e-07
4.249263484519023e-07
4.28371365220528e-07
3.961767141729133e-07
3.717284055332348e-07
4.181393450345951e-07
4.539385799525569e-07
4.151446030441825e-07
1.881514019602182e-07
5.387468260467748e-08
2.02299450882523e-07
3.155050653555951e-07
3.782800521312996e-07
3.778582635337217e-07
3.832809288048682e-07
3.133213764204738e-07
2.569273210747869e-07
2.286828182690439e-07
2.239935476488019e-07
2.360452817792479e-07
2.762086931217167e-07
3.110274632252088e-07
2.704436766466711e-07
2.013198587105491e-07
1.487727782440018e-07
1.836950840590382e-07
1.842152647598673e-07
1.850221400709805e-07
1.578507371562501e-07
1.036742992306338e-07
1.010599213332855e-07
1.411963823994208e-07
1.747217637141883e-07
1.8882132057777e-07
1.448879661477457e-07
1.730243627130964e-07
2.297635706517663e-07
2.971441424570071e-07
3.791044373853885e-07
4.729305408464334e-07
5.423184414234899e-07
5.81168059555926e-07
5.82023639118926e-07
6.314501545007566e-07
6.647596818824738e-07
7.239407943607237e-07
7.944799650742949e-07
8.599006264473824e-07
9.005525525155769e-07
9.224026696005918e-07
9.341688944949166e-07
9.522690428395946e-07
9.366041951355908e-07
9.132217608790415e-07
8.363161427901685e-07
7.894121014415598e-07
7.10921173446685e-07
6.79529880149175e-07
6.479795977667087e-07
6.443817784937917e-07
6.459942035610108e-07
6.795969711776128e-07
7.275178417618086e-07
7.706939040006535e-07
8.076094955649976e-07
8.599792396868761e-07
8.957904887737652e-07
9.239919597627807e-07
9.306739320528988e-07
9.348942883622685e-07
8.997603393453915e-07
8.647111976262605e-07
7.930233205883427e-07
7.249347515762435e-07
6.357277573965775e-07
5.496484130517592e-07
4.625651403295941e-07
3.706500186176424e-07
3.04688225528876e-07
2.368784536564843e-07
2.249577731379393e-07
1.908656731477118e-07
2.079088238285724e-07
2.07457351249803e-07
2.738499857563816e-07
2.986595159856203e-07
3.459839774783169e-07
3.760102873537046e-07
4.2284362467555e-07
4.267493988960754e-07
3.953565589866397e-07
3.718892979289432e-07
4.182487493489713e-07
4.537236184574587e-07
4.129956013111169e-07
1.88489408594202e-07
6.755579225674756e-08
2.045256090491603e-07
3.127121874054973e-07
3.762265419054335e-07
3.763623510765361e-07
3.811202894509726e-07
3.122829231888656e-07
2.567430419453515e-07
2.285659314370864e-07
2.231203815279495e-07
2.34718221544996e-07
2.738074605568272e-07
3.08058604335984e-07
2.681188255659985e-07
2.010204461407155e-07
1.495818724247747e-07
1.838530765381848e-07
1.842234532014238e-07
1.858626196010607e-07
1.591253805917406e-07
1.056697260116754e-07
1.035344090330881e-07
1.42984981296266e-07
1.757034106349682e-07
1.892791851468408e-07
1.467069936235243e-07
1.748163183270911e-07
2.306463831979568e-07
2.975159329616577e-07
3.792750971183154e-07
4.722584751411114e-07
5.413113252718779e-07
5.803302258445393e-07
5.825714590029189e-07
6.316375815879878e-07
6.651555665793843e-07
7.241238149673335e-07
7.942876030524672e-07
8.593440649382191e-07
8.999733573455518e-07
9.222625561606113e-07
9.344004597095038e-07
9.524128692150106e-07
9.367809188878113e-07
9.13651841899946e-07
8.377052431177652e-07
7.910723510565511e-07
7.131199458001668e-07
6.814015538549236e-07
6.495675298965587e-07
6.451756652611391e-07
6.466297982711018e-07
6.791570357989659e-07
7.264883184642858e-07
7.691529655564973e-07
8.062046760349312e-07
8.578612445030175e-07
8.936417469491119e-07
9.219950259435705e-07
9.288939466957166e-07
9.332579306999737e-07
8.984730291162634e-07
8.638659348901526e-07
7.924384520438127e-07
7.246436690798263e-07
6.354589962546612e-07
5.496531974618525e-07
4.625706771065046e-07
3.711455737687737e-07
3.051280019168396e-07
2.376864408346948e-07
2.253244901215053e-07
1.915094004298992e-07
2.081116676631195e-07
2.077325220593916e-07
2.729513113937787e-07
2.977092174816939e-07
3.443142094250406e-07
3.741322624902904e-07
4.201228042695836e-07
4.244569643604021e-07
3.940877425663405e-07
3.718569116474419e-07
4.182928872636952e-07
4.534694374544083e-07
4.108782038468435e-07
1.893669811146151e-07
8.070451335326332e-08
2.059552498339785e-07
3.097860477928783e-07
3.737782742818616e-07
3.745897033937101e-07
3.78708340725533e-07
3.112365418802339e-07
2.56638993545078e-07
2.284727585087903e-07
2.220843745498124e-07
2.331746975680329e-07
2.710465757106817e-07
3.047792955761425e-07
2.657330732617037e-07
2.010733224267446e-07
1.508435480727964e-07
1.84266461064382e-07
1.84499521591542e-07
1.871169488149569e-07
1.608640624857604e-07
1.082706214337289e-07
1.065490959021261e-07
1.450700932596512e-07
1.768558846436343e-07
1.898957772325388e-07
1.488860191173451e-07
1.768687624090379e-07
2.315946459203102e-07
2.978865767429619e-07
3.793821325803002e-07
4.713924077434607e-07
5.400970746534671e-07
5.793937858991414e-07
5.833029158572917e-07
6.318883198245775e-07
6.656287873908814e-07
7.243229572880311e-07
7.940204806116361e-07
8.586623336403157e-07
8.993259466940541e-07
9.22138469434991e-07
9.34731757392323e-07
9.526260657491691e-07
9.370869662467583e-07
9.142770444025196e-07
8.394721397516196e-07
7.931022820333505e-07
7.157174687664302e-07
6.835588274818646e-07
6.513124821716737e-07
6.459818544064958e-07
6.471889438365357e-07
6.784719450095689e-07
7.25126556903381e-07
7.672470198824451e-07
8.044555390784712e-07
8.553403119881812e-07
8.911517642659754e-07
9.196964711436108e-07
9.268868911146847e-07
9.314237844216e-07
8.970891406384261e-07
8.62978920894367e-07
7.918848620489603e-07
7.24411767547897e-07
6.352836969200605e-07
5.49778162831975e-07
4.626829202897957e-07
3.717867901232162e-07
3.056538550143188e-07
2.385636812110155e-07
2.256231600185987e-07
1.920600482358338e-07
2.080980404081105e-07
2.077747876097319e-07
2.716328705161205e-07
2.963409037311887e-07
3.421823469882521e-07
3.71827562594335e-07
4.169567533475641e-07
4.219245661457701e-07
3.928391625608331e-07
3.720306511227226e-07
4.184286870396002e-07
4.532742684207936e-07
4.091018507593071e-07
1.915286904452935e-07
9.468807339187789e-08
2.080154084393447e-07
3.069506497269342e-07
3.707876891557936e-07
3.723380962561908e-07
3.756122541016706e-07
3.097286303921689e-07
2.56334483029171e-07
2.282926927408245e-07
2.208182867084369e-07
2.312562024995095e-07
2.676206427818802e-07
3.005400613197677e-07
2.62392991556352e-07
2.005781427913226e-07
1.52111180288834e-07
1.846350622693038e-07
1.84626566621123e-07
1.884214689532371e-07
1.627209442159951e-07
1.11283333582613e-07
1.102902022139223e-07
1.477011621019956e-07
1.782949252697644e-07
1.90607580329554e-07
1.515208703053515e-07
1.794983985079729e-07
2.329197146885824e-07
2.984704627087015e-07
3.796369427460237e-07
4.704603842465527e-07
5.386434783263947e-07
5.781812912264153e-07
5.841003167440134e-07
6.321750626822099e-07
6.662066665191699e-07
7.245929464631299e-07
7.937117599159053e-07
8.578244992292068e-07
8.984694470009627e-07
9.218731165988412e-07
9.350309838949499e-07
9.527853955624512e-07
9.373684089515564e-07
9.148953556841821e-07
8.415254326368681e-07
7.955098173035339e-07
7.189501348375255e-07
6.863505314926718e-07
6.536666639093169e-07
6.471978816870398e-07
6.481180850066984e-07
6.779144025885831e-07
7.236342488290604e-07
7.64982262043051e-07
8.023470294746101e-07
8.523197208071857e-07
8.880616697105645e-07
9.167885516835073e-07
9.243165224827907e-07
9.290617475344983e-07
8.952513785205505e-07
8.617592780050884e-07
7.910945233295577e-07
7.240544652749553e-07
6.350473146778325e-07
5.499414452394182e-07
4.628068993725882e-07
3.725951999329908e-07
3.063445549293864e-07
2.397346766213409e-07
2.260630373230992e-07
1.928270193069746e-07
2.081632242374458e-07
2.079830812422752e-07
2.701346843103984e-07
2.947075587396095e-07
3.396322126189158e-07
3.690266872838508e-07
4.130305258024044e-07
4.185815508698623e-07
3.910558921684735e-07
3.719614882631893e-07
4.1845970612355e-07
4.530014719480882e-07
4.07262175322598e-07
1.939693948921799e-07
1.082691054617738e-07
2.094710316807921e-07
3.039500951851995e-07
3.672520076713047e-07
3.697368656549166e-07
3.722199022314026e-07
3.082350796501492e-07
2.561542305327202e-07
2.281325248340652e-07
2.193579407731591e-07
2.290403334656579e-07
2.63729979567862e-07
2.958946477380728e-07
2.590149139026865e-07
2.00596539153682e-07
1.540443707844838e-07
1.853694159658929e-07
1.851229133918713e-07
1.902512263419465e-07
1.651981940970963e-07
1.151897400783436e-07
1.147779828262727e-07
1.506860058216136e-07
1.799620269229799e-07
1.915316658364555e-07
1.546334758427985e-07
1.824425769983932e-07
2.343320713962908e-07
2.990486769232681e-07
3.797952772030468e-07
4.692669534061379e-07
5.369334970651237e-07
5.768612880444433e-07
5.8513039693865e-07
6.325456615328821e-07
6.668775211555805e-07
7.248776930200227e-07
7.932899713305647e-07
8.568147863415075e-07
8.97517252293207e-07
9.216256202406894e-07
9.354515991178187e-07
9.530297694240661e-07
9.378224544118438e-07
9.157722946286924e-07
8.44077354290335e-07
7.983981477710829e-07
7.227038894896306e-07
6.89512449816253e-07
6.562255070429465e-07
6.484292996509856e-07
6.48945630977689e-07
6.770328237551554e-07
7.217104046075685e-07
7.622398582231037e-07
7.997878143807998e-07
8.487843102835744e-07
8.845389982372057e-07
9.135013473381452e-07
9.214586733888864e-07
9.264581999583274e-07
8.9330180872855e-07
8.605042855256459e-07
7.903713198361042e-07
7.238044436079997e-07
6.349725653290519e-07
5.502938770064184e-07
4.631022688155451e-07
3.736077156385529e-07
3.071554698251235e-07
2.409819727150171e-07
2.263874710059603e-07
1.934363868473399e-07
2.079004050638386e-07
2.07843459816905e-07
2.680489851889149e-07
2.92503247072419e-07
3.364545539914456e-07
3.656690939585351e-07
4.085294774798678e-07
4.149532483323213e-07
3.893179327020563e-07
3.721707540301768e-07
4.185892367706269e-07
4.528520325693571e-07
4.058798359949676e-07
1.976938199959782e-07
1.229246171368274e-07
2.117590036236722e-07
3.010919093177126e-07
3.628989962255126e-07
3.664992553757541e-07
3.678776747256581e-07
3.061817292790594e-07
2.557442552479586e-07
2.278365320742035e-07
2.175538710800954e-07
2.2625348232784e-07
2.588231110562165e-07
2.898864115327463e-07
2.543748601303183e-07
2.000823989267249e-07
1.561135311346737e-07
1.859959023846958e-07
1.854396706637386e-07
1.921162361455526e-07
1.67898977228845e-07
1.199325314379626e-07
1.203313432182057e-07
1.54422464652747e-07
1.820295045717927e-07
1.926419747780007e-07
1.584269634138926e-07
1.8618913044496e-07
2.362649836572953e-07
2.999760041470307e-07
3.801602883213078e-07
4.679856651713757e-07
5.349290075838223e-07
5.752382088680486e-07
5.862502660341379e-07
6.32981809827682e-07
6.676939656785371e-07
7.252591201188272e-07
7.928036464600106e-07
8.555571132083781e-07
8.962688590788422e-07
9.211760824158406e-07
9.358137186221129e-07
9.531540476114734e-07
9.382250252430146e-07
9.166319011716072e-07
8.470240602507847e-07
8.018153883360068e-07
7.273259231278135e-07
6.935610160387083e-07
6.596082516461797e-07
6.502680290812465e-07
6.502862745113635e-07
6.763471006058989e-07
7.196192801032729e-07
7.59034956672556e-07
7.967434569117388e-07
8.445459357308672e-07
8.802143647151182e-07
9.093690195615558e-07
9.178339019240821e-07
9.231037231798607e-07
8.907441242153642e-07
8.587837592064438e-07
7.893539991085443e-07
7.234201865043559e-07
6.348839500541481e-07
5.507777364273876e-07
4.635307312678269e-07
3.749470890757605e-07
3.082807384105468e-07
2.426840569239811e-07
2.269338917950954e-07
1.943172370888908e-07
2.077087455926777e-07
2.078158251032877e-07
2.656293696636108e-07
2.898167609737222e-07
3.326003249414162e-07
3.615210053052734e-07
4.029353485175161e-07
4.102031172136883e-07
3.868712440213784e-07
3.720750101966411e-07
4.185383305917347e-07
4.525958538603456e-07
4.044178980292874e-07
2.019374395003713e-07
1.376729457748523e-07
2.136472116989788e-07
2.979756497007623e-07
3.575666711565561e-07
3.626883737397836e-07
3.62972843170082e-07
3.040848860613905e-07
2.554620209733268e-07
2.274743976978207e-07
2.15354119379006e-07
2.228476880804079e-07
2.529979742353619e-07
2.830105545900863e-07
2.495768611252082e-07
2.003399033807599e-07
1.592053142719156e-07
1.871694244323691e-07
1.863071228783281e-07
1.948023035623468e-07
1.716674396534168e-07
1.262758574746475e-07
1.271541005360972e-07
1.587840488570566e-07
1.845315017589152e-07
1.941304455520369e-07
1.630307277292827e-07
1.904586578600444e-07
2.383901362276632e-07
3.009563311551373e-07
3.803860184632735e-07
4.662843744798792e-07
5.325472340251232e-07
5.734739797693394e-07
5.876928065539908e-07
6.33553400974333e-07
6.686608341659918e-07
7.256563034568779e-07
7.921243731655541e-07
8.53996656512711e-07
8.948334189823648e-07
9.207341119874175e-07
9.363430409327474e-07
9.533797284145013e-07
9.389098196808173e-07
9.179080784967847e-07
8.507939583440263e-07
8.060494516971382e-07
7.328650093469466e-07
6.982856434729494e-07
6.634148261691958e-07
6.522312307119751e-07
6.515231357285381e-07
6.751832695925532e-07
7.168606896265731e-07
7.550440230821654e-07
7.929489736713252e-07
8.394231380816669e-07
8.751454017553397e-07
9.045570470841368e-07
9.136848510420021e-07
9.19292404661768e-07
8.87971733787778e-07
8.569797320500107e-07
7.88452662643326e-07
7.232465690052602e-07
6.351014464473075e-07
5.516199532350002e-07
4.643049105928833e-07
3.766710282727748e-07
3.096292982797329e-07
2.445457663217009e-07
2.272980936608873e-07
1.949380470798753e-07
2.069601473936489e-07
2.071837523301505e-07
2.622071083860268e-07
2.861525540319607e-07
3.276494077293652e-07
3.563767765933911e-07
3.963291511455911e-07
4.049007253511724e-07
3.844001487639961e-07
3.723510658399063e-07
4.185990889078129e-07
4.525793649664971e-07
4.036364933373315e-07
2.079469839213835e-07
1.538362102575065e-07
2.166174118484031e-07
2.950512955518533e-07
3.509536409961081e-07
3.578912284612361e-07
3.566819240144854e-07
3.012741158754679e-07
2.54848155791069e-07
2.267950285889946e-07
2.124961408612926e-07
2.183731952125799e-07
2.454569725421478e-07
2.739654776028303e-07
2.431719133042368e-07
2.000799837022699e-07
1.625718826828341e-07
1.882114452833736e-07
1.871287905587011e-07
1.977542372556394e-07
1.761222641258158e-07
1.342802212784401e-07
1.35721299655455e-07
1.643336560207162e-07
1.877842835525341e-07
1.961171919968468e-07
1.68797474135282e-07
1.958653333278595e-07
2.412955271291243e-07
3.025127591094849e-07
3.808757404699655e-07
4.643812407608895e-07
5.297734959165038e-07
5.714210888794294e-07
5.892999649619681e-07
6.342568736026574e-07
6.698705079580226e-07
7.261615859261157e-07
7.912949609013552e-07
8.520012123539257e-07
8.929529857883574e-07
9.200186018654308e-07
9.367877703835308e-07
9.53404281057117e-07
9.396068149001454e-07
9.192960326178282e-07
8.55307357797526e-07
8.112096375194555e-07
7.398084936971996e-07
7.043615599944619e-07
6.684663382689449e-07
6.551393825904123e-07
6.534510484999369e-07
6.741968318737805e-07
7.137930894306033e-07
7.502965091561538e-07
7.882955001818087e-07
8.330881219157178e-07
8.688241033477651e-07
8.983885955429635e-07
9.083422029830991e-07
9.142991565066758e-07
8.843503543687875e-07
8.545149550718623e-07
7.872675403657832e-07
7.23033616759348e-07
6.355350969081727e-07
5.528706644190413e-07
4.655545055708723e-07
3.79072025417145e-07
3.115574289865491e-07
2.470807326521501e-07
2.279134947230508e-07
1.957660981146867e-07
2.060281965060574e-07
2.063311584851958e-07
2.579077067272526e-07
2.814442272709814e-07
3.213574776001132e-07
3.497860645760115e-07
3.879655739133413e-07
3.980154359443913e-07
3.809708977730692e-07
3.723078925743405e-07
4.183796252027699e-07
4.524110621706938e-07
4.029215875149986e-07
2.152358883977673e-07
1.703302660267411e-07
2.198090313224396e-07
2.920433510674628e-07
3.429843833548396e-07
3.521851126170591e-07
3.493881248159531e-07
2.982225475514315e-07
2.540881292823326e-07
2.257505284142359e-07
2.08823382516253e-07
2.12714220700514e-07
2.36236364949755e-07
2.633058250307541e-07
2.362095984213735e-07
2.004511964695182e-07
1.669808700125607e-07
1.899293191387425e-07
1.887994468936301e-07
2.018708994581576e-07
1.823109316217041e-07
1.447453503678128e-07
1.462908267748868e-07
1.711507045087456e-07
1.91967843841808e-07
1.989216492711442e-07
1.758491776844446e-07
2.0209477883782e-07
2.447150883662154e-07
3.043399028950199e-07
3.812477371595234e-07
4.619586638996906e-07
5.265600801112131e-07
5.692100930472758e-07
5.912338145864193e-07
6.351570375669441e-07
6.713113293601284e-07
7.266526482184e-07
7.901696534099954e-07
8.495037297894879e-07
8.907312313571035e-07
9.19223601554562e-07
9.373651844206277e-07
9.535219118872995e-07
9.407758532766494e-07
9.213332711214249e-07
8.610724333593016e-07
8.176764604573976e-07
7.483029635125832e-07
7.116680943112449e-07
6.744873928717469e-07
6.585602591391161e-07
6.554527137566627e-07
6.726944390029963e-07
7.098355388229032e-07
7.443406507101345e-07
7.823625471736801e-07
8.252430580679654e-07
8.611913336056727e-07
8.909188943618609e-07
9.019718647617433e-07
9.083864517952016e-07
8.802877930357913e-07
8.517928082752254e-07
7.862972164895529e-07
7.232182756113577e-07
6.366161426494685e-07
5.548116472112159e-07
4.675117386249946e-07
3.82123101195658e-07
3.13860470411727e-07
2.498140823424393e-07
2.281646619174199e-07
1.960492427883224e-07
2.040866147607051e-07
2.043421607458202e-07
2.519252450430062e-07
2.751040343677216e-07
3.132496445938545e-07
3.4154049171535e-07
3.779662563060663e-07
3.901057743195894e-07
3.771800189133001e-07
3.72520238764749e-07
4.180963346880504e-07
4.524316783960767e-07
4.033029764809504e-07
2.250960450189871e-07
1.873321332519348e-07
2.244341040899495e-07
2.895563379357392e-07
3.337758161631395e-07
3.453219178424427e-07
3.405596529073815e-07
2.944027269529742e-07
2.526472428781779e-07
2.24008980080789e-07
2.040910146932612e-07
2.054895162723375e-07
2.247004767145062e-07
2.500413620810433e-07
2.273916055112644e-07
1.99970474559063e-07
1.712747097292554e-07
1.914083870977355e-07
1.907535292166229e-07
2.063902513316359e-07
1.897480492577494e-07
1.574699879717738e-07
1.590164015814376e-07
1.797560543510798e-07
1.974677222325141e-07
2.028542295001689e-07
1.84417719151163e-07
2.095603299439574e-07
2.492591873511454e-07
3.069964608430819e-07
3.819672320271905e-07
4.594234745774429e-07
5.231566650049104e-07
5.668990415133319e-07
5.932950627324084e-07
6.362406544353771e-07
6.730515915263658e-07
7.271784617071738e-07
7.888036069014416e-07
8.464319553478487e-07
8.879777882812487e-07
9.180396152275877e-07
9.377194008434618e-07
9.533961173441905e-07
9.421177756814558e-07
9.236776302770142e-07
8.678195867688225e-07
8.253354609132407e-07
7.585513723051513e-07
7.206503383007592e-07
6.821959736481214e-07
6.633472161545419e-07
6.583733236231971e-07
6.714966879210289e-07
7.055665104083444e-07
7.374586940113973e-07
7.751410896832817e-07
8.156980855893581e-07
8.518435313989103e-07
8.815018865111495e-07
8.939421109093624e-07
9.008643623486182e-07
8.75223354355848e-07
8.482597670424923e-07
7.852675023655144e-07
7.236340069359396e-07
6.384409192674041e-07
5.576244546599766e-07
4.70504153208256e-07
3.861506891670858e-07
3.169236653632068e-07
2.531203511275298e-07
2.284078539345517e-07
1.960588139445175e-07
2.013381776418685e-07
2.013509890597e-07
2.443206201832899e-07
2.670435536446723e-07
3.031569313716793e-07
3.313537437442801e-07
3.659029515135377e-07
3.804726915014708e-07
3.722062349530759e-07
3.722069485012201e-07
4.171028842558618e-07
4.519573234839134e-07
4.042972106039912e-07
2.371613956957806e-07
2.033437262170724e-07
2.299612129376203e-07
2.87580866483142e-07
3.239011816719087e-07
3.376655254169915e-07
3.309153650432696e-07
2.902291111694029e-07
2.505476296853849e-07
2.214676278920787e-07
1.982707070683321e-07
1.967611627800973e-07
2.11264778824908e-07
2.350196830352726e-07
2.176356239942674e-07
1.991475632467348e-07
1.756610261174406e-07
1.932452946382912e-07
1.937106804606029e-07
2.118694041645919e-07
1.990578094097617e-07
1.725701031670191e-07
1.737674364964134e-07
1.901793870220424e-07
2.044630812650524e-07
2.081900559961931e-07
1.942458832638901e-07
2.177967391530328e-07
2.54664172092024e-07
3.101811736877396e-07
3.828473641163909e-07
4.567818172385479e-07
5.197639848104842e-07
5.646960877068309e-07
5.95506267843065e-07
6.375211913429557e-07
6.750074753670831e-07
7.276199582808672e-07
7.871216170370724e-07
8.428835522338182e-07
8.848497281084637e-07
9.165832690031154e-07
9.379793241781109e-07
9.533258981290227e-07
9.439596596228421e-07
9.266823612612503e-07
8.756586589156792e-07
8.341517752738321e-07
7.702776286956108e-07
7.309352557868069e-07
6.911953132350067e-07
6.69125596098417e-07
6.617398414031849e-07
6.702304407457689e-07
7.007212935631403e-07
7.295209533378562e-07
7.664225052637654e-07
8.044856362985934e-07
8.409167314713254e-07
8.703733933853429e-07
8.84584423656102e-07
8.921734705076629e-07
8.696432985683242e-07
8.443920681630247e-07
7.847048497352171e-07
7.246953278774063e-07
6.414287145006607e-07
5.615227827325414e-07
4.746414422326188e-07
3.909426510179498e-07
3.203789121503806e-07
2.563304396675882e-07
2.27974519681118e-07
1.949679143205452e-07
1.969925190017581e-07
1.965161069352418e-07
2.345583700077096e-07
2.569102627593468e-07
2.910079754282545e-07
3.193912093502845e-07
3.523233575417378e-07
3.698217331119078e-07
3.665549425381365e-07
3.716191537414177e-07
4.154381916365642e-07
4.510978956147155e-07
4.067748936517613e-07
2.520047742391143e-07
2.175314368529694e-07
2.365066263029644e-07
2.863309866249097e-07
3.139450937250578e-07
3.293227773392396e-07
3.20591063722166e-07
2.854927047406426e-07
2.474872820541279e-07
2.179189340791619e-07
1.913128884716623e-07
1.864562300208495e-07
1.95971296865053e-07
2.181628008650576e-07
2.064023909796642e-07
1.968233365367611e-07
1.789453429452651e-07
1.946386501818558e-07
1.971665447611796e-07
2.175764258859618e-07
2.095704719055158e-07
1.892330680030876e-07
1.901039371587516e-07
2.024729438944832e-07
2.131081706556258e-07
2.151717950466915e-07