/*--------------------------------*- C++ -*----------------------------------*\
| =========                 |                                                 |
| \\      /  F ield         | OpenFOAM: The Open Source CFD Toolbox           |
|  \\    /   O peration     | Version:  v1812                                 |
|   \\  /    A nd           | Web:      www.OpenFOAM.com                      |
|    \\/     M anipulation  |                                                 |
\*---------------------------------------------------------------------------*/
FoamFile
{
    version     2.0;
    format      ascii;
    class       surfaceScalarField;
    location    "10000";
    object      phi;
}
// * * * * * * * * * * * * * * * * * * * * * * * * * * * * * * * * * * * * * //

dimensions      [0 3 -1 0 0 0 0];
oriented        oriented;


internalField   nonuniform List<scalar> 
11158
(
-0.0009629854640678292
-1.45695234577049e-09
-0.0009629853717338089
-3.115396101250924e-11
-0.0009629853682362509
4.543779434476962e-11
-0.0009629853683575286
-1.004540540160628e-11
-0.0009629853818194705
-1.315145828011916e-11
-0.0009629853757872276
-4.903225452737023e-11
-0.0009629853795366832
-7.659253961659332e-11
-0.0009629853959770941
-6.517924229689945e-11
-0.0009629854053860797
-5.132979717959417e-11
-0.0009629854153572485
-4.072709908188763e-11
-0.0009629854238518066
-4.21166642527442e-11
-0.0009629854210042004
-5.063282498563684e-11
-0.0009629854050096861
-1.122415232566862e-10
-0.0009629853705267142
-1.524166415836902e-10
-0.0009629853479847736
-1.543947557471133e-10
-0.0009629853404819099
-1.311153454673343e-10
-0.0009629853251768907
-1.047598957995421e-10
-0.0009629853001388
-1.350862359988567e-10
-0.0009629852844401437
-1.10687892541354e-10
-0.0009629852661126938
-1.491689425453893e-10
-0.0009629852636458088
-7.919394100464795e-11
-0.0009629852780162098
-8.493088963067908e-11
-0.0009629852649126104
-2.612107709917791e-11
-0.0009629852718596482
-4.586806765729038e-11
-0.0009629852427924591
-2.811600177356695e-11
-0.0009629852769067937
-6.32479913580421e-11
-0.0009629852703479815
1.475554179207946e-11
-0.0009629852853947245
1.51190035803563e-12
-0.0009629852657061
4.216512004143489e-11
-0.0009629852872497891
3.129095853275006e-11
-0.0009629852666032817
3.848285816168909e-11
-0.0009629852662078193
2.328502008776731e-11
-0.0009629852167109742
3.543442261314832e-12
-0.0009629852467727499
-1.741124856249534e-13
-0.0009629852306566861
1.068671155536786e-11
-0.0009629852544068494
1.075696854967919e-11
-0.0009629852525987316
1.863388884140139e-11
-0.0009629852639230787
2.200993430821322e-11
-0.0009629852598172068
-7.216447368927635e-12
-0.0009629852546868471
-1.118763216845136e-11
-0.0009629852420084426
-4.182852763373554e-11
-0.0009629852439693067
-2.977535836623598e-11
-0.0009629852326219331
-5.703970907588936e-11
-0.0009629852258752527
-5.333406012303041e-11
-0.0009629852038263657
-7.520482166685532e-11
-0.0009629852062782667
-7.054071876953839e-11
-0.0009629851879521728
-4.508639812429855e-11
-0.0009629852028996353
-3.736635554198394e-11
-0.0009629851944393919
2.321606181451542e-11
-0.0009629852176208679
1.693908679723936e-11
-0.0009629852111604028
7.04367402129186e-11
-0.0009629852409054592
5.932188804808686e-11
-0.0009629852388455053
9.961901950574842e-11
-0.0009629852531379301
8.488119600981584e-11
-0.0009629852458965992
8.587473136316682e-11
-0.0009629852561426012
8.576027619391396e-11
-0.0009629852490910724
7.111747641909152e-11
-0.0009629852371228413
6.821192942159102e-11
-0.0009629852305937078
3.828913585624825e-11
-0.0009629852088200351
4.857062085135435e-11
-0.000962985197806732
1.197191559409275e-11
-0.000962985172219777
1.938377516153628e-11
-0.000962985164396802
-3.695893663079432e-12
-0.0009629851398730852
6.302226070145316e-12
-0.0009629851367828877
8.323144725746625e-12
-0.0009629851249854825
6.531968875724759e-12
-0.0009629851344102131
2.734007475858958e-11
-0.0009629851260005736
2.140202164358398e-11
-0.0009629851453524004
5.887319089890226e-11
-0.0009629851537677628
4.943715163603909e-11
-0.0009629851901938424
8.880366656862131e-11
-0.0009629852018614027
8.358117309253815e-11
-0.0009629852432948636
9.476766498981618e-11
-0.0009629852610567375
9.5829639095762e-11
-0.0009629853134647994
8.327580810736956e-11
-0.0009629853171968745
1.00062671745208e-10
-0.0009629853503569906
3.435506010929631e-11
-0.0009629853499947033
5.734540602665552e-11
-0.0009629853728892934
-2.244044614832638e-11
-0.0009629853428675314
-4.709297706977379e-12
-0.0009629853312897923
-1.007386382456194e-10
-0.0009629852935858431
-7.497237108029513e-11
-0.0009629852907832324
-8.32890156005221e-11
-0.000962985253848025
-4.868142021715759e-11
-0.0009629852408520502
-8.159273283318172e-11
-0.0009629852135826495
-9.044244121875627e-11
-1.053248428923008e-10
-0.00099216052838346
-1.127022160345055e-09
-0.000992160456886071
5.024158460821475e-12
-0.0009921605079176706
1.479501532334505e-10
-0.0009921605140549563
-1.078672412153872e-11
-0.0009921605241448703
-2.841549515495031e-11
-0.0009921605665328707
-4.977566305067103e-11
-0.0009921605597053855
-1.61652807939153e-10
-0.0009921605997622494
-1.01102421671349e-10
-0.0009921605979500096
-1.097097304149498e-10
-0.0009921606094592465
-7.176813601669212e-11
-0.0009921605946889298
-1.034308308480489e-10
-0.000992160571155958
-1.202728461794404e-10
-0.0009921605393128877
-2.405394635874363e-10
-0.0009921604862026293
-3.29945554106139e-10
-0.0009921604552811973
-3.249219792185189e-10
-0.0009921604051998077
-3.080615083376985e-10
-0.0009921603677675646
-2.362631101021897e-10
-0.0009921603221275386
-2.952235040619487e-10
-0.0009921602942458941
-2.391822178746157e-10
-0.0009921602868414943
-2.8539531596462e-10
-0.0009921602766874071
-1.728135110474175e-10
-0.000992160304816637
-1.488360768618902e-10
-0.0009921602890575131
-5.607544455969472e-11
-0.0009921603229561733
-6.02861056383904e-11
-0.0009921603100060963
-4.598588734268605e-11
-0.0009921603439419112
-1.156810208777754e-10
-0.0009921603342511185
2.395965023839363e-11
-0.0009921603482450471
1.003771053806681e-11
-0.0009921603178007885
6.635033055910303e-11
-0.0009921603270165403
5.427955350526115e-11
-0.0009921602956188141
5.815623308377121e-11
-0.000992160291860529
4.363465182013614e-11
-0.0009921602542029794
1.303261586599152e-11
-0.0009921602608743113
-2.551432360748182e-11
-0.0009921602495978669
1.908780200542655e-11
-0.0009921602556057115
6.25477005701243e-12
-0.0009921602461018348
2.581561798188302e-11
-0.000992160245398246
3.108406877188754e-11
-0.0009921602346538978
-2.286921855319425e-11
-0.0009921602221129933
-3.416386547769776e-11
-0.0009921602072934851
-8.801407482135196e-11
-0.0009921601975814941
-7.568631768192466e-11
-0.0009921601936314533
-1.089108085139467e-10
-0.0009921601841331124
-1.120280465787338e-10
-0.0009921601836270176
-1.320671225016819e-10
-0.0009921601862788749
-1.404786425665328e-10
-0.0009921601959663716
-6.583971494692521e-11
-0.0009921602158603682
-6.266717085755437e-11
-0.0009921602265984223
6.402555116679265e-11
-0.0009921602668054581
6.181039431910406e-11
-0.0009921602652628529
1.446846579669583e-10
-0.0009921603080318819
1.420323297461476e-10
-0.0009921602937029139
1.863406488624659e-10
-0.0009921603194194648
1.829351602313586e-10
-0.0009921603004666593
1.541176395495671e-10
-0.0009921603017980422
1.576246382963365e-10
-0.0009921602812016728
1.21929043613095e-10
-0.000992160253225444
1.063046392766383e-10
-0.0009921602359236024
5.626746899561904e-11
-0.0009921601904828532
5.605764784039888e-11
-0.0009921601768384852
1.288311499761474e-11
-0.0009921601299835384
1.485910166467969e-12
-0.0009921601260766333
-9.623045065512913e-12
-0.0009921600899127207
-1.126125849681024e-11
-0.0009921600967242512
2.116983188417054e-11
-0.0009921600874010907
8.093002551318866e-12
-0.0009921601066097574
5.937913701953512e-11
-0.0009921601171981572
5.323464918244983e-11
-0.0009921601464559155
1.203719227696159e-10
-0.0009921601829736659
1.20486285584991e-10
-0.0009921602217779423
1.755252626388075e-10
-0.0009921602694917295
1.962813581278866e-10
-0.000992160314111683
1.926965158935746e-10
-0.0009921603605844865
2.177008799913149e-10
-0.0009921604085505022
1.714653188492163e-10
-0.000992160431870384
2.16633685637795e-10
-0.0009921604705107391
8.621807632843104e-11
-0.0009921604636009031
1.087354928003801e-10
-0.0009921604837889839
-3.323920859412237e-11
-0.0009921604336277027
-3.317470774373045e-11
-0.0009921604240014903
-1.927590897042721e-10
-0.0009921603521093306
-1.894824303212461e-10
-0.000992160326527548
-1.893530565259991e-10
-0.000992160255273206
-1.365482652436466e-10
-0.0009921602338258052
-1.679411133215854e-10
-0.0009921602660430335
-1.281434628363751e-10
-2.24462263532584e-10
-0.001020238115901192
-1.004925915848794e-09
-0.001020238023986333
-7.459222746765093e-11
-0.001020238097863896
2.573894674165764e-10
-0.001020238090607482
-2.646421253659054e-11
-0.001020238114567037
-2.636348781525793e-11
-0.001020238163782082
-3.401710214874188e-11
-0.001020238156637089
-2.316654484477257e-10
-0.001020238201732263
-1.215846769881262e-10
-0.001020238192052455
-1.69732032907689e-10
-0.001020238192498736
-1.148372598073828e-10
-0.001020238163374901
-1.748700366424969e-10
-0.001020238120195022
-2.013670183280316e-10
-0.001020238074353638
-3.608232356138418e-10
-0.001020238001910951
-4.891754050884753e-10
-0.001020237963375115
-4.6035889290657e-10
-0.001020237896262014
-4.684535525435705e-10
-0.001020237847545507
-3.522956267725667e-10
-0.001020237794049939
-4.318171756886842e-10
-0.001020237761107877
-3.437201019494564e-10
-0.001020237760186475
-3.864585676081474e-10
-0.001020237747386924
-2.420648231661406e-10
-0.001020237790771433
-1.831144422928951e-10
-0.001020237771642931
-8.473524586536006e-11
-0.001020237817690996
-5.65408358296719e-11
-0.001020237805502563
-5.606677973775253e-11
-0.001020237843337595
-1.558189812466988e-10
-0.001020237829867837
2.704651504550013e-11
-0.001020237837666412
5.1514571756012e-12
-0.001020237799453367
7.876382732725104e-11
-0.001020237801749064
6.377806980719139e-11
-0.001020237762414154
6.843529997936701e-11
-0.001020237751233721
5.121081322908893e-11
-0.001020237717491952
2.263362228983898e-11
-0.001020237718741331
-4.583044737534399e-11
-0.001020237709632353
3.332950586004471e-11
-0.001020237709035551
-4.984461499897331e-12
-0.001020237697872262
3.180576844577832e-11
-0.001020237692200866
3.38919439288435e-11
-0.001020237678183984
-3.831526691213218e-11
-0.00102023766164211
-5.388544553811114e-11
-0.001020237647133073
-1.240146103137106e-10
-0.001020237635873463
-1.100300206431611e-10
-0.001020237637056099
-1.423868062370902e-10
-0.001020237629745479
-1.549357893635594e-10
-0.001020237640409886
-1.617890796930392e-10
-0.001020237648834481
-1.887086309172733e-10
-0.001020237672561964
-6.268165591972833e-11
-0.001020237698490741
-8.00151045363215e-11
-0.001020237716165793
1.048998924767177e-10
-0.001020237764144117
1.009650904611234e-10
-0.001020237759013785
1.981927418347366e-10
-0.001020237807229669
2.09672192329835e-10
-0.001020237782034176
2.39540374170062e-10
-0.001020237810117533
2.659646099087623e-10
-0.001020237783491883
2.028360368479984e-10
-0.001020237781030804
2.166189844209277e-10
-0.001020237755094843
1.603855659354176e-10
-0.001020237720397677
1.403390078918231e-10
-0.001020237704470289
8.072536600407908e-11
-0.001020237651674922
6.554644249224784e-11
-0.001020237644825573
2.883243266132737e-11
-0.001020237594933345
-6.709372392070047e-12
-0.001020237601751438
3.834691599421557e-12
-0.001020237568110198
-1.578704048957938e-11
-0.00102023758796587
5.244063788452287e-11
-0.001020237588847443
2.656181774404141e-11
-0.001020237620279988
1.072397863937223e-10
-0.00102023764716152
1.078892072796902e-10
-0.00102023768780329
1.955798427352596e-10
-0.001020237743065523
2.115694820336341e-10
-0.001020237789105351
2.651024340503886e-10
-0.001020237853319962
3.200562952987929e-10
-0.001020237901970939
2.838805468558793e-10
-0.001020237955751508
3.328781011903942e-10
-0.001020238002344258
2.38916215954606e-10
-0.001020238021459511
3.104969258705789e-10
-0.00102023805882315
1.205530896743921e-10
-0.001020238036118693
1.285449024984526e-10
-0.001020238053064473
-5.658977301305141e-11
-0.001020237985894187
-8.075303389578164e-11
-0.001020237979004698
-2.6986746014611e-10
-0.001020237900943661
-2.945334930305999e-10
-0.001020237888202093
-2.63612125209385e-10
-0.001020237835222843
-1.973937843953754e-10
-0.001020237832202619
-2.254126857884731e-10
-0.001020237888205568
-1.165450130192057e-10
-2.493751206267192e-10
-0.001047540626344259
-8.214093226989687e-10
-0.001047540592742087
-2.936662351963098e-11
-0.00104754067962919
3.956498986330742e-10
-0.001047540669906939
-3.994874004295391e-11
-0.001047540706155984
-1.637501504495147e-11
-0.001047540750851964
-3.370280491374593e-11
-0.001047540741892681
-3.187542841249642e-10
-0.001047540776614421
-1.629195849017552e-10
-0.001047540764013902
-2.400885951971771e-10
-0.001047540755165165
-1.663093526332105e-10
-0.001047540725476574
-2.519028017351334e-10
-0.001047540674445608
-2.997664265604596e-10
-0.00104754062674559
-5.057185814635639e-10
-0.001047540540364452
-7.013667836249613e-10
-0.00104754048843861
-6.540879427277492e-10
-0.001047540407338354
-6.780646907551496e-10
-0.001047540353017649
-5.028647293548622e-10
-0.001047540295378968
-6.054173583597802e-10
-0.001047540254941499
-4.872725911517901e-10
-0.001047540252649827
-5.181110298076838e-10
-0.001047540229484992
-3.522248907883438e-10
-0.001047540276915192
-2.248428661205106e-10
-0.001047540257294998
-1.182433932242523e-10
-0.001047540310630377
-5.042116864511818e-11
-0.001047540292558716
-8.013060627382395e-11
-0.001047540324083235
-2.066797257832648e-10
-0.001047540306914764
2.876839186041192e-11
-0.001047540311451212
7.029446371337924e-12
-0.001047540271682736
9.37481412445227e-11
-0.001047540270545459
7.876686568358853e-11
-0.001047540234793237
8.428229447957968e-11
-0.001047540224041008
6.537854617414031e-11
-0.001047540189727087
3.566631121296345e-11
-0.001047540182996852
-8.465884633148355e-11
-0.001047540176456813
4.518548836009356e-11
-0.001047540171823205
-1.941535564172635e-11
-0.001047540162650535
3.870502276573385e-11
-0.001047540157038344
3.775325854701766e-11
-0.001047540144952094
-5.551386001727997e-11
-0.001047540129305111
-8.126888790821354e-11
-0.001047540114837506
-1.705537939445601e-10
-0.001047540103452196
-1.595982159156692e-10
-0.00104754010856384
-1.870273232537528e-10
-0.001047540103439317
-2.115585438530606e-10
-0.001047540116403763
-2.075223374650719e-10
-0.00104754012273378
-2.56296600208651e-10
-0.001047540147021076
-7.210554496601963e-11
-0.001047540170336326
-1.017608466998262e-10
-0.001047540188104307
1.498537742227942e-10
-0.001047540238753002
1.581507589812935e-10
-0.001047540232060314
2.663517156794824e-10
-0.001047540285081108
3.055823405626268e-10
-0.001047540260415022
3.167582056731228e-10
-0.001047540295795269
3.759347863394225e-10
-0.001047540270469554
2.659247391901661e-10
-0.00104754027142667
2.887829305369525e-10
-0.001047540250641727
2.117352675561357e-10
-0.001047540218450128
1.732823851534913e-10
-0.001047540208675827
1.064629268712622e-10
-0.001047540157090147
6.48799557290108e-11
-0.001047540158652583
4.447527446478269e-11
-0.001047540111531022
-2.728408903543309e-11
-0.001047540126855906
1.605804269036365e-11
-0.001047540098778254
-2.751438408925813e-11
-0.001047540127656575
8.562471929808693e-11
-0.00104754013701016
4.579393769262291e-11
-0.001047540175667961
1.583085575796678e-10
-0.001047540211306488
1.653058588789218e-10
-0.001047540254539509
2.715023097961923e-10
-0.001047540316192218
3.095458587258671e-10
-0.001047540362726977
3.614165302595374e-10
-0.001047540431231118
4.552632128003737e-10
-0.001047540478893399
3.873068037466038e-10
-0.001047540532941131
4.630641161809047e-10
-0.001047540580908686
3.299330832526863e-10
-0.001047540600680917
4.226701327039626e-10
-0.001047540643293334
1.789540014686476e-10
-0.001047540619746748
1.616346752930484e-10
-0.001047540646615781
-5.81265635209189e-11
-0.001047540583493233
-1.238603521215352e-10
-0.001047540585742885
-3.475416462401373e-10
-0.001047540511968035
-4.117634137296689e-10
-0.001047540508289126
-3.474501702039056e-10
-0.001047540469162916
-2.550840311064179e-10
-0.001047540472122978
-2.888335415177268e-10
-0.001047540520752173
-1.376441710597865e-10
-3.943106535165202e-10
-0.001075534119468705
-7.803480590002898e-10
-0.001075534065035365
-1.053712463976523e-10
-0.001075534125605033
4.847042133907079e-10
-0.001075534123544264
-5.088609088953017e-11
-0.001075534152266665
-8.554524342634352e-12
-0.001075534192044034
-2.503086539730081e-11
-0.001075534187437075
-3.804813498277789e-10
-0.001075534217084685
-1.949921368882114e-10
-0.001075534204584734
-3.015765200593121e-10
-0.001075534182756778
-2.323991416971201e-10
-0.001075534148311424
-3.27662236465179e-10
-0.001075534080135746
-4.041332389652873e-10
-0.00107553402454706
-6.276269192090655e-10
-0.001075533928621151
-8.706362238205296e-10
-0.001075533878257954
-7.862588462674804e-10
-0.001075533795962672
-8.415149272128948e-10
-0.001075533738252015
-6.196939950065077e-10
-0.00107553367969926
-7.357373584638501e-10
-0.001075533638607016
-5.903392188434486e-10
-0.001075533641084899
-6.047338311532483e-10
-0.001075533619646631
-4.220043195763815e-10
-0.001075533672935657
-2.4247482447028e-10
-0.001075533649071967
-1.506613004985951e-10
-0.001075533700851651
-3.917865664943043e-11
-0.001075533684176655
-9.341949347272294e-11
-0.001075533719262763
-2.452234916411444e-10
-0.001075533699963525
2.333115880374038e-11
-0.001075533699875426
-8.706964163891654e-12
-0.001075533658822435
1.008502588814518e-10
-0.0010755336531862
7.77921336493399e-11
-0.001075533613028355
9.298313424035344e-11
-0.001075533595397356
6.596304695116284e-11
-0.001075533566747094
5.096596285354252e-11
-0.001075533561415374
-1.080721588897723e-10
-0.001075533557189287
6.436764734147006e-11
-0.001075533552037422
-3.550077041967391e-11
-0.001075533543921475
4.752332742774538e-11
-0.001075533537208714
3.883488622184706e-11
-0.00107553352380357
-6.847096590797967e-11
-0.001075533507958455
-9.71814645651244e-11
-0.001075533495368841
-1.997608842395802e-10
-0.001075533485257606
-1.882162853087652e-10
-0.001075533491147412
-2.107856591545065e-10
-0.00107553348675304
-2.468289091394723e-10
-0.001075533503790147
-2.248613388656602e-10
-0.001075533513886989
-2.968512358394426e-10
-0.001075533544210064
-5.995900288844112e-11
-0.001075533570238892
-1.182476456286202e-10
-0.001075533590172113
1.881892964236609e-10
-0.001075533641043467
1.951995088981247e-10
-0.001075533633316361
3.091484928445541e-10
-0.001075533686112045
3.707476233104704e-10
-0.001075533656825272
3.564966077263719e-10
-0.001075533691250606
4.591810125240799e-10
-0.001075533665920933
3.119889567259833e-10
-0.001075533668167389
3.493999958987134e-10
-0.001075533647147959
2.526292925015647e-10
-0.001075533617494783
2.128800312536167e-10
-0.001075533613091576
1.445148063325674e-10
-0.001075533565873536
8.26994342730519e-11
-0.001075533575147539
7.937555278957377e-11
-0.001075533534806665
-2.206623635369995e-11
-0.001075533558459828
4.887952276915647e-11
-0.001075533537980673
-1.548241982712327e-11
-0.001075533574702205
1.350809657437585e-10
-0.001075533591691787
8.291472184996495e-11
-0.001075533635837262
2.199403690001282e-10
-0.001075533679617199
2.405051517890386e-10
-0.001075533728417049
3.564210595729084e-10
-0.001075533797714637
4.168990794274848e-10
-0.001075533847787215
4.543410012711316e-10
-0.001075533920616923
5.870528727824098e-10
-0.001075533971008757
4.773916825233123e-10
-0.001075534025697016
5.746505956453945e-10
-0.001075534072494989
3.913200119306174e-10
-0.001075534087854372
5.053198499538166e-10
-0.001075534130128071
2.134607440587486e-10
-0.001075534100830947
1.677433889768493e-10
-0.001075534126061489
-7.549458122651556e-11
-0.00107553406044779
-1.721191401885997e-10
-0.001075534067940627
-4.036837639944186e-10
-0.001075534003874554
-4.972400563920627e-10
-0.001075534009643325
-3.951551255057507e-10
-0.001075533976549125
-2.937176729442324e-10
-0.001075533965494017
-3.500313733572505e-10
-0.001075533997300182
-1.410509047867158e-10
-4.358988704552232e-10
-0.001107640277880086
-6.479122243702504e-10
-0.001107640258505725
-7.395251572048773e-11
-0.001107640324030309
6.002143517530817e-10
-0.001107640330182456
-4.588055580498456e-11
-0.001107640357120317
-8.801106551711985e-12
-0.001107640395316011
-3.300984141178623e-11
-0.001107640386252457
-4.666990809140866e-10
-0.001107640406060904
-2.508438598492765e-10
-0.00110764039379965
-3.727146095590001e-10
-0.001107640367896687
-3.011723625660401e-10
-0.001107640339111039
-4.046227014240618e-10
-0.001107640270288077
-5.21872127773418e-10
-0.001107640219521915
-7.761657334708728e-10
-0.001107640117165648
-1.098699694325612e-09
-0.001107640055938864
-9.900564002326407e-10
-0.001107639966063265
-1.059447135748795e-09
-0.001107639907155428
-7.763598803192853e-10
-0.001107639847325864
-9.105937543334661e-10
-0.001107639801359891
-7.405844757241455e-10
-0.001107639799115234
-7.362068446104373e-10
-0.00110763976748142
-5.436573456324072e-10
-0.001107639817458337
-2.770805163880996e-10
-0.001107639795663726
-1.861373354399669e-10
-0.001107639849402885
-3.166022853883752e-11
-0.001107639827509693
-1.222124116016403e-10
-0.001107639855621078
-2.950450337701441e-10
-0.001107639834559681
2.018406437582829e-11
-0.001107639834814589
-9.465549526807295e-12
-0.00110763979569939
1.160489256752887e-10
-0.001107639789621845
8.930010521479124e-11
-0.00110763975673678
1.120443987163035e-10
-0.001107639742957389
7.845089473452232e-11
-0.001107639712237967
6.952172684504741e-11
-0.001107639701552259
-1.512911575643356e-10
-0.001107639698679914
7.816578162498561e-11
-0.001107639692583577
-5.122491509005369e-11
-0.001107639686870257
5.720239756154883e-11
-0.001107639682363054
4.350029527001274e-11
-0.001107639672245292
-8.324859190909655e-11
-0.001107639659090595
-1.221670065001717e-10
-0.001107639646282801
-2.4361999601405e-10
-0.00110763963670066
-2.368722071744229e-10
-0.001107639643780227
-2.54096225196496e-10
-0.00110763964096013
-3.024315312258657e-10
-0.00110763965549648
-2.69896449777132e-10
-0.001107639662034162
-3.644213178086386e-10
-0.001107639687218747
-7.126343983092358e-11
-0.001107639709210732
-1.411188222375214e-10
-0.001107639727390152
2.297103792978321e-10
-0.001107639778568949
2.534927629628569e-10
-0.001107639772990234
3.758762914305605e-10
-0.00110763982893086
4.711590950908986e-10
-0.001107639807305698
4.356839952197012e-10
-0.001107639849148627
5.764860364571295e-10
-0.001107639830114716
3.817164074192404e-10
-0.00110763983850145
4.291936307285228e-10
-0.001107639825332233
3.114727455696955e-10
-0.001107639802386364
2.541555906485705e-10
-0.00110763980349976
1.81335085114739e-10
-0.001107639761557793
9.0228546682671e-11
-0.001107639775628756
1.07080643168531e-10
-0.001107639739493246
-3.352140956833544e-11
-0.00110763976576384
7.080732462863447e-11
-0.001107639748815899
-1.792798591102185e-11
-0.001107639787007878
1.755339001185453e-10
-0.001107639806278869
1.113442507675643e-10
-0.001107639850995422
2.765866152395916e-10
-0.001107639895160048
3.079901565979742e-10
-0.001107639941259436
4.362434071401174e-10
-0.001107640008310964
5.232000037892195e-10
-0.001107640056978289
5.550753520733361e-10
-0.001107640127790327
7.270192453670544e-10
-0.001107640177915812
5.858241344612234e-10
-0.001107640231678021
7.051763790742902e-10
-0.001107640282977355
4.875154353205965e-10
-0.00110764030366967
6.163606818678131e-10
-0.001107640353357754
2.806987334768945e-10
-0.001107640332272994
2.001304695946725e-10
-0.001107640368133227
-6.612588024195463e-11
-0.001107640314149403
-2.087621678834858e-10
-0.001107640325240378
-4.690363425682041e-10
-0.001107640262282571
-6.038485403449017e-10
-0.001107640260045427
-4.759660434726457e-10
-0.001107640221113732
-3.533759427025845e-10
-0.001107640202052366
-4.367623082810367e-10
-0.001107640221140613
-1.909437503337342e-10
-5.756697148411694e-10
-0.001150810044732112
-6.526446400819499e-10
-0.001150809987026569
-1.748620090866379e-10
-0.001150810031100778
6.621258570573674e-10
-0.001150810039810532
-4.661167379544256e-11
-0.001150810055396891
-1.307956342396789e-11
-0.001150810091721621
-2.475802803877647e-11
-0.001150810087523835
-5.205105332796591e-10
-0.001150810109167054
-2.857703511848377e-10
-0.001150810096726667
-4.322041800370521e-10
-0.001150810062703672
-3.794355664122166e-10
-0.001150810028209569
-4.79226583240544e-10
-0.001150809945412868
-6.383890347575672e-10
-0.001150809887720437
-8.896538261473056e-10
-0.001150809781431622
-1.263673927231277e-09
-0.001150809726690683
-1.105901800061885e-09
-0.001150809642651364
-1.211688970548147e-09
-0.001150809582746269
-8.873258767774347e-10
-0.001150809523762798
-1.029658378778642e-09
-0.00115080948196925
-8.346117278905277e-10
-0.001150809484776232
-8.085286699524771e-10
-0.001150809459904121
-6.066026519301746e-10
-0.001150809512658489
-2.864222922144616e-10
-0.001150809487390365
-2.20257857602059e-10
-0.001150809536326139
-2.028206205058691e-11
-0.001150809518028234
-1.383163282281841e-10
-0.001150809553045405
-3.26445920154358e-10
-0.001150809530307395
6.361599914484476e-12
-0.001150809527532873
-2.905112878783346e-11
-0.001150809487124044
1.185706632341009e-10
-0.001150809477646141
8.331766537933789e-11
-0.001150809438474177
1.187159024339832e-10
-0.001150809417544001
7.606514878703254e-11
-0.001150809392648633
8.627881183001211e-11
-0.001150809386871537
-1.695065993827152e-10
-0.001150809384556239
9.751845782997616e-11
-0.00115080937987052
-6.597083266860203e-11
-0.001150809373985403
6.701356629335675e-11
-0.001150809368106828
4.458760744629882e-11
-0.001150809356065359
-9.30845644190767e-11
-0.001150809342590267
-1.330733814124166e-10
-0.001150809331988201
-2.659536731258822e-10
-0.001150809324275227
-2.585433168319397e-10
-0.001150809330605764
-2.720047337774353e-10
-0.001150809329156419
-3.297553331664507e-10
-0.001150809347516274
-2.798479079507228e-10
-0.001150809360553255
-3.947090073972202e-10
-0.001150809391821158
-5.612706507187446e-11
-0.001150809419155412
-1.533218417213209e-10
-0.001150809439681875
2.62952749399583e-10
-0.001150809490095481
2.87486881429124e-10
-0.001150809485232608
4.119950615522413e-10
-0.001150809538396488
5.315452528247794e-10
-0.001150809513117528
4.685067456181399e-10
-0.001150809550587513
6.570668745701307e-10
-0.001150809531365628
4.285821028766503e-10
-0.001150809540035589
4.926404570886521e-10
-0.001150809524752599
3.548123784199098e-10
-0.001150809504110238
3.014471823896026e-10
-0.001150809507522328
2.291826425988662e-10
-0.001150809470208711
1.183323002757513e-10
-0.001150809487781522
1.53512472155782e-10
-0.001150809457557287
-1.638202867984352e-11
-0.001150809487822826
1.135588503281314e-10
-0.001150809475923562
4.73597492489912e-12
-0.001150809517637251
2.318376314349716e-10
-0.001150809540834584
1.56523850917771e-10
-0.00115080958804674
3.42238410007414e-10
-0.001150809636359776
3.903710387844013e-10
-0.001150809687490469
5.243217991964839e-10
-0.001150809759196696
6.341883075456712e-10
-0.001150809812151313
6.495215716201685e-10
-0.001150809885145461
8.566843304182299e-10
-0.001150809939329333
6.769531169473947e-10
-0.00115080999361185
8.103444117788808e-10
-0.00115081004388574
5.479382797540313e-10
-0.001150810059702598
6.899529352895336e-10
-0.001150810106403002
3.175953953036663e-10
-0.001150810080135633
2.006639564944778e-10
-0.001150810108250166
-7.986088866003036e-11
-0.001150810049089054
-2.549464160711446e-10
-0.001150810058185008
-5.148285702828406e-10
-0.001150810000053725
-6.792349420446021e-10
-0.001150809998804859
-5.214714866692771e-10
-0.00115080995873742
-3.981293679875946e-10
-0.001150809929954454
-5.095055402488844e-10
-0.001150809945070094
-2.024875698298404e-10
-5.959174647709409e-10
-0.001217377261447087
-5.54454035253249e-10
-0.00121737723662118
-1.745793748695721e-10
-0.001217377291047177
7.627227021333418e-10
-0.001217377303367095
-3.45871850194867e-11
-0.001217377322516753
-2.169321743388525e-11
-0.001217377357619456
-3.700005339441396e-11
-0.001217377348998623
-6.03147205296974e-10
-0.001217377364469061
-3.4376159127919e-10
-0.001217377352104117
-5.035970118145745e-10
-0.001217377320704407
-4.540524324066938e-10
-0.001217377292269706
-5.563474857012571e-10
-0.00121737721653392
-7.642798876735881e-10
-0.001217377163969441
-1.039183836594536e-09
-0.001217377055380814
-1.493468823455695e-09
-0.001217376987397911
-1.31189105389591e-09
-0.001217376892598688
-1.428541706991623e-09
-0.001217376834856388
-1.040845399117556e-09
-0.001217376774571169
-1.198437014598984e-09
-0.001217376731705262
-9.787425242971188e-10
-0.001217376730451276
-9.350614784494372e-10
-0.001217376696046737
-7.313452113446389e-10
-0.001217376740841257
-3.200987715561099e-10
-0.001217376718765867
-2.557973535279073e-10
-0.001217376768709749
-1.594379183758686e-11
-0.001217376743556605
-1.70364445048927e-10
-0.001217376772599668
-3.710001477642337e-10
-0.001217376747115226
-3.411921091199049e-12
-0.001217376746250071
-3.278640115597626e-11
-0.001217376705832693
1.307894400761603e-10
-0.001217376697902956
9.137300053385319e-11
-0.001217376665078506
1.377114966288518e-10
-0.001217376649612195
8.710941663735163e-11
-0.001217376619892713
1.091917483348179e-10
-0.001217376609290371
-2.127725417282215e-10
-0.001217376606504775
1.103215978844772e-10
-0.00121737660149804
-8.153844060393873e-11
-0.001217376596940686
7.754519582056153e-11
-0.001217376593189327
4.94034593993523e-11
-0.001217376584805452
-1.04496616570239e-10
-0.001217376574139752
-1.535065820853728e-10
-0.001217376563460991
-3.036356966157742e-10
-0.001217376557096634
-3.019193126970738e-10
-0.001217376564708242
-3.121209251910199e-10
-0.001217376565766692
-3.795896355713954e-10
-0.001217376581600832
-3.203848409769976e-10
-0.001217376592268365
-4.548922419077238e-10
-0.001217376617414273