/*--------------------------------*- C++ -*----------------------------------*\
| =========                 |                                                 |
| \\      /  F ield         | OpenFOAM: The Open Source CFD Toolbox           |
|  \\    /   O peration     | Version:  v1812                                 |
|   \\  /    A nd           | Web:      www.OpenFOAM.com                      |
|    \\/     M anipulation  |                                                 |
\*---------------------------------------------------------------------------*/
FoamFile
{
    version     2.0;
    format      ascii;
    class       volVectorField;
    location    "10000";
    object      U;
}
// * * * * * * * * * * * * * * * * * * * * * * * * * * * * * * * * * * * * * //

dimensions      [0 1 -1 0 0 0 0];


internalField   nonuniform List<vector> 
5655
(
(-1.016354372613613 -2.067980617370843e-08 -6.089414203942615e-06)
(-1.016354288601148 1.902608356375021e-08 -6.089452692182688e-06)
(-1.01635420515296 -1.209364741895838e-09 -6.089339002692631e-06)
(-1.016354351816861 -4.109282754602284e-10 -6.089432461088534e-06)
(-1.016354204402723 -5.428282498492072e-11 -6.08935382002504e-06)
(-1.016354342720247 -2.79122916525963e-09 -6.089421925313098e-06)
(-1.016354253119308 -2.974554833367043e-09 -6.089362095817278e-06)
(-1.016354345915779 -2.800287443718796e-09 -6.089414632781096e-06)
(-1.016354296968151 -1.562550329854362e-09 -6.089365972889551e-06)
(-1.016354349553449 -1.148711024968622e-09 -6.089410221829764e-06)
(-1.016354327829541 -8.39782079584129e-10 -6.089367540603702e-06)
(-1.016354337419862 -1.419639449002533e-09 -6.089406674972135e-06)
(-1.016354309272811 -4.216972938173762e-09 -6.089367940284867e-06)
(-1.016354304885191 -6.257713884919709e-09 -6.089402220818929e-06)
(-1.016354278752606 -6.584425900331712e-09 -6.089366381974803e-06)
(-1.016354301911931 -4.880388375465021e-09 -6.089397773757026e-06)
(-1.016354213207725 -4.090969340645234e-09 -6.089364947392623e-06)
(-1.016354279227499 -5.599174190159931e-09 -6.089394615739855e-06)
(-1.016354165856569 -4.872833662038631e-09 -6.089364004588263e-06)
(-1.016354250101047 -6.41800881724054e-09 -6.089392198768645e-06)
(-1.016354169380173 -3.531601738457764e-09 -6.089363631561543e-06)
(-1.016354248912891 -3.809206033517304e-09 -6.089390463563291e-06)
(-1.016354173138834 -1.091230693719921e-09 -6.08936510649226e-06)
(-1.016354216223192 -2.370007473553921e-09 -6.089389553112028e-06)
(-1.016354184335454 -1.627554911055558e-09 -6.089367128440871e-06)
(-1.01635423145444 -2.438285703088808e-09 -6.089388229645027e-06)
(-1.016354206315458 9.288792552075716e-10 -6.08936711345403e-06)
(-1.016354218493739 4.085093434786832e-10 -6.089386637378549e-06)
(-1.016354226711486 2.045540542657281e-09 -6.089367516605138e-06)
(-1.016354196520395 1.607106095464895e-09 -6.089384620125263e-06)
(-1.016354233738167 1.770174436618045e-09 -6.089368143625317e-06)
(-1.016354162196117 6.476158682565767e-10 -6.089382590228101e-06)
(-1.016354232559263 -4.89186826643951e-10 -6.089368552298073e-06)
(-1.01635414375794 2.062432348187654e-10 -6.089380873626723e-06)
(-1.016354209461428 3.438645413808659e-10 -6.089367693775022e-06)
(-1.016354153893815 5.773437624004078e-10 -6.089380095583759e-06)
(-1.016354207517799 7.942354717589884e-10 -6.089366855246666e-06)
(-1.016354153109851 7.495309641900254e-10 -6.089379378866277e-06)
(-1.016354205600559 -4.589968510450448e-10 -6.089366116089558e-06)
(-1.016354145606891 -9.101059700929422e-10 -6.0893783294421e-06)
(-1.016354198978307 -2.170057198808816e-09 -6.089364534016359e-06)
(-1.016354136214522 -1.532857979494184e-09 -6.089376751093279e-06)
(-1.0163541777375 -2.764674003061201e-09 -6.089362690567639e-06)
(-1.016354130795671 -2.663900280907554e-09 -6.089375634497563e-06)
(-1.016354145558403 -3.925120620259451e-09 -6.089360933565505e-06)
(-1.016354136970242 -3.40845737972262e-09 -6.089374227796436e-06)
(-1.016354116031221 -2.610269539610492e-09 -6.089359099720938e-06)
(-1.016354157468677 -1.768947009781632e-09 -6.089373217346681e-06)
(-1.016354105763396 6.642127409099788e-10 -6.08935811597955e-06)
(-1.016354177204349 6.217686780051149e-10 -6.089372578650116e-06)
(-1.016354121380972 3.094343582370815e-09 -6.089358979777144e-06)
(-1.016354191641288 2.654271909189272e-09 -6.089371578978697e-06)
(-1.016354152911691 4.740122805235707e-09 -6.089360415355929e-06)
(-1.016354172682065 3.554286546284651e-09 -6.089370326874929e-06)
(-1.016354180252089 3.984915317423995e-09 -6.089361876590539e-06)
(-1.016354157967642 3.802602882760362e-09 -6.08936920930105e-06)
(-1.016354186964246 3.415497757698849e-09 -6.089361627520936e-06)
(-1.016354125099907 2.869421953858795e-09 -6.089367887418136e-06)
(-1.016354169583888 1.719120494315958e-09 -6.089360123825217e-06)
(-1.016354095347574 2.038941013158561e-09 -6.089366190416896e-06)
(-1.016354130186001 4.851834560951892e-10 -6.089357650978183e-06)
(-1.016354071915735 8.298121379830578e-10 -6.089364323503448e-06)
(-1.016354080296572 -2.267982840961883e-10 -6.089354998860074e-06)
(-1.016354058282204 3.379040919244152e-10 -6.089362524173566e-06)
(-1.016354036981398 2.370414400362724e-10 -6.089353002154061e-06)
(-1.016354060254626 1.802384248379201e-10 -6.08936159655697e-06)
(-1.016354015597039 7.419748100380745e-10 -6.089352153142504e-06)
(-1.016354066541143 2.205401807738787e-10 -6.089360981258092e-06)
(-1.0163540236232 1.632959090277992e-09 -6.089351957677783e-06)
(-1.016354088861227 1.022761076031318e-09 -6.089360461879418e-06)
(-1.016354066941004 2.782335511300773e-09 -6.089351901419863e-06)
(-1.01635411192331 2.170215474057451e-09 -6.089359362062034e-06)
(-1.016354137320291 3.123126127407383e-09 -6.089351753633239e-06)
(-1.016354146728108 3.178725538349133e-09 -6.089357634591253e-06)
(-1.016354218463947 3.352024007688992e-09 -6.089350736832319e-06)
(-1.016354173260085 3.853413907425243e-09 -6.089355534043074e-06)
(-1.016354285267639 1.709059468192719e-09 -6.089349544533273e-06)
(-1.016354207586859 3.095186877600132e-09 -6.089353574209268e-06)
(-1.016354309025435 -6.035350676962275e-11 -6.089346913798921e-06)
(-1.01635421579233 7.280055641569243e-10 -6.08935084291138e-06)
(-1.016354272564601 -3.613790567767098e-09 -6.089342728581076e-06)
(-1.01635421420261 -2.109644728806155e-09 -6.089346057291439e-06)
(-1.01635421108419 -2.680168098294744e-09 -6.089335774084435e-06)
(-1.016354189021434 -7.959477702899527e-10 -6.089340216372454e-06)
(-1.01635411884953 -2.776801270581318e-09 -6.089330259826959e-06)
(-1.016354121236018 -8.107002784439348e-09 -6.089317996189934e-06)
(-1.016354167873582 -2.21821238267509e-08 -6.089299478641109e-06)
(-1.047017471224599 -2.103536939348874e-08 -1.814070600545126e-05)
(-1.04701753958732 3.640836076915361e-08 -1.814077028132766e-05)
(-1.047017334372947 2.177689754162385e-09 -1.81405431350332e-05)
(-1.047017696263176 -1.227909356491736e-09 -1.814076912081564e-05)
(-1.047017347696364 -2.082646056322823e-09 -1.814056218377616e-05)
(-1.047017689437232 -5.340849804011951e-09 -1.814074702907138e-05)
(-1.047017482826004 -9.719762459290749e-09 -1.814058181362629e-05)
(-1.047017671341818 -6.555195830204576e-09 -1.814072905905085e-05)
(-1.047017574326479 -5.508534013896876e-09 -1.8140591348901e-05)
(-1.047017655404054 -3.73948040532796e-09 -1.814071816029807e-05)
(-1.047017605975681 -5.039075493160587e-09 -1.814059518374144e-05)
(-1.047017601945527 -6.748052217639351e-09 -1.814070836791468e-05)
(-1.04701754701821 -1.445164766170677e-08 -1.81405958849503e-05)
(-1.047017535655036 -2.034746872665434e-08 -1.814069518131078e-05)
(-1.047017466090097 -1.969645965614988e-08 -1.814059102246796e-05)
(-1.047017503637157 -1.701942554620871e-08 -1.81406825511741e-05)
(-1.047017323478662 -1.321612293335835e-08 -1.814058711439082e-05)
(-1.047017431887342 -1.753808338606436e-08 -1.814067286544228e-05)
(-1.047017231081822 -1.4019432402176e-08 -1.814058386562651e-05)
(-1.047017376028668 -1.698175348393683e-08 -1.814066534914952e-05)
(-1.047017246867164 -9.495021984392702e-09 -1.814058276476585e-05)
(-1.047017357497046 -8.676675298842579e-09 -1.814065992688797e-05)
(-1.047017286611293 -2.617843497242715e-09 -1.814058735087453e-05)
(-1.047017320462739 -4.036891804436978e-09 -1.814065739708745e-05)
(-1.047017355677618 -2.937724717969883e-09 -1.814059354146008e-05)
(-1.047017349787016 -5.396303188376494e-09 -1.81406545542086e-05)
(-1.047017390300085 2.813285802986431e-09 -1.814059409856089e-05)
(-1.047017329980592 1.942204886264448e-09 -1.814065053257961e-05)
(-1.047017411470619 4.710373591103787e-09 -1.814059565145102e-05)
(-1.047017280138552 4.253034105133156e-09 -1.814064475907214e-05)
(-1.047017402554779 3.367519750691525e-09 -1.814059710551555e-05)
(-1.04701722065363 1.505677990129545e-09 -1.814063854311754e-05)
(-1.047017394405077 -1.448545598077927e-09 -1.814059742327169e-05)
(-1.04701720486285 -2.681220518762966e-10 -1.814063416749575e-05)
(-1.047017344399992 9.052591767475927e-10 -1.814059477237514e-05)
(-1.047017213776194 1.16036656436414e-09 -1.814063202924629e-05)
(-1.047017318440256 1.631925931964458e-09 -1.814059233115531e-05)
(-1.047017195970732 1.824723808058424e-09 -1.814062989970069e-05)
(-1.047017297780156 -1.707370977435976e-09 -1.814058987816698e-05)
(-1.047017174182173 -2.880865526576683e-09 -1.814062667726091e-05)
(-1.047017274358984 -6.134521141795021e-09 -1.814058501725257e-05)
(-1.04701715581444 -4.699003261893908e-09 -1.814062196327468e-05)
(-1.047017235000488 -7.059335721312434e-09 -1.814057912895195e-05)
(-1.047017161337174 -7.450722612580091e-09 -1.814061818866814e-05)
(-1.047017201533623 -9.189086915293195e-09 -1.814057394991215e-05)
(-1.047017199446933 -8.809052783606397e-09 -1.814061383063971e-05)
(-1.04701718128927 -4.683794478317844e-09 -1.814056885993014e-05)
(-1.047017263886841 -3.474695817863472e-09 -1.814061075474002e-05)
(-1.047017192207809 3.937693907361064e-09 -1.814056666098561e-05)
(-1.047017314470214 3.979540010229347e-09 -1.814060836068049e-05)
(-1.047017252405468 9.211967632985787e-09 -1.814057004636529e-05)
(-1.047017331943923 8.871440300508342e-09 -1.814060544032366e-05)
(-1.047017319653825 1.172291293503867e-08 -1.814057457487878e-05)
(-1.04701729071352 1.037400476914438e-08 -1.814060196789079e-05)
(-1.047017371933699 8.94826766897487e-09 -1.814057847186107e-05)
(-1.047017251003355 9.084221082931091e-09 -1.814059961783267e-05)
(-1.047017363793854 6.664931158390089e-09 -1.814057738200985e-05)
(-1.047017194140039 5.303081401657442e-09 -1.814059625966384e-05)
(-1.047017310532689 2.154380066604981e-09 -1.814057266947324e-05)
(-1.047017145832043 2.329489940786994e-09 -1.814059159851841e-05)
(-1.047017219381406 -4.922605935759337e-10 -1.814056514682654e-05)
(-1.047017117032139 -8.28098161972799e-10 -1.814058583865818e-05)
(-1.047017123364571 -1.582232285362733e-09 -1.814055721625965e-05)
(-1.047017111103492 -1.436170326461244e-09 -1.81405799565247e-05)
(-1.047017053144884 4.48147373395768e-10 -1.814055109670043e-05)
(-1.047017131976128 -5.914417908388411e-10 -1.814057650981607e-05)
(-1.047017035961653 2.317436633906774e-09 -1.814054873478624e-05)
(-1.047017162510525 1.095774034500333e-09 -1.814057453494709e-05)
(-1.047017077363182 5.546468843188494e-09 -1.814054860502718e-05)
(-1.047017210537273 4.916938654728321e-09 -1.81405733563453e-05)
(-1.047017173409397 8.993153474954206e-09 -1.814054917394556e-05)
(-1.04701725242543 9.417611956232594e-09 -1.814057071483279e-05)
(-1.047017308107336 1.049389676121922e-08 -1.814054910244857e-05)
(-1.047017307415886 1.209046197168343e-08 -1.814056634946116e-05)
(-1.047017438684648 1.040680636728803e-08 -1.814054595821991e-05)
(-1.047017346188769 1.278625907079821e-08 -1.814056030295951e-05)
(-1.047017531633313 5.693882747667482e-09 -1.814054156233963e-05)
(-1.047017401309236 7.849020308243561e-09 -1.81405547514232e-05)
(-1.047017535244789 -1.004290318189412e-09 -1.814053347802932e-05)
(-1.047017414276166 -1.108991320482712e-09 -1.814054688372196e-05)
(-1.047017449205716 -1.136350128919293e-08 -1.814052175574721e-05)
(-1.047017411024906 -1.048916707876138e-08 -1.814053387824278e-05)
(-1.04701731074027 -1.051082345990832e-08 -1.814050366373617e-05)
(-1.047017342825252 -7.371982265478318e-09 -1.814051819896825e-05)
(-1.047017149618448 -9.62619913690037e-09 -1.814048659842029e-05)
(-1.047017268942491 -1.57439478826552e-08 -1.814048490871898e-05)
(-1.047017298743847 -4.31730885811102e-08 -1.814049147949808e-05)
(-1.076205678167647 -3.76251306697122e-08 -3.026988986698822e-05)
(-1.076205620129829 3.737580650947579e-08 -3.026991530503239e-05)
(-1.076205495022017 1.383870297617585e-08 -3.026963230952897e-05)
(-1.076205818770608 -2.342126196141737e-09 -3.026993936876816e-05)
(-1.076205481763846 -2.21739199520281e-09 -3.026964363037411e-05)
(-1.076205841565414 -4.730300678073886e-09 -3.026991553834606e-05)
(-1.076205630321195 -1.594065868771941e-08 -3.026966758757973e-05)
(-1.076205822738098 -8.779446666360562e-09 -3.026989246124637e-05)
(-1.076205732464178 -9.682844846298778e-09 -3.026967953402889e-05)
(-1.076205790448394 -6.19235812257972e-09 -3.026987779945548e-05)
(-1.076205740612285 -9.531445240798114e-09 -3.026968370406083e-05)
(-1.076205707230234 -1.203332667926214e-08 -3.026986312153215e-05)
(-1.076205640366945 -2.355485546231541e-08 -3.026968335820826e-05)
(-1.076205611471658 -3.400157166956376e-08 -3.026984206701436e-05)
(-1.076205517783801 -3.293486931950451e-08 -3.026967509933221e-05)
(-1.07620556308341 -3.057024930518983e-08 -3.026982197965705e-05)
(-1.076205339937817 -2.309470048995998e-08 -3.026966889563012e-05)
(-1.076205467655051 -2.984734432692872e-08 -3.026980583555072e-05)
(-1.076205230569854 -2.387971326657744e-08 -3.02696633986492e-05)
(-1.076205401266413 -2.690771208819275e-08 -3.026979327599333e-05)
(-1.076205259532929 -1.695946346628321e-08 -3.026966178843139e-05)
(-1.076205377098013 -1.307150775597023e-08 -3.026978433458852e-05)
(-1.076205331834147 -4.96845863670886e-09 -3.026966917682801e-05)
(-1.076205333065362 -4.649664933737463e-09 -3.026978036276276e-05)
(-1.07620542665919 -4.542088307888024e-09 -3.026967880644558e-05)
(-1.076205362729842 -8.852283088090013e-09 -3.026977671243545e-05)
(-1.076205470314983 3.657358279162248e-09 -3.026967983309131e-05)
(-1.076205335033627 2.612708778330151e-09 -3.026977054712463e-05)
(-1.076205478559624 6.210063918526312e-09 -3.02696821845757e-05)
(-1.076205268412357 5.942335442301374e-09 -3.026976125917447e-05)
(-1.076205455794568 4.731867724782514e-09 -3.026968402670545e-05)
(-1.076205192005593 2.14662890622993e-09 -3.026975086106701e-05)
(-1.076205432070409 -2.029574207955107e-09 -3.026968393127263e-05)
(-1.076205182891456 -1.764898648323718e-09 -3.026974405532307e-05)
(-1.07620537225885 1.538150803860112e-09 -3.026967974985869e-05)
(-1.076205195597291 6.565560128849333e-10 -3.026974056318804e-05)
(-1.076205333052152 2.029820334757857e-09 -3.02696758300623e-05)
(-1.076205174236337 2.048261063051077e-09 -3.026973695511721e-05)
(-1.076205302213321 -3.059928683161773e-09 -3.026967172966053e-05)
(-1.076205145567732 -5.270229810349921e-09 -3.026973145046683e-05)
(-1.076205270193214 -1.0090911965349e-08 -3.026966371372776e-05)
(-1.076205127608466 -8.370848116099296e-09 -3.026972387848738e-05)
(-1.076205227945205 -1.081378247946212e-08 -3.02696537582287e-05)
(-1.076205143865518 -1.193102336023023e-08 -3.026971760806296e-05)
(-1.076205199187386 -1.34047886994331e-08 -3.026964521772965e-05)
(-1.0762052049132 -1.39554416802427e-08 -3.02697106372368e-05)
(-1.07620519147425 -6.114832970453265e-09 -3.026963717429083e-05)
(-1.076205298337686 -5.222421916283757e-09 -3.02697058548483e-05)
(-1.076205215573137 6.938036760621489e-09 -3.026963402112141e-05)
(-1.076205363168067 7.633757203417701e-09 -3.026970172053303e-05)
(-1.076205292599446 1.445202781670012e-08 -3.026963992049607e-05)
(-1.076205372595763 1.51984050446029e-08 -3.026969677505793e-05)
(-1.076205371934839 1.798425293281112e-08 -3.026964723633254e-05)
(-1.076205308435292 1.760683410571902e-08 -3.026969096478125e-05)
(-1.076205429333888 1.382620957249357e-08 -3.026965297418814e-05)
(-1.076205252307281 1.413333314972692e-08 -3.026968746030207e-05)
(-1.076205413622435 1.058391968219855e-08 -3.026965072322361e-05)
(-1.076205184263084 7.676711116445312e-09 -3.026968196653197e-05)
(-1.076205346042478 3.744138843852751e-09 -3.026964274686271e-05)
(-1.076205139096954 2.411469958855298e-09 -3.026967455739209e-05)
(-1.07620523922477 -2.111029416209945e-11 -3.026963035341318e-05)
(-1.076205124779322 -2.36886901456753e-09 -3.026966513685202e-05)
(-1.076205136565957 -1.511380163895412e-09 -3.026961765078833e-05)
(-1.076205141696721 -2.76066075930994e-09 -3.02696553587631e-05)
(-1.076205071361834 1.823621360335454e-09 -3.026960795077637e-05)
(-1.076205190308319 -2.794971103670388e-10 -3.026964953765691e-05)
(-1.076205075453475 4.829823169911009e-09 -3.026960435943111e-05)
(-1.076205246987297 3.38650665105314e-09 -3.026964628034001e-05)
(-1.076205150683241 9.752686441711415e-09 -3.026960453191473e-05)
(-1.076205319381086 9.988319971068127e-09 -3.02696444926864e-05)
(-1.076205285815858 1.490251508347419e-08 -3.026960581244833e-05)
(-1.076205377172453 1.742058417826849e-08 -3.026964055494566e-05)
(-1.076205454670763 1.726107226228421e-08 -3.026960574419486e-05)
(-1.076205441179831 2.084805811728862e-08 -3.02696340632481e-05)
(-1.076205600182878 1.697076425957067e-08 -3.026960061949088e-05)
(-1.0762054780113 2.11283307852353e-08 -3.026962458874073e-05)
(-1.076205683504942 9.801270096224722e-09 -3.026959328890612e-05)
(-1.076205530873868 1.154170529829635e-08 -3.026961614496791e-05)
(-1.076205653565584 -1.160999699067335e-09 -3.02695803816348e-05)
(-1.076205537625104 -3.198898060262553e-09 -3.026960395959811e-05)
(-1.076205531212162 -1.768407371073076e-08 -3.026956272436358e-05)
(-1.076205539949796 -1.89529997112521e-08 -3.026958473380751e-05)
(-1.076205379330006 -1.791803790573169e-08 -3.026953743399237e-05)
(-1.076205499201347 -1.249781980266819e-08 -3.026956429277219e-05)
(-1.076205256653458 -1.323276472571563e-08 -3.026951573829894e-05)
(-1.076205466597425 -1.362033982584949e-08 -3.026952797195969e-05)
(-1.076205458085709 -4.978554941774666e-08 -3.026957881869789e-05)
(-1.10363053979415 -3.033259050343106e-08 -4.234835739795725e-05)
(-1.103630486848583 3.189060067103503e-08 -4.234834915227155e-05)
(-1.103630479097971 2.48896948530421e-08 -4.234802924101818e-05)
(-1.103630706081146 -3.300881690598412e-09 -4.234838939558244e-05)
(-1.103630461929717 -1.879167340165678e-09 -4.234803480610912e-05)
(-1.103630755523095 -4.388333335671068e-09 -4.234836640487536e-05)
(-1.103630599612027 -2.21164212218875e-08 -4.234806004076515e-05)
(-1.103630732809594 -1.117274607588826e-08 -4.23483413024785e-05)
(-1.10363067977723 -1.420756168383849e-08 -4.234807143988602e-05)
(-1.103630694754971 -9.512048283540294e-09 -4.234832529730835e-05)
(-1.103630668115343 -1.481241267152613e-08 -4.234807435344221e-05)
(-1.103630611069977 -1.882025747966184e-08 -4.234830787750274e-05)
(-1.103630551600967 -3.358240336697601e-08 -4.234807231909513e-05)
(-1.103630511681035 -4.888762092232008e-08 -4.234828078307648e-05)
(-1.103630398706663 -4.658608897940021e-08 -4.234806035578159e-05)
(-1.103630434621094 -4.496754893945756e-08 -4.234825319772384e-05)
(-1.103630192417307 -3.338936810575497e-08 -4.23480514200506e-05)
(-1.103630327727478 -4.235577379510432e-08 -4.234823093473328e-05)
(-1.103630073801073 -3.388375498988478e-08 -4.234804364234631e-05)
(-1.103630245859198 -3.604540734370882e-08 -4.234821327306403e-05)
(-1.103630099311091 -2.434529738734795e-08 -4.234804114396697e-05)
(-1.103630199676312 -1.602524287506816e-08 -4.234820034147587e-05)
(-1.103630180494377 -7.057916472499416e-09 -4.234805049814045e-05)
(-1.103630154873814 -4.146730185733268e-09 -4.234819565195947e-05)
(-1.103630290781825 -6.00517518694841e-09 -4.234806293769102e-05)
(-1.103630170589535 -1.165666579840634e-08 -4.234819156534342e-05)
(-1.103630321978936 4.523066661375297e-09 -4.234806345025569e-05)
(-1.1036301353153 3.299420626608638e-09 -4.234818367218776e-05)
(-1.10363032352642 7.466571970937007e-09 -4.234806630192494e-05)
(-1.103630064959348 7.399777433063452e-09 -4.234817149191683e-05)
(-1.103630294466866 5.813661025776942e-09 -4.234806823268451e-05)
(-1.103629995962544 2.495195797931946e-09 -4.234815783454315e-05)
(-1.103630271863821 -2.500060286319186e-09 -4.234806798313688e-05)
(-1.10362998365858 -3.568571037840282e-09 -4.234814845201095e-05)
(-1.103630197273232 2.350214166617143e-09 -4.234806207766044e-05)
(-1.103630000794812 -7.944632610014384e-11 -4.234814363650777e-05)
(-1.103630150421889 2.416330571060852e-09 -4.234805676279528e-05)
(-1.103629983560207 2.049828815377452e-09 -4.234813865366177e-05)
(-1.10363012007897 -4.560918124179847e-09 -4.234805140028694e-05)
(-1.10362995904854 -7.803582576313054e-09 -4.234813112947146e-05)
(-1.103630089760113 -1.399423104743019e-08 -4.234804064446161e-05)
(-1.10362994088055 -1.20894515855438e-08 -4.234812102192594e-05)
(-1.103630047724294 -1.426159640433886e-08 -4.234802668850625e-05)
(-1.103629965279339 -1.62195913045346e-08 -4.234811276420868e-05)
(-1.103630023761624 -1.697751680035378e-08 -4.234801505773094e-05)
(-1.103630030316183 -1.862973153512702e-08 -4.234810339313936e-05)
(-1.103630012094124 -6.728500291782169e-09 -4.234800399192649e-05)
(-1.103630124029631 -6.412326969497362e-09 -4.234809681590493e-05)
(-1.103630031222828 1.037004908809285e-08 -4.234799967549023e-05)
(-1.103630188518733 1.201088595492034e-08 -4.234809084782135e-05)
(-1.103630114370646 1.954466823835565e-08 -4.234800799514607e-05)
(-1.103630194064494 2.203777261905266e-08 -4.234808391780216e-05)
(-1.103630204430788 2.36430336448459e-08 -4.23480179680049e-05)
(-1.103630131167383 2.508700395355106e-08 -4.234807631671388e-05)
(-1.103630277254427 1.8180212783146e-08 -4.234802542549519e-05)
(-1.10363007756589 1.883851543148162e-08 -4.234807207102047e-05)
(-1.103630269204573 1.403596218960641e-08 -4.234802207390215e-05)
(-1.103630020635989 9.512689875988319e-09 -4.234806494156954e-05)
(-1.103630206683803 5.233992936536605e-09 -4.234801115849001e-05)
(-1.103629988811193 1.866128202309939e-09 -4.234805523863065e-05)
(-1.103630102258659 6.771927053413081e-10 -4.234799430547551e-05)
(-1.103629992453594 -4.207812259295724e-09 -4.234804260856725e-05)
(-1.103630005176881 -9.336614532959689e-10 -4.234797743967169e-05)
(-1.103630027594457 -3.982593834675218e-09 -4.234802920600642e-05)
(-1.103629951333309 3.846894157621735e-09 -4.234796475945788e-05)
(-1.103630095483341 6.606987335805155e-10 -4.234802122012492e-05)
(-1.103629972925393 8.07532575801545e-09 -4.234796019226333e-05)
(-1.10363016782986 6.746677089021479e-09 -4.234801677871939e-05)
(-1.103630065810547 1.462703378452561e-08 -4.234796063053234e-05)
(-1.103630246091859 1.625614261415223e-08 -4.234801405787143e-05)
(-1.103630213647764 2.128918988560422e-08 -4.234796223604411e-05)
(-1.103630305717056 2.639108259563784e-08 -4.234800880832627e-05)
(-1.103630390510823 2.423331790672901e-08 -4.234796178287926e-05)
(-1.103630368255853 2.986684954643168e-08 -4.234800052441335e-05)
(-1.103630535772234 2.341878456090477e-08 -4.23479548040866e-05)
(-1.103630409207755 2.898511883243061e-08 -4.234798849047127e-05)
(-1.103630619462418 1.378627625720712e-08 -4.234794546229674e-05)
(-1.103630473612951 1.406820658318609e-08 -4.234797840467561e-05)
(-1.103630587539104 -1.40551623098617e-09 -4.234792919180487e-05)
(-1.103630502011828 -6.325967416446765e-09 -4.234796358611554e-05)
(-1.103630473433821 -2.351488953462557e-08 -4.234790798121747e-05)
(-1.103630523266091 -2.73972027089463e-08 -4.234793976497797e-05)
(-1.10363033034067 -2.409682695033535e-08 -4.234787791640331e-05)
(-1.103630501880499 -1.675405263594535e-08 -4.23479163778206e-05)
(-1.103630236831489 -1.719162874932567e-08 -4.23478533336037e-05)
(-1.103630484242514 -1.25482827021455e-08 -4.234787708619598e-05)
(-1.103630424855859 -4.993711648262864e-08 -4.234796922546382e-05)
(-1.129240311486756 -1.942902288866939e-08 -5.433618227291721e-05)
(-1.12924022085351 2.903448560690211e-08 -5.433613862439364e-05)
(-1.129240206344139 3.325968499535258e-08 -5.433578591787864e-05)
(-1.129240378674582 -3.397288426443005e-09 -5.433618495550947e-05)
(-1.129240206146151 -1.424115860000899e-09 -5.433579064360331e-05)
(-1.129240412994259 -4.419859155536076e-09 -5.433616034496229e-05)
(-1.129240331876002 -2.79197878792164e-08 -5.433581705385657e-05)
(-1.129240399399124 -1.411773774298128e-08 -5.433613468602008e-05)
(-1.129240401129774 -1.873608171830074e-08 -5.4335827386653e-05)
(-1.129240362155498 -1.363012672401674e-08 -5.433611864248629e-05)
(-1.129240361918772 -2.014730272594852e-08 -5.433582746422903e-05)
(-1.129240269477018 -2.639054318646784e-08 -5.43360992467889e-05)
(-1.129240209828533 -4.364178933917811e-08 -5.43358217662834e-05)
(-1.129240154102493 -6.408364256302791e-08 -5.433606666347821e-05)
(-1.129240036248414 -6.011491847742111e-08 -5.433580569619223e-05)
(-1.129240080149837 -5.958058023082277e-08 -5.433603327681655e-05)
(-1.129239828989552 -4.373845657655682e-08 -5.43357946167597e-05)
(-1.129239966799265 -5.47109309179338e-08 -5.433600544415501e-05)
(-1.129239708046109 -4.391575445886896e-08 -5.433578467648273e-05)
(-1.129239884163265 -4.482622170266758e-08 -5.433598353237519e-05)
(-1.129239743014769 -3.185382872218754e-08 -5.433578182887995e-05)
(-1.129239841560479 -1.859307254902639e-08 -5.433596779600268e-05)
(-1.129239836665878 -9.321502530704591e-09 -5.433579302538905e-05)
(-1.129239788236984 -3.458693301111242e-09 -5.433596258140249e-05)
(-1.129239943557103 -7.561194771134087e-09 -5.433580685606421e-05)
(-1.129239805266499 -1.445184923088897e-08 -5.433595918876442e-05)
(-1.129239983060522 5.056090602576176e-09 -5.433580709259651e-05)
(-1.129239765899325 3.660778386085115e-09 -5.433595016253494e-05)
(-1.129239975009881 8.622325073595504e-09 -5.43358096256948e-05)
(-1.12923969254433 8.586158155312031e-09 -5.433593560596256e-05)
(-1.129239937520403 6.884691576304913e-09 -5.433581098576868e-05)
(-1.12923961436549 2.766914392615813e-09 -5.433591851890802e-05)
(-1.129239900735098 -2.667125023791105e-09 -5.433580970973709e-05)
(-1.129239611738203 -5.438574206428503e-09 -5.433590730427562e-05)
(-1.129239831599138 3.329983620548315e-09 -5.433580285715522e-05)
(-1.129239632600267 -8.73160153862963e-10 -5.433590124562185e-05)
(-1.12923978459377 2.898663359817079e-09 -5.433579645890584e-05)
(-1.129239617560043 2.084715554154715e-09 -5.43358948849776e-05)
(-1.129239752296391 -6.015518981333124e-09 -5.433578991852833e-05)
(-1.129239590448295 -1.015517792895529e-08 -5.433588520790228e-05)
(-1.129239721399027 -1.772761191961797e-08 -5.433577661562612e-05)
(-1.12923957594274 -1.566105643530133e-08 -5.433587322511774e-05)
(-1.129239682642166 -1.756488696605313e-08 -5.433575903734355e-05)
(-1.129239601795301 -2.03908539727008e-08 -5.433586345599406e-05)
(-1.12923966042544 -2.033613888999278e-08 -5.433574455158267e-05)
(-1.129239674381597 -2.326524897603358e-08 -5.433585262676156e-05)
(-1.129239657180095 -7.286690652370284e-09 -5.433573131796262e-05)
(-1.129239779728249 -7.820198559451261e-09 -5.433584537440394e-05)
(-1.129239682490945 1.35482051952148e-08 -5.433572637069948e-05)
(-1.129239848142817 1.621699413841862e-08 -5.43358380395218e-05)
(-1.129239766408046 2.432919374783859e-08 -5.433573678706552e-05)
(-1.129239850924317 2.883917694517799e-08 -5.433582906832879e-05)
(-1.12923985637357 2.900630889043574e-08 -5.433574873578667e-05)
(-1.129239778590771 3.280446456998675e-08 -5.433581910593356e-05)
(-1.129239927022778 2.26839854630674e-08 -5.433575682859321e-05)
(-1.129239724867396 2.375200410905727e-08 -5.433581393917313e-05)
(-1.129239922128338 1.772154563154298e-08 -5.433575206469839e-05)
(-1.129239667788191 1.175291877630381e-08 -5.433580485354819e-05)
(-1.129239864800668 7.309284340898067e-09 -5.433573833297704e-05)
(-1.129239647680683 1.724570573099899e-09 -5.433579332425807e-05)
(-1.129239769582972 2.076030735303952e-09 -5.433571765831467e-05)
(-1.129239667738205 -5.505794804087655e-09 -5.433577828174544e-05)
(-1.129239686661804 3.209631567322533e-10 -5.433569774641608e-05)
(-1.129239720617139 -4.628781665581148e-09 -5.43357621628301e-05)
(-1.1292396484968 6.46194891894674e-09 -5.433568314747424e-05)
(-1.129239805131504 2.244798953526058e-09 -5.433575277527842e-05)
(-1.129239685677696 1.184642820036131e-08 -5.433567821470137e-05)
(-1.129239889300099 1.085932845764683e-08 -5.433574758167031e-05)
(-1.129239794602616 1.989922168263984e-08 -5.433567934550887e-05)
(-1.129239979508969 2.313679445697707e-08 -5.433574441123392e-05)
(-1.129239957369842 2.787765151276852e-08 -5.43356816433336e-05)
(-1.129240047201604 3.571126306961348e-08 -5.43357383805283e-05)
(-1.129240141886813 3.123373832515906e-08 -5.433568095879326e-05)
(-1.129240115907773 3.880210660584683e-08 -5.433572905977234e-05)
(-1.129240287374824 2.966425922985591e-08 -5.433567253015191e-05)
(-1.129240155503238 3.657155218817624e-08 -5.433571480309741e-05)
(-1.129240360615464 1.783010976001739e-08 -5.433566114280478e-05)
(-1.129240219502352 1.6287329955835e-08 -5.433570322123158e-05)
(-1.129240316518671 -1.299992212017711e-09 -5.433564146540124e-05)
(-1.129240245093453 -9.193735861389748e-09 -5.433568537251978e-05)
(-1.12924019714759 -2.836631978975297e-08 -5.43356167021539e-05)
(-1.129240276948987 -3.491280648442811e-08 -5.433565719616283e-05)
(-1.129240074527096 -2.920611397792384e-08 -5.43355830660775e-05)
(-1.129240275693352 -2.042710081162165e-08 -5.433563135138919e-05)
(-1.129239993842375 -2.216238363543187e-08 -5.433555437075804e-05)
(-1.129240230878077 -1.446817450181077e-08 -5.43355847720074e-05)
(-1.129240147224487 -5.341651825550689e-08 -5.433571790731458e-05)
(-1.153021574231841 -1.143826084177422e-08 -6.620898528907563e-05)
(-1.153021519853184 2.731679807535222e-08 -6.620890433265278e-05)
(-1.153021541608814 4.049742346897955e-08 -6.620853136103258e-05)
(-1.153021682004271 -2.926217461047708e-09 -6.620895560699103e-05)
(-1.153021559128931 -1.483378488537064e-09 -6.620853859243598e-05)