/*--------------------------------*- C++ -*----------------------------------*\
| =========                 |                                                 |
| \\      /  F ield         | OpenFOAM: The Open Source CFD Toolbox           |
|  \\    /   O peration     | Version:  v1812                                 |
|   \\  /    A nd           | Web:      www.OpenFOAM.com                      |
|    \\/     M anipulation  |                                                 |
\*---------------------------------------------------------------------------*/
FoamFile
{
    version     2.0;
    format      ascii;
    class       volVectorField;
    location    "10000";
    object      wallShearStress;
}
// * * * * * * * * * * * * * * * * * * * * * * * * * * * * * * * * * * * * * //

dimensions      [0 2 -2 0 0 0 0];


internalField   uniform (0 0 0);

boundaryField
{
    inlet
    {
        type            cyclic;
    }
    outlet
    {
        type            cyclic;
    }
    bottomWall
    {
        type            calculated;
        value           nonuniform List<vector> 
87
(
(0.001062242501038177 1.705185888846818e-09 3.955171496920231e-07)
(0.001062237067317556 -1.528784606254997e-09 3.955196495155951e-07)
(0.001062231688536988 5.984376745177925e-11 3.955122651535887e-07)
(0.001062241192886402 3.612000802783872e-11 3.955183355106165e-07)
(0.001062231621638648 1.11605584024537e-11 3.955132275624878e-07)
(0.001062240606373469 2.07132486874114e-10 3.955176511899282e-07)
(0.001062234783408847 2.553336010789325e-10 3.955137651167343e-07)
(0.001062240809318835 2.113735610542427e-10 3.955171775302221e-07)
(0.001062237629760708 1.327370497449719e-10 3.955140169642806e-07)
(0.001062241046331094 7.756598936816689e-11 3.955168910340265e-07)
(0.001062239636353165 8.134303022776563e-11 3.955141188077784e-07)
(0.001062240262583482 1.36121014714024e-10 3.955166606529112e-07)
(0.001062238435899749 3.883018399058391e-10 3.955141447569033e-07)
(0.001062238148278364 5.636038563443264e-10 3.955163713296261e-07)
(0.001062236446895687 5.72336589786996e-10 3.955140435244145e-07)
(0.001062237949978105 4.691957356281483e-10 3.955160824841429e-07)
(0.001062232191781545 3.703949575912303e-10 3.955139503078579e-07)
(0.001062236480041363 5.185246613451012e-10 3.955158773526917e-07)
(0.001062229116281039 4.426805770838598e-10 3.955138890436462e-07)
(0.001062234585924985 5.533110626018919e-10 3.955157203496056e-07)
(0.001062229341499257 3.066879242025811e-10 3.95513864817018e-07)
(0.001062234507579746 3.272162867129129e-10 3.955156076445631e-07)
(0.001062229586882003 1.177160100707824e-10 3.955139606183052e-07)
(0.001062232387451263 1.972969046188045e-10 3.955155484902719e-07)
(0.001062230315743513 1.301339278202295e-10 3.955140919536057e-07)
(0.001062233373474591 1.955526106840881e-10 3.955154625378502e-07)
(0.001062231740309119 -7.123945927876229e-11 3.95514090992983e-07)
(0.001062232533169788 -4.986109517012708e-11 3.955153591100614e-07)
(0.001062233066851068 -1.615447747311317e-10 3.955141171901639e-07)
(0.001062231107414429 -1.441684807282397e-10 3.955152280734553e-07)
(0.001062233525554879 -1.289270271551506e-10 3.955141579202137e-07)
(0.001062228880057506 -5.524776424083584e-11 3.955150962084191e-07)
(0.001062233448429519 5.545765696986925e-11 3.955141844634737e-07)
(0.001062227679145843 -1.459215924937518e-12 3.955149847016917e-07)
(0.001062231947286799 -3.697693395809833e-11 3.955141286875872e-07)
(0.001062228337910544 -4.86190150125098e-11 3.95514934172463e-07)
(0.001062231821253818 -6.822578172024456e-11 3.955140742227034e-07)
(0.001062228288804213 -6.354953178733694e-11 3.955148876200648e-07)
(0.001062231698674258 4.507799042818296e-11 3.955140262121559e-07)
(0.001062227801950939 8.351960321296957e-11 3.955148194539252e-07)
(0.001062231267433612 1.946011283217316e-10 3.955139234501272e-07)
(0.001062227190697721 1.478319563814284e-10 3.955147169321878e-07)
(0.001062229888317592 2.432745908449274e-10 3.955138037028312e-07)
(0.001062226839328978 2.535499547927304e-10 3.955146444043632e-07)
(0.00106222779777202 3.355391868509789e-10 3.955136895640102e-07)
(0.001062227237750246 3.161470427230423e-10 3.955145530404797e-07)
(0.001062225877348909 2.114988458912581e-10 3.955135704356951e-07)
(0.001062228567100959 1.604857992706911e-10 3.955144874220928e-07)
(0.001062225209621174 -7.153663100377319e-11 3.955135065341479e-07)
(0.001062229849894508 -6.493660450327532e-11 3.955144459492237e-07)
(0.001062226224413556 -2.782284658783444e-10 3.955135626482693e-07)
(0.001062230788454744 -2.522557006789051e-10 3.955143810273782e-07)
(0.001062228273639538 -3.97041662349272e-10 3.95513655909754e-07)
(0.001062229559550812 -3.272233114982735e-10 3.955142996902067e-07)
(0.001062230050178805 -3.346533436694223e-10 3.955137508351863e-07)
(0.001062228603604689 -3.340798194989205e-10 3.955142270934371e-07)
(0.001062230487413113 -2.724498186259947e-10 3.955137346616265e-07)
(0.001062226469941975 -2.361561567057014e-10 3.955141412159017e-07)
(0.001062229358394628 -1.277522074866509e-10 3.955136369840764e-07)
(0.00106222453694146 -1.48599988297967e-10 3.955140309756475e-07)
(0.001062226799780792 -2.537885399642319e-11 3.955134763457868e-07)
(0.001062223014413622 -3.643676644202807e-11 3.955139097030046e-07)
(0.00106222355854103 2.93224504414399e-11 3.955133040574476e-07)
(0.001062222127620294 1.495105572478992e-12 3.955137928257261e-07)
(0.001062220744727706 -2.192891842475315e-11 3.955131743429952e-07)
(0.001062222255691557 -4.238922859599472e-13 3.955137325766993e-07)
(0.001062219355535223 -6.872068047699427e-11 3.95513119185893e-07)
(0.001062222663609492 -2.479866468043159e-11 3.955136926157173e-07)
(0.00106221987604818 -1.572673249813662e-10 3.955131064948209e-07)
(0.001062224113094132 -1.193334650242545e-10 3.955136588942396e-07)
(0.001062222689308561 -2.573326610489304e-10 3.955131028659983e-07)
(0.001062225611910501 -2.379219438209347e-10 3.955135874727756e-07)
(0.001062227260813341 -2.951844106727437e-10 3.955130933079952e-07)
(0.001062227872711139 -3.32904887778924e-10 3.955134752910601e-07)
(0.001062232531705447 -3.091328831768814e-10 3.955130273123965e-07)
(0.001062229598040627 -3.811514544119792e-10 3.955133388725576e-07)
(0.001062236872342367 -1.723837887815383e-10 3.955129499095671e-07)
(0.001062231827807613 -2.849202825897579e-10 3.955132115982154e-07)
(0.001062238417199998 -6.000033842606396e-13 3.955127790530128e-07)
(0.001062232362679102 -3.715581094905508e-11 3.955130342008453e-07)
(0.001062236049454874 3.140908039135147e-10 3.955125071952224e-07)
(0.001062232254642366 2.263572536515619e-10 3.955127233662836e-07)
(0.001062232051686308 2.499895243511863e-10 3.955120554537979e-07)
(0.00106223062014288 1.344270503900472e-10 3.955123439746342e-07)
(0.001062226069940728 2.886116410590457e-10 3.955116972402964e-07)
(0.001062226237832961 6.672714355312849e-10 3.955109006989318e-07)
(0.001062229259812226 1.742514561894694e-09 3.955096979817991e-07)
)
;
    }
    topWall
    {
        type            calculated;
        value           nonuniform List<vector> 
87
(
(0.01066599049362717 7.155875263394045e-08 9.563855926597674e-07)
(0.0106673915895026 4.581074670388729e-09 9.565504768252873e-07)
(0.01066720958170124 -7.043402637629666e-08 9.565479798716964e-07)
(0.01066598802864158 -2.536419359840455e-09 9.564443899590927e-07)
(0.01066647630748849 -2.67142863836534e-08 9.564923737952151e-07)
(0.01066727310398413 -1.936740148330715e-08 9.565710231067464e-07)
(0.01066693384106008 7.143974674452331e-08 9.565241888235049e-07)
(0.01066690534079693 2.255279189292917e-08 9.565086893687877e-07)
(0.01066686008086872 -2.12905443843401e-08 9.564997976902277e-07)
(0.01066704855923202 -4.414224527090507e-08 9.5653194528721e-07)
(0.01066540377681608 -1.578884110527129e-08 9.564282427614428e-07)
(0.01066588421865625 6.541604871037098e-08 9.564552920078449e-07)
(0.0106664188065197 -3.722215581411222e-08 9.564765111190364e-07)
(0.01066567755115705 4.338260227892875e-08 9.56416572828127e-07)
(0.01066194819228033 1.88796966953907e-07 9.560333773984037e-07)
(0.01069366623893993 4.564283633672593e-08 9.588664127650342e-07)
(0.01070323915900069 -6.288186841128956e-08 9.597589094735154e-07)
(0.01070398170269414 -8.331816936416536e-08 9.598402009317096e-07)
(0.0107023854552054 -1.45749464876444e-07 9.597555977448756e-07)
(0.0107055387916484 -3.037144234420061e-07 9.600535881837495e-07)
(0.01067257381156525 -1.362619975515518e-08 9.570343965674692e-07)
(0.01066776092622387 2.788676871518597e-07 9.565830958481725e-07)
(0.010666887893798 2.961935949809435e-09 9.564921691569198e-07)
(0.01066625467797029 3.921019143001809e-08 9.56504354885794e-07)
(0.01066167264554139 2.366902401413298e-07 9.560625555221984e-07)
(0.01069457082532631 7.171051823375276e-09 9.589520113475651e-07)
(0.01070169898518716 -1.010142187047819e-07 9.59659949342614e-07)
(0.01070226150748448 -7.641562721122223e-08 9.597775913127545e-07)
(0.01070698622945896 -2.817371768221443e-07 9.601515091435231e-07)
(0.01067339783697593 -1.110287694184388e-07 9.570523490072599e-07)
(0.01066800270597789 2.843414373744789e-07 9.566259825463234e-07)
(0.01066321054531393 2.896448352941264e-07 9.561709201399078e-07)
(0.01069492584196639 2.659867564088709e-08 9.589860563967751e-07)
(0.01070224596932834 -1.046685935109771e-07 9.597013003492274e-07)
(0.01070296898667961 -7.694936464047546e-08 9.597680667064413e-07)
(0.01070240656357137 -2.916978254494602e-08 9.597302583710421e-07)
(0.01070174086247481 -6.499538453220825e-08 9.597104126055366e-07)
(0.01070565507299036 -2.640045078021389e-07 9.600541279829227e-07)
(0.01067302556943483 -7.254448601445014e-08 9.570381834378165e-07)
(0.01066784905252787 3.007013385381327e-07 9.566080649737949e-07)
(0.01066333831146232 2.798218804618737e-07 9.561954187490157e-07)
(0.01069459712318725 5.585253381773198e-08 9.589660717671265e-07)
(0.01070233111999685 -1.739992467641122e-07 9.597125404848644e-07)
(0.01070605925477635 -3.548835200508368e-07 9.600711305390245e-07)
(0.01067351257344671 -5.701713904596959e-08 9.571017141791403e-07)
(0.01066768027872118 2.111807148169621e-07 9.565665921749653e-07)
(0.01066705230636931 6.885175065476281e-08 9.565599268888194e-07)
(0.01066681609035305 2.918944225039634e-08 9.565506948369346e-07)
(0.01066656517072177 3.9185708035662e-09 9.565192996622833e-07)
(0.01066718265211176 -8.743292358146582e-09 9.565415959693643e-07)
(0.01066700542428488 -6.964622176252562e-09 9.56530707724222e-07)
(0.01066702417728187 -1.518189925596354e-09 9.565116710569261e-07)
(0.01066614281338999 -6.420538075628576e-08 9.563948402267988e-07)
(0.01066655378480794 5.746435202992747e-08 9.565055644699137e-07)
(0.01066273175420525 2.206815526028684e-07 9.561377454247128e-07)
(0.01069446023994181 3.454073740159309e-08 9.589493546590661e-07)
(0.01070214783560377 -9.026682882024918e-08 9.596714398896306e-07)
(0.01070286635422563 -7.253551521943516e-08 9.597498382901154e-07)
(0.01070237058966391 -2.763047703166353e-08 9.597162765758107e-07)
(0.01070162471103903 -6.540299866570355e-08 9.597009825105727e-07)
(0.01070572665020345 -2.585615582549237e-07 9.600474739387644e-07)
(0.01067300884836605 -7.394604907887377e-08 9.570244401785364e-07)
(0.01066782044622967 2.952583887767129e-07 9.566148226411149e-07)
(0.01066318447228005 2.935810274716367e-07 9.561684669822029e-07)
(0.01069484859598262 2.637487840769936e-08 9.589784169704326e-07)
(0.01070230470209214 -1.088142451322079e-07 9.596979449866122e-07)
(0.01070276752212998 -7.229516627301957e-08 9.597554810835654e-07)
(0.01070247802452672 -4.760276155195329e-08 9.597463183802898e-07)
(0.01070203771295063 3.975714484607555e-09 9.596875772663375e-07)
(0.01070222658658515 4.994002300986904e-09 9.59705672083809e-07)
(0.01070246952621628 1.125551858905512e-08 9.597756719321297e-07)
(0.01070231206618194 3.373360747879802e-08 9.597174300036416e-07)
(0.01070303776353747 -2.791787091760981e-09 9.597307737336667e-07)
(0.01070349925750047 -1.736957929267843e-08 9.598104303456265e-07)
(0.01070268208790193 3.486033239119874e-08 9.59756273897108e-07)
(0.01070336666608869 3.294168748918531e-08 9.598120537117401e-07)
(0.0107032209970568 -4.383479915462574e-10 9.597795596468087e-07)
(0.01070232270180656 6.281943738467323e-09 9.596897800824721e-07)
(0.01070209221830139 -1.057764509625819e-07 9.597292033546824e-07)
(0.01070579665987967 -3.213946950703083e-07 9.600547925766389e-07)
(0.01067298217666321 -2.225000643874469e-08 9.569990085065161e-07)
(0.01066789754185816 2.409896840823067e-07 9.565488375783709e-07)
(0.01066703250301146 4.908622758492025e-08 9.565728889361421e-07)
(0.01066589784146306 1.737616022704777e-08 9.564513244602844e-07)
(0.01066636142595843 9.928480392673586e-09 9.564010670644245e-07)
(0.01066644588059432 -1.432926342870716e-08 9.564453488216203e-07)
(0.01066558153742623 2.15508558152995e-08 9.564367571099666e-07)
)
;
    }
    left
    {
        type            cyclic;
    }
    right
    {
        type            cyclic;
    }
}


// ************************************************************************* //
