/*--------------------------------*- C++ -*----------------------------------*\
| =========                 |                                                 |
| \\      /  F ield         | OpenFOAM: The Open Source CFD Toolbox           |
|  \\    /   O peration     | Version:  v1812                                 |
|   \\  /    A nd           | Web:      www.OpenFOAM.com                      |
|    \\/     M anipulation  |                                                 |
\*---------------------------------------------------------------------------*/
FoamFile
{
    version     2.0;
    format      ascii;
    class       volScalarField;
    location    "20000";
    object      nut;
}
// * * * * * * * * * * * * * * * * * * * * * * * * * * * * * * * * * * * * * //

dimensions      [0 2 -1 0 0 0 0];


internalField   nonuniform List<scalar> 
3770
(
0.000142716147420629
0.0001427161474206291
0.000142716147420629
0.000142716147420629
0.0001427161474206292
0.000142716147420629
0.0001427161474206292
0.0001427161474206292
0.000142716147420629
0.0001427161474206293
0.0001427161474206289
0.0001427161474206293
0.000142716147420629
0.0001427161474206292
0.000142716147420629
0.0001427161474206287
0.0001427161474206296
0.0001427161474206286
0.0001427161474206296
0.0001427161474206291
0.0001427161474206289
0.0001427161474206294
0.0001427161474206288
0.0001427161474206291
0.000142716147420629
0.000142716147420629
0.0001427161474206291
0.000142716147420629
0.0001427161474206291
0.0001427161474206293
0.0001427161474206285
0.0001427161474206292
0.0001427161474206291
0.0001427161474206293
0.000142716147420629
0.0001427161474206288
0.0001427161474206291
0.0001427161474206296
0.0001427161474206291
0.0001427161474206291
0.0001427161474206285
0.000142716147420629
0.0001427161474206292
0.000142716147420629
0.000142716147420629
0.0001427161474206291
0.0001427161474206291
0.0001427161474206296
0.0001427161474206285
0.0001427161474206291
0.0001427161474206291
0.0001427161474206285
0.0001427161474206292
0.0001427161474206302
0.0001427161474206291
0.0001427161474206285
0.0001427161474206285
0.0001427161474206303
3.370697338684544e-05
3.370697338684569e-05
3.370697338684576e-05
3.370697338684572e-05
3.370697338684571e-05
3.370697338684572e-05
3.370697338684563e-05
3.37069733868456e-05
3.370697338684563e-05
3.370697338684586e-05
3.370697338684558e-05
3.370697338684573e-05
3.370697338684582e-05
3.370697338684573e-05
3.37069733868458e-05
3.370697338684575e-05
3.370697338684579e-05
3.370697338684559e-05
3.370697338684601e-05
3.370697338684557e-05
3.370697338684569e-05
3.370697338684584e-05
3.370697338684554e-05
3.370697338684552e-05
3.370697338684559e-05
3.370697338684565e-05
3.370697338684552e-05
3.370697338684568e-05
3.370697338684592e-05
3.37069733868457e-05
3.370697338684538e-05
3.370697338684557e-05
3.370697338684572e-05
3.370697338684563e-05
3.370697338684559e-05
3.370697338684559e-05
3.370697338684589e-05
3.370697338684585e-05
3.370697338684548e-05
3.370697338684542e-05
3.370697338684535e-05
3.370697338684563e-05
3.370697338684578e-05
3.370697338684595e-05
3.370697338684553e-05
3.370697338684563e-05
3.370697338684576e-05
3.370697338684597e-05
3.370697338684546e-05
3.370697338684567e-05
3.37069733868456e-05
3.370697338684519e-05
3.370697338684572e-05
3.370697338684567e-05
3.370697338684613e-05
3.370697338684508e-05
3.370697338684554e-05
3.370697338684591e-05
0.0001740104951471093
0.0001740104951471112
0.0001740104951471121
0.0001740104951471119
0.0001740104951471116
0.0001740104951471123
0.0001740104951471112
0.0001740104951471105
0.0001740104951471111
0.0001740104951471125
0.0001740104951471111
0.0001740104951471112
0.0001740104951471125
0.0001740104951471114
0.0001740104951471118
0.0001740104951471123
0.0001740104951471114
0.0001740104951471108
0.0001740104951471132
0.0001740104951471114
0.000174010495147112
0.0001740104951471115
0.0001740104951471111
0.0001740104951471111
0.0001740104951471104
0.0001740104951471113
0.0001740104951471113
0.0001740104951471114
0.0001740104951471128
0.0001740104951471121
0.0001740104951471091
0.0001740104951471105
0.0001740104951471116
0.0001740104951471119
0.0001740104951471102
0.0001740104951471108
0.0001740104951471118
0.0001740104951471128
0.0001740104951471101
0.0001740104951471103
0.000174010495147109
0.0001740104951471115
0.0001740104951471124
0.0001740104951471135
0.0001740104951471106
0.0001740104951471104
0.0001740104951471116
0.0001740104951471136
0.00017401049514711
0.0001740104951471118
0.0001740104951471121
0.0001740104951471085
0.0001740104951471098
0.0001740104951471108
0.0001740104951471147
0.0001740104951471077
0.0001740104951471106
0.0001740104951471123
0.000420024477510319
0.000420024477510321
0.0004200244775103223
0.0004200244775103218
0.0004200244775103217
0.0004200244775103221
0.0004200244775103217
0.0004200244775103199
0.0004200244775103217
0.0004200244775103224
0.0004200244775103212
0.0004200244775103222
0.0004200244775103232
0.0004200244775103213
0.0004200244775103218
0.0004200244775103239
0.0004200244775103214
0.0004200244775103212
0.0004200244775103246
0.0004200244775103222
0.0004200244775103223
0.000420024477510321
0.0004200244775103209
0.0004200244775103204
0.0004200244775103191
0.0004200244775103222
0.0004200244775103235
0.0004200244775103219
0.0004200244775103231
0.0004200244775103223
0.0004200244775103187
0.0004200244775103204
0.0004200244775103225
0.0004200244775103221
0.0004200244775103212
0.0004200244775103214
0.0004200244775103229
0.0004200244775103233
0.0004200244775103194
0.0004200244775103195
0.0004200244775103181
0.0004200244775103199
0.0004200244775103213
0.0004200244775103258
0.0004200244775103215
0.0004200244775103225
0.0004200244775103211
0.0004200244775103242
0.0004200244775103214
0.0004200244775103216
0.0004200244775103225
0.0004200244775103168
0.0004200244775103212
0.0004200244775103192
0.0004200244775103267
0.0004200244775103155
0.0004200244775103208
0.0004200244775103238
0.0006819896129622269
0.0006819896129622274
0.0006819896129622295
0.0006819896129622283
0.0006819896129622286
0.0006819896129622296
0.0006819896129622295
0.0006819896129622276
0.0006819896129622298
0.0006819896129622292
0.0006819896129622289
0.0006819896129622294
0.0006819896129622307
0.0006819896129622286
0.0006819896129622292
0.0006819896129622308
0.0006819896129622288
0.0006819896129622291
0.000681989612962233
0.000681989612962229
0.0006819896129622291
0.0006819896129622286
0.0006819896129622283
0.0006819896129622285
0.0006819896129622263
0.0006819896129622302
0.000681989612962231
0.000681989612962229
0.000681989612962231
0.0006819896129622307
0.0006819896129622259
0.0006819896129622271
0.0006819896129622301
0.0006819896129622304
0.0006819896129622296
0.0006819896129622296
0.0006819896129622301
0.0006819896129622306
0.0006819896129622272
0.0006819896129622266
0.000681989612962225
0.0006819896129622264
0.0006819896129622291
0.0006819896129622337
0.0006819896129622299
0.0006819896129622299
0.0006819896129622296
0.0006819896129622316
0.0006819896129622297
0.0006819896129622282
0.0006819896129622281
0.0006819896129622255
0.0006819896129622267
0.0006819896129622279
0.0006819896129622327
0.0006819896129622225
0.0006819896129622288
0.000681989612962231
0.0009344673373589608
0.0009344673373589609
0.000934467337358962
0.0009344673373589619
0.0009344673373589614
0.0009344673373589627
0.0009344673373589629
0.0009344673373589611
0.0009344673373589628
0.0009344673373589626
0.0009344673373589619
0.0009344673373589611
0.0009344673373589624
0.0009344673373589605
0.000934467337358962
0.0009344673373589636
0.0009344673373589618
0.0009344673373589635
0.0009344673373589666
0.000934467337358962
0.0009344673373589629
0.0009344673373589622
0.0009344673373589618
0.0009344673373589632
0.0009344673373589603
0.0009344673373589646
0.0009344673373589646
0.0009344673373589629
0.0009344673373589651
0.0009344673373589631
0.0009344673373589593
0.0009344673373589606
0.0009344673373589638
0.0009344673373589638
0.0009344673373589639
0.0009344673373589632
0.0009344673373589639
0.0009344673373589629
0.000934467337358961
0.000934467337358961
0.0009344673373589568
0.0009344673373589586
0.0009344673373589642
0.0009344673373589679
0.0009344673373589639
0.000934467337358966
0.0009344673373589628
0.0009344673373589646
0.0009344673373589633
0.0009344673373589612
0.0009344673373589606
0.00093446733735896
0.0009344673373589596
0.0009344673373589628
0.0009344673373589672
0.000934467337358956
0.0009344673373589633
0.0009344673373589655
0.001175230443485297
0.001175230443485297
0.001175230443485298
0.001175230443485299
0.001175230443485296
0.001175230443485298
0.001175230443485299
0.001175230443485297
0.001175230443485298
0.001175230443485299
0.001175230443485297
0.001175230443485298
0.001175230443485297
0.001175230443485296
0.001175230443485298
0.001175230443485298
0.001175230443485298
0.0011752304434853
0.001175230443485302
0.001175230443485298
0.001175230443485299
0.001175230443485299
0.001175230443485298
0.001175230443485298
0.001175230443485297
0.001175230443485301
0.001175230443485301
0.001175230443485299
0.001175230443485301
0.001175230443485298
0.001175230443485296
0.001175230443485297
0.0011752304434853
0.001175230443485299
0.001175230443485299
0.0011752304434853
0.001175230443485301
0.001175230443485298
0.001175230443485296
0.001175230443485297
0.001175230443485291
0.001175230443485296
0.0011752304434853
0.001175230443485305
0.001175230443485301
0.001175230443485303
0.001175230443485299
0.001175230443485301
0.001175230443485298
0.001175230443485298
0.001175230443485297
0.001175230443485296
0.001175230443485296
0.001175230443485299
0.001175230443485304
0.001175230443485293
0.001175230443485299
0.001175230443485301
0.001409961474208308
0.001409961474208308
0.001409961474208307
0.001409961474208309
0.001409961474208305
0.001409961474208307
0.001409961474208309
0.001409961474208307
0.001409961474208308
0.001409961474208308
0.001409961474208306
0.001409961474208306
0.001409961474208305
0.001409961474208306
0.001409961474208306
0.001409961474208306
0.001409961474208307
0.00140996147420831
0.001409961474208312
0.001409961474208309
0.001409961474208309
0.001409961474208309
0.001409961474208307
0.001409961474208307
0.001409961474208307
0.001409961474208311
0.00140996147420831
0.001409961474208308
0.00140996147420831
0.001409961474208308
0.001409961474208305
0.001409961474208308
0.00140996147420831
0.001409961474208309
0.001409961474208308
0.001409961474208309
0.001409961474208311
0.001409961474208308
0.001409961474208307
0.001409961474208308
0.001409961474208301
0.001409961474208306
0.00140996147420831
0.001409961474208315
0.001409961474208311
0.001409961474208313
0.001409961474208308
0.00140996147420831
0.001409961474208309
0.001409961474208308
0.001409961474208307
0.001409961474208306
0.001409961474208306
0.001409961474208309
0.001409961474208314
0.001409961474208304
0.001409961474208309
0.00140996147420831
0.001647130962108053
0.001647130962108052
0.00164713096210805
0.001647130962108052
0.001647130962108049
0.001647130962108051
0.001647130962108054
0.001647130962108052
0.001647130962108052
0.001647130962108052
0.00164713096210805
0.001647130962108049
0.001647130962108049
0.00164713096210805
0.001647130962108051
0.00164713096210805
0.001647130962108052
0.001647130962108056
0.001647130962108056
0.001647130962108054
0.001647130962108054
0.001647130962108054
0.00164713096210805
0.00164713096210805
0.001647130962108052
0.001647130962108056
0.001647130962108055
0.001647130962108054
0.001647130962108055
0.001647130962108052
0.00164713096210805
0.001647130962108053
0.001647130962108054
0.001647130962108054
0.001647130962108052
0.001647130962108055
0.001647130962108054
0.001647130962108052
0.001647130962108051
0.001647130962108052
0.001647130962108045
0.001647130962108051
0.001647130962108056
0.00164713096210806
0.001647130962108056
0.001647130962108059
0.001647130962108052
0.001647130962108054
0.001647130962108055
0.001647130962108053
0.001647130962108051
0.00164713096210805
0.00164713096210805
0.001647130962108054
0.001647130962108059
0.001647130962108049
0.001647130962108053
0.001647130962108054
0.001897434100761214
0.001897434100761213
0.00189743410076121
0.001897434100761212
0.001897434100761207
0.001897434100761211
0.001897434100761215
0.001897434100761212
0.001897434100761212
0.001897434100761211
0.00189743410076121
0.001897434100761209
0.001897434100761209
0.00189743410076121
0.001897434100761211
0.001897434100761209
0.001897434100761214
0.001897434100761217
0.001897434100761216
0.001897434100761215
0.001897434100761214
0.001897434100761214
0.001897434100761209
0.00189743410076121
0.001897434100761214
0.001897434100761216
0.001897434100761216
0.001897434100761214
0.001897434100761216
0.001897434100761213
0.001897434100761211
0.001897434100761214
0.001897434100761215
0.001897434100761215
0.001897434100761212
0.001897434100761216
0.001897434100761217
0.001897434100761213
0.001897434100761211
0.001897434100761212
0.001897434100761207
0.001897434100761211
0.001897434100761217
0.001897434100761221
0.001897434100761218
0.00189743410076122
0.001897434100761212
0.001897434100761214
0.001897434100761216
0.001897434100761215
0.001897434100761211
0.00189743410076121
0.001897434100761212
0.001897434100761216
0.00189743410076122
0.001897434100761212
0.001897434100761213
0.001897434100761215
0.002173841101393336
0.002173841101393336
0.002173841101393334
0.002173841101393335
0.002173841101393331
0.002173841101393333
0.002173841101393337
0.002173841101393336
0.002173841101393335
0.002173841101393333
0.002173841101393333
0.002173841101393332
0.002173841101393333
0.002173841101393333
0.002173841101393335
0.002173841101393331
0.002173841101393338
0.002173841101393342
0.002173841101393338
0.002173841101393339
0.002173841101393337
0.002173841101393338
0.002173841101393331
0.002173841101393333
0.00217384110139334
0.002173841101393341
0.002173841101393339
0.002173841101393339
0.002173841101393341
0.002173841101393335
0.002173841101393334
0.002173841101393337
0.002173841101393337
0.002173841101393337
0.002173841101393334
0.00217384110139334
0.002173841101393341
0.002173841101393335
0.002173841101393333
0.002173841101393334
0.002173841101393331
0.002173841101393333
0.002173841101393341
0.002173841101393347
0.002173841101393341
0.002173841101393343
0.002173841101393336
0.002173841101393337
0.002173841101393339
0.00217384110139334
0.002173841101393334
0.002173841101393332
0.002173841101393337
0.002173841101393341
0.002173841101393344
0.002173841101393336
0.002173841101393338
0.002173841101393337
0.002490664460609255
0.002490664460609253
0.002490664460609252
0.002490664460609251
0.00249066446060925
0.002490664460609252
0.002490664460609255
0.002490664460609254
0.002490664460609253
0.002490664460609252
0.002490664460609253
0.002490664460609251
0.002490664460609252
0.002490664460609251
0.002490664460609252
0.002490664460609249
0.002490664460609258
0.002490664460609261
0.002490664460609258
0.002490664460609259
0.002490664460609256
0.002490664460609257
0.002490664460609251
0.002490664460609252
0.00249066446060926
0.002490664460609261
0.002490664460609257
0.002490664460609257
0.00249066446060926
0.002490664460609254
0.002490664460609254
0.002490664460609257
0.002490664460609256
0.002490664460609257
0.00249066446060925
0.002490664460609258
0.00249066446060926
0.002490664460609253
0.00249066446060925
0.002490664460609251
0.002490664460609249
0.002490664460609252
0.00249066446060926
0.002490664460609268
0.002490664460609261
0.002490664460609261
0.002490664460609254
0.002490664460609256
0.002490664460609258
0.002490664460609258
0.002490664460609253
0.002490664460609252
0.002490664460609258
0.002490664460609263
0.002490664460609263
0.002490664460609255
0.002490664460609258
0.002490664460609256
0.002861138630867093
0.002861138630867088
0.002861138630867088
0.002861138630867086
0.002861138630867086
0.00286113863086709
0.002861138630867091
0.002861138630867092
0.002861138630867089
0.002861138630867089
0.002861138630867088
0.002861138630867088
0.002861138630867088
0.002861138630867088
0.002861138630867088
0.002861138630867083
0.002861138630867094
0.002861138630867098
0.002861138630867095
0.002861138630867096
0.002861138630867093
0.002861138630867094
0.002861138630867088
0.002861138630867091
0.002861138630867098
0.002861138630867097
0.002861138630867092
0.002861138630867094
0.002861138630867098
0.00286113863086709
0.002861138630867093
0.002861138630867095
0.002861138630867092
0.002861138630867093
0.002861138630867087
0.002861138630867096
0.002861138630867097
0.002861138630867089
0.002861138630867088
0.002861138630867086
0.002861138630867085
0.00286113863086709
0.002861138630867099
0.002861138630867106
0.0028611386308671
0.0028611386308671
0.002861138630867091
0.002861138630867093
0.002861138630867095
0.002861138630867096
0.002861138630867088
0.002861138630867088
0.002861138630867096
0.002861138630867103
0.002861138630867102
0.002861138630867091
0.002861138630867096
0.002861138630867093
0.003293880395586698
0.003293880395586695
0.003293880395586696
0.003293880395586693
0.003293880395586693
0.003293880395586695
0.003293880395586697
0.003293880395586697
0.003293880395586696
0.003293880395586695
0.003293880395586695
0.003293880395586695
0.003293880395586692
0.003293880395586693
0.003293880395586694
0.00329388039558669
0.003293880395586698
0.003293880395586704
0.0032938803955867
0.0032938803955867
0.0032938803955867
0.003293880395586701
0.003293880395586695
0.003293880395586697
0.003293880395586705
0.003293880395586704
0.003293880395586698
0.0032938803955867
0.003293880395586703
0.003293880395586696
0.003293880395586699
0.003293880395586701
0.003293880395586698
0.003293880395586697
0.003293880395586696
0.003293880395586702
0.003293880395586703
0.003293880395586697
0.003293880395586695
0.00329388039558669
0.00329388039558669
0.003293880395586697
0.003293880395586706
0.003293880395586713
0.003293880395586708
0.003293880395586709
0.0032938803955867
0.003293880395586698
0.0032938803955867
0.003293880395586704
0.003293880395586694
0.003293880395586696
0.003293880395586705
0.003293880395586709
0.003293880395586708
0.003293880395586699
0.0032938803955867
0.003293880395586699
0.003789478987465032
0.003789478987465029
0.00378947898746503
0.003789478987465026
0.003789478987465028
0.003789478987465031
0.003789478987465031
0.003789478987465029
0.00378947898746503
0.003789478987465029
0.003789478987465027
0.003789478987465029
0.003789478987465026
0.003789478987465027
0.003789478987465027
0.003789478987465022
0.003789478987465032
0.003789478987465037
0.003789478987465035
0.003789478987465032
0.003789478987465036
0.003789478987465037
0.003789478987465031
0.003789478987465033
0.003789478987465039
0.003789478987465038
0.003789478987465033
0.003789478987465034
0.003789478987465037
0.003789478987465031
0.003789478987465034
0.003789478987465034
0.003789478987465032
0.003789478987465032
0.00378947898746503
0.003789478987465037
0.003789478987465039
0.003789478987465032
0.003789478987465031
0.003789478987465023
0.003789478987465024
0.003789478987465035
0.003789478987465044
0.003789478987465045
0.00378947898746504
0.003789478987465044
0.003789478987465034
0.003789478987465035
0.003789478987465037
0.00378947898746504
0.003789478987465028
0.003789478987465034
0.003789478987465043
0.003789478987465044
0.003789478987465041
0.003789478987465034
0.003789478987465033
0.003789478987465031
0.004338916315647467
0.004338916315647466
0.004338916315647467
0.004338916315647465
0.004338916315647466
0.004338916315647466
0.004338916315647464
0.004338916315647466
0.004338916315647465
0.004338916315647466
0.004338916315647464
0.004338916315647465
0.004338916315647463
0.004338916315647466
0.004338916315647465
0.004338916315647456
0.004338916315647465
0.004338916315647474
0.004338916315647476
0.004338916315647472
0.004338916315647477
0.004338916315647477
0.004338916315647473
0.004338916315647472
0.004338916315647476
0.004338916315647475
0.004338916315647471
0.004338916315647473
0.004338916315647473
0.004338916315647471
0.004338916315647472
0.004338916315647472
0.00433891631564747
0.00433891631564747
0.004338916315647469
0.004338916315647475
0.004338916315647477
0.004338916315647472
0.004338916315647472
0.00433891631564746
0.004338916315647465
0.004338916315647479
0.004338916315647485
0.004338916315647481
0.004338916315647478
0.00433891631564748
0.004338916315647473
0.004338916315647474
0.004338916315647477
0.004338916315647481
0.004338916315647467
0.004338916315647473
0.004338916315647486
0.004338916315647486
0.004338916315647482
0.004338916315647473
0.004338916315647472
0.004338916315647466
0.004924948398198859
0.004924948398198858
0.004924948398198861
0.004924948398198858
0.004924948398198859
0.004924948398198862
0.004924948398198859
0.004924948398198859
0.004924948398198858
0.004924948398198857
0.004924948398198858
0.004924948398198857
0.004924948398198854
0.004924948398198857
0.004924948398198856
0.004924948398198848
0.004924948398198856
0.004924948398198868
0.004924948398198869
0.004924948398198861
0.00492494839819887
0.00492494839819887
0.004924948398198863
0.004924948398198862
0.004924948398198866
0.004924948398198869
0.004924948398198864
0.004924948398198864
0.004924948398198862
0.00492494839819886
0.004924948398198862
0.004924948398198862
0.004924948398198863
0.004924948398198862
0.004924948398198859
0.004924948398198866
0.00492494839819887
0.004924948398198865
0.004924948398198866
0.004924948398198855
0.004924948398198859
0.004924948398198873
0.004924948398198879
0.004924948398198875
0.00492494839819887
0.004924948398198872
0.004924948398198865
0.004924948398198867
0.004924948398198871
0.004924948398198875
0.004924948398198862
0.004924948398198867
0.00492494839819888
0.004924948398198879
0.004924948398198878
0.004924948398198865
0.004924948398198868
0.004924948398198863
0.005526048195718994
0.005526048195718992
0.005526048195718994
0.005526048195718991
0.005526048195718991
0.005526048195718994
0.005526048195718994
0.005526048195718993
0.00552604819571899
0.00552604819571899
0.005526048195718988
0.005526048195718988
0.005526048195718985
0.005526048195718986
0.005526048195718988
0.005526048195718978
0.005526048195718987
0.005526048195718997
0.005526048195719002
0.005526048195718994
0.005526048195719001
0.005526048195719002
0.005526048195718996
0.005526048195718994
0.005526048195718995
0.005526048195719
0.005526048195718995
0.005526048195718997
0.005526048195718996
0.005526048195718993
0.005526048195718992
0.005526048195718994
0.005526048195718994
0.005526048195718995
0.005526048195718989
0.005526048195718996
0.005526048195719001
0.005526048195718997
0.005526048195718995
0.005526048195718988
0.005526048195718996
0.005526048195719009
0.005526048195719008
0.005526048195719008
0.005526048195719005
0.005526048195719006
0.005526048195718998
0.005526048195718998
0.005526048195719003
0.005526048195719004
0.005526048195718996
0.005526048195719001
0.005526048195719013
0.005526048195719017
0.005526048195719013
0.005526048195719
0.005526048195719003
0.005526048195718995
0.006121105734203822
0.006121105734203819
0.006121105734203819
0.006121105734203815
0.006121105734203817
0.006121105734203813
0.006121105734203817
0.006121105734203815
0.006121105734203817
0.006121105734203816
0.006121105734203812
0.006121105734203811
0.00612110573420381
0.006121105734203811
0.006121105734203815
0.006121105734203805
0.006121105734203811
0.006121105734203822
0.006121105734203824
0.006121105734203819
0.006121105734203828
0.006121105734203824
0.006121105734203819
0.006121105734203817
0.006121105734203819
0.006121105734203824
0.006121105734203819
0.006121105734203821
0.00612110573420382
0.006121105734203816
0.006121105734203816
0.006121105734203818
0.00612110573420382
0.006121105734203817
0.006121105734203817
0.00612110573420382
0.006121105734203824
0.00612110573420382
0.006121105734203821
0.006121105734203815
0.006121105734203824
0.006121105734203834
0.006121105734203835
0.006121105734203836
0.006121105734203829
0.006121105734203831
0.006121105734203825
0.006121105734203826
0.006121105734203831
0.006121105734203829
0.006121105734203821
0.006121105734203824
0.006121105734203844
0.006121105734203846
0.006121105734203844
0.006121105734203829
0.00612110573420383
0.006121105734203825
0.006692946760300487
0.006692946760300483
0.006692946760300482
0.006692946760300481
0.006692946760300479
0.00669294676030048
0.006692946760300483
0.006692946760300479
0.006692946760300477
0.006692946760300478
0.006692946760300475
0.006692946760300474
0.00669294676030047
0.006692946760300474
0.006692946760300477
0.006692946760300469
0.006692946760300471
0.006692946760300482
0.006692946760300487
0.006692946760300481
0.006692946760300487
0.006692946760300485
0.006692946760300483
0.006692946760300478
0.006692946760300483
0.006692946760300486
0.006692946760300486
0.006692946760300483
0.006692946760300481
0.006692946760300476
0.006692946760300476
0.006692946760300481
0.006692946760300484
0.006692946760300483
0.006692946760300481
0.006692946760300483
0.006692946760300485
0.006692946760300487
0.006692946760300484
0.00669294676030048
0.006692946760300487
0.006692946760300497
0.006692946760300497
0.006692946760300495
0.006692946760300492
0.006692946760300492
0.006692946760300487
0.006692946760300494
0.006692946760300488
0.006692946760300493
0.006692946760300486
0.006692946760300488
0.006692946760300507
0.00669294676030051
0.006692946760300511
0.006692946760300498
0.006692946760300496
0.006692946760300494
0.0072297776811481
0.007229777681148096
0.007229777681148093
0.007229777681148097
0.007229777681148093
0.007229777681148091
0.007229777681148094
0.00722977768114809
0.007229777681148088
0.007229777681148094
0.007229777681148089
0.007229777681148087
0.007229777681148083
0.007229777681148087
0.007229777681148092
0.007229777681148084
0.007229777681148084
0.007229777681148095
0.007229777681148097
0.007229777681148093
0.007229777681148094
0.007229777681148098
0.007229777681148096
0.007229777681148093
0.007229777681148095
0.007229777681148096
0.007229777681148099
0.007229777681148097
0.007229777681148093
0.007229777681148089
0.007229777681148085
0.007229777681148091
0.007229777681148095
0.007229777681148097
0.007229777681148095
0.007229777681148095
0.007229777681148092
0.007229777681148097
0.007229777681148099
0.007229777681148094
0.007229777681148096
0.007229777681148109
0.007229777681148109
0.007229777681148109
0.007229777681148106
0.007229777681148106
0.007229777681148104
0.007229777681148105
0.007229777681148102
0.007229777681148104
0.0072297776811481
0.007229777681148099
0.007229777681148117
0.007229777681148126
0.007229777681148126
0.007229777681148113
0.00722977768114811
0.007229777681148108
0.007724845373115963
0.007724845373115958
0.007724845373115956
0.007724845373115958
0.007724845373115952
0.00772484537311595
0.007724845373115951
0.007724845373115945
0.007724845373115945
0.00772484537311595
0.007724845373115949
0.007724845373115945
0.007724845373115942
0.007724845373115945
0.007724845373115946
0.007724845373115942
0.007724845373115943
0.007724845373115952
0.007724845373115952
0.007724845373115951
0.007724845373115948
0.007724845373115952
0.007724845373115954
0.007724845373115952
0.007724845373115954
0.007724845373115953
0.007724845373115955
0.007724845373115953
0.00772484537311595
0.007724845373115951
0.007724845373115945
0.007724845373115948
0.007724845373115952
0.007724845373115957
0.007724845373115953
0.007724845373115955
0.007724845373115951
0.007724845373115957
0.007724845373115959
0.007724845373115951
0.007724845373115956
0.007724845373115964
0.007724845373115969
0.007724845373115965
0.007724845373115965
0.007724845373115964
0.007724845373115967
0.007724845373115965
0.00772484537311596
0.007724845373115964
0.007724845373115962
0.007724845373115962
0.007724845373115977
0.007724845373115986
0.007724845373115985
0.007724845373115977
0.007724845373115974
0.007724845373115971
0.008175159722827655
0.00817515972282765
0.00817515972282765
0.008175159722827646
0.008175159722827641
0.008175159722827638
0.008175159722827639
0.008175159722827632
0.008175159722827632
0.008175159722827638
0.008175159722827636
0.008175159722827634
0.008175159722827629
0.008175159722827632
0.008175159722827636
0.008175159722827629
0.008175159722827636
0.008175159722827639
0.008175159722827638
0.008175159722827636
0.008175159722827639
0.008175159722827643
0.008175159722827641
0.008175159722827643
0.008175159722827643
0.008175159722827641
0.008175159722827641
0.008175159722827643
0.008175159722827641
0.008175159722827643
0.008175159722827636
0.008175159722827639
0.008175159722827641
0.008175159722827643
0.008175159722827639
0.008175159722827641
0.008175159722827639
0.008175159722827645
0.008175159722827646
0.008175159722827641
0.008175159722827645
0.008175159722827653
0.008175159722827657
0.008175159722827658
0.008175159722827657
0.008175159722827655
0.008175159722827655
0.008175159722827651
0.008175159722827648
0.008175159722827653
0.008175159722827653
0.008175159722827651
0.008175159722827665
0.008175159722827676
0.008175159722827676
0.008175159722827669
0.008175159722827667
0.008175159722827664
0.008580060376390851
0.008580060376390844
0.008580060376390839
0.008580060376390837
0.008580060376390834
0.008580060376390827
0.008580060376390829
0.008580060376390825
0.008580060376390825
0.008580060376390827
0.008580060376390829
0.008580060376390827
0.00858006037639082
0.008580060376390825
0.008580060376390825
0.00858006037639082
0.008580060376390829
0.008580060376390832
0.008580060376390825
0.008580060376390827
0.00858006037639083
0.008580060376390834
0.008580060376390832
0.008580060376390834
0.008580060376390834
0.008580060376390829
0.008580060376390834
0.008580060376390836
0.008580060376390834
0.008580060376390834
0.008580060376390827
0.00858006037639083
0.008580060376390832
0.008580060376390836
0.00858006037639083
0.008580060376390834
0.008580060376390832
0.008580060376390836
0.008580060376390839
0.008580060376390836
0.008580060376390836
0.008580060376390841
0.008580060376390848
0.008580060376390848