/*--------------------------------*- C++ -*----------------------------------*\
| =========                 |                                                 |
| \\      /  F ield         | OpenFOAM: The Open Source CFD Toolbox           |
|  \\    /   O peration     | Version:  v1812                                 |
|   \\  /    A nd           | Web:      www.OpenFOAM.com                      |
|    \\/     M anipulation  |                                                 |
\*---------------------------------------------------------------------------*/
FoamFile
{
    version     2.0;
    format      ascii;
    class       volScalarField;
    location    "20000";
    object      nuTilda_0;
}
// * * * * * * * * * * * * * * * * * * * * * * * * * * * * * * * * * * * * * //

dimensions      [0 2 -1 0 0 0 0];


internalField   nonuniform List<scalar> 
3770
(
0.0004778241767260636
0.0004778241767260638
0.0004778241767260636
0.0004778241767260635
0.0004778241767260637
0.0004778241767260635
0.0004778241767260637
0.0004778241767260638
0.0004778241767260635
0.0004778241767260639
0.0004778241767260634
0.0004778241767260639
0.0004778241767260636
0.0004778241767260638
0.0004778241767260636
0.0004778241767260633
0.0004778241767260642
0.0004778241767260632
0.0004778241767260641
0.0004778241767260637
0.0004778241767260634
0.000477824176726064
0.0004778241767260633
0.0004778241767260636
0.0004778241767260636
0.0004778241767260635
0.0004778241767260636
0.0004778241767260636
0.0004778241767260636
0.0004778241767260639
0.000477824176726063
0.0004778241767260638
0.0004778241767260637
0.0004778241767260639
0.0004778241767260635
0.0004778241767260633
0.0004778241767260636
0.0004778241767260642
0.0004778241767260636
0.0004778241767260638
0.0004778241767260631
0.0004778241767260636
0.0004778241767260637
0.0004778241767260636
0.0004778241767260636
0.0004778241767260638
0.0004778241767260636
0.0004778241767260643
0.000477824176726063
0.0004778241767260637
0.0004778241767260637
0.000477824176726063
0.0004778241767260638
0.0004778241767260649
0.0004778241767260636
0.000477824176726063
0.000477824176726063
0.0004778241767260649
0.000313620258926957
0.0003136202589269577
0.0003136202589269579
0.0003136202589269579
0.0003136202589269578
0.0003136202589269578
0.0003136202589269575
0.0003136202589269574
0.0003136202589269575
0.0003136202589269581
0.0003136202589269574
0.0003136202589269578
0.000313620258926958
0.0003136202589269579
0.000313620258926958
0.0003136202589269579
0.0003136202589269579
0.0003136202589269575
0.0003136202589269585
0.0003136202589269574
0.0003136202589269577
0.0003136202589269581
0.0003136202589269573
0.0003136202589269573
0.0003136202589269574
0.0003136202589269575
0.0003136202589269573
0.0003136202589269577
0.0003136202589269583
0.0003136202589269577
0.0003136202589269569
0.0003136202589269574
0.0003136202589269578
0.0003136202589269575
0.0003136202589269574
0.0003136202589269574
0.0003136202589269582
0.0003136202589269581
0.0003136202589269572
0.000313620258926957
0.0003136202589269568
0.0003136202589269575
0.0003136202589269579
0.0003136202589269583
0.0003136202589269573
0.0003136202589269575
0.0003136202589269579
0.0003136202589269584
0.0003136202589269572
0.0003136202589269576
0.0003136202589269575
0.0003136202589269564
0.0003136202589269578
0.0003136202589269576
0.0003136202589269588
0.0003136202589269561
0.0003136202589269573
0.0003136202589269582
0.0005100143698606937
0.0005100143698606956
0.0005100143698606966
0.0005100143698606965
0.000510014369860696
0.0005100143698606968
0.0005100143698606956
0.0005100143698606948
0.0005100143698606958
0.0005100143698606969
0.0005100143698606954
0.0005100143698606958
0.0005100143698606968
0.0005100143698606959
0.0005100143698606964
0.0005100143698606969
0.0005100143698606957
0.0005100143698606953
0.0005100143698606977
0.0005100143698606958
0.0005100143698606965
0.0005100143698606963
0.0005100143698606953
0.0005100143698606954
0.0005100143698606947
0.0005100143698606957
0.0005100143698606957
0.000510014369860696
0.0005100143698606972
0.0005100143698606965
0.0005100143698606935
0.0005100143698606948
0.0005100143698606959
0.0005100143698606961
0.0005100143698606945
0.0005100143698606951
0.0005100143698606963
0.0005100143698606971
0.0005100143698606946
0.0005100143698606947
0.0005100143698606934
0.000510014369860696
0.0005100143698606969
0.0005100143698606981
0.0005100143698606948
0.0005100143698606948
0.000510014369860696
0.000510014369860698
0.0005100143698606944
0.000510014369860696
0.0005100143698606967
0.0005100143698606929
0.0005100143698606941
0.0005100143698606952
0.0005100143698606993
0.0005100143698606921
0.0005100143698606948
0.0005100143698606966
0.0007147228327064685
0.0007147228327064703
0.0007147228327064712
0.0007147228327064707
0.0007147228327064706
0.0007147228327064709
0.0007147228327064706
0.0007147228327064692
0.0007147228327064706
0.0007147228327064713
0.0007147228327064702
0.0007147228327064712
0.0007147228327064718
0.0007147228327064705
0.0007147228327064707
0.0007147228327064723
0.0007147228327064704
0.0007147228327064701
0.0007147228327064728
0.0007147228327064708
0.0007147228327064712
0.0007147228327064703
0.0007147228327064699
0.0007147228327064696
0.0007147228327064685
0.0007147228327064709
0.0007147228327064719
0.0007147228327064709
0.0007147228327064717
0.0007147228327064713
0.0007147228327064683
0.0007147228327064696
0.0007147228327064712
0.0007147228327064708
0.0007147228327064705
0.0007147228327064706
0.0007147228327064714
0.0007147228327064716
0.0007147228327064688
0.000714722832706469
0.000714722832706468
0.0007147228327064693
0.0007147228327064702
0.0007147228327064735
0.0007147228327064704
0.0007147228327064712
0.0007147228327064701
0.0007147228327064725
0.0007147228327064704
0.0007147228327064703
0.0007147228327064715
0.000714722832706467
0.0007147228327064701
0.0007147228327064685
0.0007147228327064745
0.0007147228327064663
0.00071472283270647
0.0007147228327064723
0.0009121694481852757
0.0009121694481852764
0.0009121694481852778
0.000912169448185277
0.0009121694481852773
0.0009121694481852776
0.0009121694481852776
0.0009121694481852759
0.0009121694481852778
0.0009121694481852776
0.0009121694481852774
0.0009121694481852778
0.0009121694481852787
0.0009121694481852772
0.0009121694481852771
0.0009121694481852786
0.0009121694481852772
0.0009121694481852771
0.0009121694481852806
0.0009121694481852775
0.0009121694481852774
0.0009121694481852767
0.0009121694481852767
0.0009121694481852767
0.0009121694481852752
0.0009121694481852783
0.0009121694481852791
0.0009121694481852774
0.0009121694481852789
0.000912169448185279
0.000912169448185275
0.0009121694481852762
0.000912169448185278
0.0009121694481852786
0.000912169448185278
0.0009121694481852776
0.0009121694481852777
0.0009121694481852784
0.0009121694481852759
0.0009121694481852752
0.0009121694481852744
0.0009121694481852756
0.0009121694481852773
0.0009121694481852808
0.0009121694481852781
0.0009121694481852778
0.0009121694481852777
0.0009121694481852793
0.0009121694481852781
0.0009121694481852765
0.0009121694481852769
0.0009121694481852749
0.0009121694481852756
0.0009121694481852764
0.0009121694481852802
0.0009121694481852729
0.0009121694481852772
0.0009121694481852787
0.001109658494373644
0.001109658494373644
0.001109658494373645
0.001109658494373645
0.001109658494373644
0.001109658494373645
0.001109658494373646
0.001109658494373644
0.001109658494373645
0.001109658494373646
0.001109658494373645
0.001109658494373644
0.001109658494373645
0.001109658494373643
0.001109658494373644
0.001109658494373646
0.001109658494373644
0.001109658494373645
0.001109658494373648
0.001109658494373645
0.001109658494373645
0.001109658494373645
0.001109658494373645
0.001109658494373646
0.001109658494373643
0.001109658494373647
0.001109658494373647
0.001109658494373645
0.001109658494373647
0.001109658494373646
0.001109658494373643
0.001109658494373644
0.001109658494373646
0.001109658494373646
0.001109658494373646
0.001109658494373646
0.001109658494373646
0.001109658494373646
0.001109658494373644
0.001109658494373644
0.00110965849437364
0.001109658494373643
0.001109658494373647
0.001109658494373649
0.001109658494373646
0.001109658494373648
0.001109658494373645
0.001109658494373647
0.001109658494373647
0.001109658494373644
0.001109658494373644
0.001109658494373643
0.001109658494373643
0.001109658494373645
0.001109658494373649
0.00110965849437364
0.001109658494373646
0.001109658494373647
0.001309345215840739
0.001309345215840738
0.00130934521584074
0.001309345215840741
0.001309345215840739
0.00130934521584074
0.001309345215840741
0.001309345215840738
0.001309345215840739
0.001309345215840741
0.00130934521584074
0.001309345215840739
0.001309345215840739
0.001309345215840738
0.001309345215840739
0.00130934521584074
0.00130934521584074
0.001309345215840741
0.001309345215840743
0.00130934521584074
0.00130934521584074
0.00130934521584074
0.00130934521584074
0.00130934521584074
0.00130934521584074
0.001309345215840742
0.001309345215840742
0.00130934521584074
0.001309345215840743
0.00130934521584074
0.001309345215840738
0.001309345215840739
0.001309345215840741
0.001309345215840741
0.001309345215840741
0.001309345215840742
0.001309345215840742
0.00130934521584074
0.001309345215840739
0.001309345215840738
0.001309345215840734
0.001309345215840738
0.001309345215840741
0.001309345215840745
0.001309345215840742
0.001309345215840744
0.001309345215840741
0.001309345215840742
0.001309345215840741
0.00130934521584074
0.001309345215840738
0.001309345215840739
0.001309345215840738
0.001309345215840741
0.001309345215840745
0.001309345215840735
0.001309345215840741
0.001309345215840743
0.001514030095868311
0.00151403009586831
0.00151403009586831
0.001514030095868312
0.001514030095868309
0.00151403009586831
0.001514030095868312
0.00151403009586831
0.00151403009586831
0.00151403009586831
0.001514030095868309
0.001514030095868309
0.001514030095868308
0.001514030095868308
0.001514030095868309
0.001514030095868309
0.00151403009586831
0.001514030095868312
0.001514030095868314
0.001514030095868312
0.001514030095868311
0.001514030095868312
0.001514030095868309
0.00151403009586831
0.001514030095868309
0.001514030095868313
0.001514030095868313
0.00151403009586831
0.001514030095868313
0.00151403009586831
0.001514030095868308
0.001514030095868311
0.001514030095868312
0.001514030095868312
0.00151403009586831
0.001514030095868312
0.001514030095868313
0.001514030095868309
0.00151403009586831
0.00151403009586831
0.001514030095868304
0.001514030095868309
0.001514030095868313
0.001514030095868317
0.001514030095868313
0.001514030095868315
0.00151403009586831
0.001514030095868312
0.001514030095868312
0.001514030095868311
0.001514030095868309
0.001514030095868309
0.001514030095868309
0.001514030095868312
0.001514030095868315
0.001514030095868307
0.001514030095868312
0.001514030095868313
0.001728792178510125
0.001728792178510125
0.001728792178510123
0.001728792178510125
0.001728792178510121
0.001728792178510123
0.001728792178510126
0.001728792178510124
0.001728792178510125
0.001728792178510124
0.001728792178510122
0.001728792178510123
0.001728792178510122
0.001728792178510123
0.001728792178510123
0.001728792178510123
0.001728792178510125
0.001728792178510127
0.001728792178510128
0.001728792178510126
0.001728792178510125
0.001728792178510126
0.001728792178510123
0.001728792178510123
0.001728792178510124
0.001728792178510129
0.001728792178510128
0.001728792178510126
0.001728792178510127
0.001728792178510125
0.001728792178510124
0.001728792178510126
0.001728792178510126
0.001728792178510126
0.001728792178510124
0.001728792178510127
0.001728792178510127
0.001728792178510124
0.001728792178510124
0.001728792178510124
0.001728792178510118
0.001728792178510124
0.001728792178510128
0.001728792178510132
0.001728792178510128
0.001728792178510131
0.001728792178510124
0.001728792178510126
0.001728792178510127
0.001728792178510126
0.001728792178510124
0.001728792178510123
0.001728792178510123
0.001728792178510126
0.00172879217851013
0.001728792178510122
0.001728792178510125
0.001728792178510126
0.001961808467287163
0.001961808467287163
0.001961808467287161
0.001961808467287163
0.001961808467287159
0.001961808467287162
0.001961808467287165
0.001961808467287163
0.001961808467287163
0.001961808467287161
0.00196180846728716
0.001961808467287161
0.00196180846728716
0.001961808467287161
0.001961808467287162
0.001961808467287159
0.001961808467287164
0.001961808467287168
0.001961808467287166
0.001961808467287165
0.001961808467287164
0.001961808467287165
0.00196180846728716
0.001961808467287161
0.001961808467287164
0.001961808467287168
0.001961808467287167
0.001961808467287165
0.001961808467287167
0.001961808467287163
0.001961808467287163
0.001961808467287164
0.001961808467287164
0.001961808467287164
0.001961808467287163
0.001961808467287167
0.001961808467287167
0.001961808467287163
0.001961808467287161
0.001961808467287163
0.001961808467287158
0.001961808467287162
0.001961808467287168
0.001961808467287171
0.001961808467287169
0.00196180846728717
0.001961808467287164
0.001961808467287164
0.001961808467287166
0.001961808467287167
0.001961808467287163
0.00196180846728716
0.001961808467287162
0.001961808467287166
0.00196180846728717
0.001961808467287163
0.001961808467287164
0.001961808467287165
0.002224433535540313
0.002224433535540313
0.002224433535540312
0.002224433535540312
0.002224433535540309
0.002224433535540312
0.002224433535540316
0.002224433535540314
0.002224433535540314
0.002224433535540311
0.00222443353554031
0.002224433535540311
0.002224433535540311
0.002224433535540311
0.002224433535540313
0.002224433535540309
0.002224433535540316
0.002224433535540319
0.002224433535540316
0.002224433535540317
0.002224433535540315
0.002224433535540315
0.002224433535540311
0.002224433535540311
0.002224433535540317
0.00222443353554032
0.002224433535540317
0.002224433535540317
0.002224433535540319
0.002224433535540312
0.002224433535540312
0.002224433535540315
0.002224433535540314
0.002224433535540315
0.002224433535540313
0.002224433535540318
0.002224433535540319
0.002224433535540313
0.002224433535540311
0.002224433535540313
0.002224433535540309
0.002224433535540312
0.002224433535540319
0.002224433535540323
0.002224433535540319
0.002224433535540321
0.002224433535540314
0.002224433535540316
0.002224433535540316
0.002224433535540318
0.002224433535540312
0.002224433535540311
0.002224433535540314
0.002224433535540319
0.002224433535540321
0.002224433535540315
0.002224433535540316
0.002224433535540315
0.00253005928867799
0.002530059288677988
0.002530059288677988
0.002530059288677987
0.002530059288677986
0.002530059288677989
0.002530059288677992
0.00253005928867799
0.00253005928867799
0.002530059288677987
0.002530059288677987
0.002530059288677987
0.002530059288677987
0.002530059288677986
0.002530059288677988
0.002530059288677985
0.002530059288677993
0.002530059288677996
0.002530059288677993
0.002530059288677995
0.002530059288677992
0.002530059288677993
0.002530059288677987
0.002530059288677988
0.002530059288677995
0.002530059288677998
0.002530059288677993
0.002530059288677993
0.002530059288677996
0.002530059288677989
0.002530059288677989
0.002530059288677992
0.002530059288677992
0.002530059288677992
0.002530059288677987
0.002530059288677994
0.002530059288677996
0.002530059288677988
0.002530059288677985
0.002530059288677988
0.002530059288677985
0.002530059288677988
0.002530059288677996
0.002530059288678002
0.002530059288677997
0.002530059288677998
0.00253005928867799
0.002530059288677992
0.002530059288677993
0.002530059288677994
0.002530059288677988
0.002530059288677987
0.002530059288677993
0.002530059288677998
0.002530059288677998
0.002530059288677992
0.002530059288677992
0.002530059288677992
0.002891456927676688
0.002891456927676683
0.002891456927676683
0.00289145692767668
0.002891456927676682
0.002891456927676686
0.002891456927676686
0.002891456927676685
0.002891456927676685
0.002891456927676683
0.002891456927676682
0.002891456927676683
0.002891456927676682
0.002891456927676681
0.002891456927676683
0.002891456927676679
0.002891456927676689
0.002891456927676693
0.002891456927676689
0.002891456927676691
0.002891456927676688
0.002891456927676688
0.002891456927676683
0.002891456927676685
0.002891456927676692
0.002891456927676692
0.002891456927676687
0.002891456927676688
0.002891456927676692
0.002891456927676686
0.002891456927676686
0.002891456927676688
0.002891456927676687
0.002891456927676687
0.002891456927676683
0.002891456927676689
0.002891456927676692
0.002891456927676683
0.002891456927676681
0.002891456927676682
0.00289145692767668
0.002891456927676684
0.002891456927676693
0.002891456927676699
0.002891456927676694
0.002891456927676695
0.002891456927676687
0.002891456927676687
0.002891456927676688
0.002891456927676691
0.002891456927676683
0.002891456927676683
0.002891456927676688
0.002891456927676696
0.002891456927676697
0.002891456927676687
0.00289145692767669
0.002891456927676687
0.00331700036985765
0.003317000369857647
0.003317000369857647
0.003317000369857643
0.003317000369857646
0.003317000369857648
0.00331700036985765
0.003317000369857648
0.003317000369857648
0.003317000369857648
0.003317000369857646
0.003317000369857646
0.003317000369857644
0.003317000369857645
0.003317000369857645
0.003317000369857642
0.00331700036985765
0.003317000369857657
0.003317000369857652
0.003317000369857653
0.003317000369857653
0.003317000369857652
0.003317000369857648
0.00331700036985765
0.003317000369857655
0.003317000369857656
0.003317000369857651
0.003317000369857653
0.003317000369857655
0.003317000369857648
0.003317000369857651
0.003317000369857653
0.003317000369857651
0.003317000369857649
0.003317000369857648
0.003317000369857653
0.003317000369857656
0.003317000369857647
0.003317000369857647
0.003317000369857643
0.003317000369857643
0.003317000369857649
0.003317000369857658
0.003317000369857665
0.003317000369857658
0.00331700036985766
0.003317000369857653
0.003317000369857652
0.003317000369857652
0.003317000369857655
0.003317000369857646
0.003317000369857647
0.003317000369857657
0.003317000369857662
0.003317000369857662
0.003317000369857651
0.003317000369857652
0.00331700036985765
0.003807071284849782
0.00380707128484978
0.00380707128484978
0.003807071284849776
0.003807071284849779
0.003807071284849781
0.003807071284849782
0.003807071284849779
0.00380707128484978
0.003807071284849781
0.00380707128484978
0.003807071284849779
0.003807071284849778
0.003807071284849778
0.003807071284849777
0.003807071284849772
0.003807071284849781
0.003807071284849789
0.003807071284849787
0.003807071284849782
0.003807071284849786
0.003807071284849786
0.003807071284849782
0.003807071284849783
0.003807071284849788
0.003807071284849788
0.003807071284849783
0.003807071284849784
0.003807071284849787
0.003807071284849781
0.003807071284849786
0.003807071284849786
0.003807071284849785
0.003807071284849781
0.003807071284849779
0.003807071284849787
0.003807071284849788
0.00380707128484978
0.003807071284849781
0.003807071284849774
0.003807071284849776
0.003807071284849787
0.003807071284849793
0.003807071284849796
0.003807071284849791
0.003807071284849794
0.003807071284849785
0.003807071284849787
0.003807071284849787
0.003807071284849789
0.003807071284849778
0.003807071284849781
0.003807071284849794
0.003807071284849796
0.003807071284849793
0.003807071284849785
0.003807071284849783
0.003807071284849781
0.004352396997174788
0.004352396997174788
0.004352396997174789
0.004352396997174786
0.004352396997174785
0.004352396997174787
0.004352396997174787
0.004352396997174787
0.004352396997174787
0.004352396997174788
0.004352396997174786
0.004352396997174787
0.004352396997174786
0.004352396997174786
0.004352396997174786
0.004352396997174779
0.004352396997174785
0.004352396997174795
0.004352396997174796
0.004352396997174789
0.004352396997174796
0.004352396997174796
0.004352396997174791
0.004352396997174795
0.004352396997174796
0.004352396997174796
0.004352396997174793
0.004352396997174792
0.004352396997174794
0.004352396997174791
0.004352396997174793
0.004352396997174792
0.004352396997174793
0.004352396997174791
0.004352396997174789
0.004352396997174795
0.004352396997174797
0.004352396997174789
0.004352396997174792
0.004352396997174782
0.004352396997174786
0.004352396997174801
0.004352396997174805
0.004352396997174802
0.0043523969971748
0.004352396997174802
0.004352396997174792
0.004352396997174797
0.004352396997174798
0.004352396997174802
0.004352396997174789
0.004352396997174793
0.004352396997174807
0.004352396997174807
0.004352396997174804
0.004352396997174796
0.004352396997174792
0.004352396997174788
0.004935442360807548
0.004935442360807545
0.004935442360807549
0.004935442360807547
0.004935442360807548
0.004935442360807549
0.004935442360807546
0.004935442360807546
0.004935442360807546
0.004935442360807544
0.004935442360807544
0.004935442360807544
0.004935442360807543
0.004935442360807544
0.004935442360807544
0.004935442360807536
0.004935442360807541
0.004935442360807553
0.004935442360807557
0.004935442360807549
0.004935442360807557
0.004935442360807557
0.00493544236080755
0.00493544236080755
0.004935442360807554
0.004935442360807556
0.004935442360807553
0.004935442360807551
0.00493544236080755
0.004935442360807548
0.004935442360807551
0.004935442360807551
0.004935442360807553
0.00493544236080755
0.004935442360807547
0.004935442360807553
0.004935442360807557
0.004935442360807551
0.004935442360807552
0.004935442360807543
0.004935442360807548
0.00493544236080756
0.004935442360807564
0.004935442360807563
0.004935442360807558
0.004935442360807558
0.004935442360807552
0.004935442360807557
0.004935442360807559
0.004935442360807564
0.004935442360807551
0.004935442360807555
0.004935442360807567
0.004935442360807565
0.004935442360807567
0.004935442360807554
0.004935442360807555
0.004935442360807551
0.005534398828594934
0.005534398828594931
0.005534398828594938
0.005534398828594934
0.005534398828594933
0.005534398828594935
0.005534398828594935
0.005534398828594933
0.005534398828594934
0.005534398828594932
0.005534398828594931
0.005534398828594929
0.005534398828594926
0.005534398828594926
0.005534398828594928
0.00553439882859492
0.005534398828594927
0.005534398828594938
0.005534398828594945
0.005534398828594935
0.005534398828594943
0.005534398828594946
0.005534398828594939
0.005534398828594936
0.005534398828594939
0.005534398828594942
0.005534398828594938
0.005534398828594938
0.005534398828594939
0.005534398828594934
0.005534398828594935
0.005534398828594935
0.005534398828594938
0.005534398828594939
0.005534398828594931
0.005534398828594938
0.005534398828594943
0.005534398828594938
0.005534398828594937
0.00553439882859493
0.005534398828594939
0.005534398828594948
0.00553439882859495
0.005534398828594949
0.005534398828594947
0.005534398828594947
0.005534398828594939
0.005534398828594939
0.005534398828594946
0.005534398828594949
0.005534398828594938
0.005534398828594942
0.005534398828594954
0.005534398828594959
0.005534398828594958
0.005534398828594942
0.005534398828594943
0.005534398828594938
0.006127919806587017
0.006127919806587013
0.006127919806587017
0.006127919806587015
0.006127919806587013
0.006127919806587011
0.006127919806587013
0.006127919806587014
0.006127919806587012
0.006127919806587012
0.006127919806587009
0.006127919806587006
0.006127919806587005
0.006127919806587005
0.006127919806587006
0.006127919806587002
0.006127919806587006
0.006127919806587018
0.006127919806587022
0.006127919806587015
0.006127919806587025
0.006127919806587024
0.006127919806587017
0.006127919806587014
0.006127919806587017
0.00612791980658702
0.006127919806587018
0.006127919806587018
0.006127919806587017
0.006127919806587011
0.006127919806587012
0.006127919806587013
0.006127919806587018
0.006127919806587014
0.006127919806587011
0.006127919806587016
0.006127919806587021
0.006127919806587017
0.006127919806587016
0.00612791980658701
0.006127919806587022
0.006127919806587028
0.00612791980658703
0.00612791980658703
0.006127919806587025
0.006127919806587029
0.00612791980658702
0.006127919806587022
0.006127919806587026
0.006127919806587027
0.006127919806587018
0.00612791980658702
0.006127919806587037
0.006127919806587041
0.00612791980658704
0.006127919806587023
0.006127919806587025
0.006127919806587022
0.006698650654530427
0.006698650654530423
0.006698650654530425
0.006698650654530425
0.006698650654530423
0.006698650654530422
0.006698650654530422
0.006698650654530422
0.00669865065453042
0.006698650654530422
0.006698650654530419
0.006698650654530417
0.006698650654530412
0.006698650654530416
0.006698650654530418
0.006698650654530413
0.006698650654530414
0.006698650654530424
0.006698650654530429
0.006698650654530423
0.006698650654530431
0.00669865065453043
0.006698650654530426
0.006698650654530423
0.006698650654530424
0.006698650654530429
0.006698650654530429
0.006698650654530424
0.006698650654530422
0.006698650654530419
0.006698650654530419
0.006698650654530421
0.006698650654530428
0.006698650654530424
0.006698650654530422
0.006698650654530426
0.006698650654530425
0.006698650654530426
0.006698650654530427
0.006698650654530422
0.00669865065453043
0.006698650654530438
0.00669865065453044
0.006698650654530437
0.006698650654530434
0.006698650654530434
0.006698650654530429
0.006698650654530437
0.006698650654530432
0.006698650654530434
0.006698650654530429
0.00669865065453043
0.006698650654530447
0.006698650654530452
0.006698650654530454
0.006698650654530438
0.00669865065453044
0.006698650654530437
0.007234668539760723
0.007234668539760718
0.007234668539760714
0.007234668539760718
0.007234668539760713
0.00723466853976071
0.007234668539760713
0.007234668539760711
0.007234668539760711
0.007234668539760715
0.007234668539760712
0.007234668539760708
0.007234668539760704
0.007234668539760706
0.007234668539760709
0.007234668539760705
0.007234668539760705
0.007234668539760716
0.007234668539760716
0.007234668539760711
0.007234668539760716
0.007234668539760719
0.007234668539760718
0.007234668539760716
0.007234668539760716
0.007234668539760718
0.00723466853976072
0.007234668539760716
0.007234668539760713
0.00723466853976071
0.007234668539760706
0.007234668539760708
0.007234668539760713
0.007234668539760718
0.007234668539760716
0.007234668539760716
0.007234668539760711
0.007234668539760717
0.00723466853976072
0.007234668539760716
0.007234668539760719
0.007234668539760731
0.007234668539760731
0.007234668539760729
0.007234668539760726
0.007234668539760728
0.007234668539760724
0.007234668539760728
0.007234668539760721
0.007234668539760724
0.00723466853976072
0.007234668539760721
0.007234668539760737
0.007234668539760747
0.007234668539760747
0.007234668539760733
0.007234668539760733
0.007234668539760731
0.007729130995208671
0.007729130995208663
0.007729130995208663
0.007729130995208663
0.007729130995208661
0.007729130995208656
0.007729130995208658
0.007729130995208654
0.007729130995208655
0.007729130995208659
0.007729130995208658
0.007729130995208652
0.007729130995208649
0.007729130995208651
0.007729130995208654
0.007729130995208649
0.00772913099520865
0.00772913099520866
0.00772913099520866
0.007729130995208658
0.007729130995208658
0.007729130995208662
0.007729130995208664
0.007729130995208659
0.007729130995208662
0.007729130995208661
0.007729130995208665
0.007729130995208662
0.00772913099520866
0.007729130995208659
0.007729130995208652
0.007729130995208655
0.007729130995208659
0.007729130995208663
0.007729130995208661
0.007729130995208662
0.007729130995208657
0.007729130995208663
0.007729130995208666
0.007729130995208658
0.007729130995208664
0.007729130995208672
0.007729130995208677
0.007729130995208672
0.007729130995208675
0.007729130995208673
0.007729130995208672
0.007729130995208675
0.007729130995208668
0.007729130995208671
0.007729130995208668
0.007729130995208671
0.007729130995208684
0.007729130995208695
0.007729130995208693
0.007729130995208684
0.007729130995208682
0.007729130995208679
0.008178987209967663
0.008178987209967653
0.00817898720996765
0.00817898720996765
0.008178987209967646
0.008178987209967643
0.008178987209967644
0.008178987209967637
0.008178987209967641
0.008178987209967646
0.008178987209967644
0.008178987209967639
0.008178987209967636
0.008178987209967636
0.008178987209967641
0.008178987209967634
0.008178987209967637
0.008178987209967644
0.008178987209967644
0.008178987209967641
0.008178987209967644
0.008178987209967648
0.008178987209967648
0.008178987209967646
0.008178987209967648
0.008178987209967644
0.008178987209967646
0.008178987209967648
0.008178987209967648
0.008178987209967648
0.008178987209967639
0.008178987209967644
0.008178987209967646
0.008178987209967648
0.008178987209967644
0.008178987209967646
0.008178987209967641
0.008178987209967648
0.008178987209967651
0.008178987209967648
0.008178987209967651
0.00817898720996766
0.008178987209967662
0.008178987209967662
0.008178987209967662
0.008178987209967658
0.00817898720996766
0.008178987209967658
0.008178987209967655
0.008178987209967657
0.008178987209967658
0.008178987209967658
0.008178987209967669
0.008178987209967679
0.008178987209967683
0.008178987209967674
0.008178987209967674
0.00817898720996767
0.008583535800074177
0.008583535800074166
0.008583535800074161
0.008583535800074161
0.008583535800074156
0.008583535800074154
0.008583535800074153
0.008583535800074147
0.008583535800074151
0.008583535800074151
0.008583535800074154
0.008583535800074151
0.008583535800074146
0.008583535800074147
0.008583535800074149
0.008583535800074146
0.008583535800074149
0.008583535800074156
0.008583535800074153
0.008583535800074151
0.008583535800074154
0.008583535800074156
0.008583535800074156
0.008583535800074159
0.008583535800074158
0.008583535800074156
0.008583535800074158
0.008583535800074159
0.008583535800074158
0.008583535800074158
0.008583535800074151
0.008583535800074159
0.008583535800074154
0.008583535800074158
0.008583535800074158
0.008583535800074158
0.008583535800074153
0.008583535800074158
0.008583535800074165
0.008583535800074159
0.008583535800074161
0.008583535800074168
0.008583535800074172
0.008583535800074172
0.008583535800074175