/*--------------------------------*- C++ -*----------------------------------*\
| =========                 |                                                 |
| \\      /  F ield         | OpenFOAM: The Open Source CFD Toolbox           |
|  \\    /   O peration     | Version:  v1812                                 |
|   \\  /    A nd           | Web:      www.OpenFOAM.com                      |
|    \\/     M anipulation  |                                                 |
\*---------------------------------------------------------------------------*/
FoamFile
{
    version     2.0;
    format      ascii;
    class       volScalarField;
    location    "20000";
    object      nuTilda;
}
// * * * * * * * * * * * * * * * * * * * * * * * * * * * * * * * * * * * * * //

dimensions      [0 2 -1 0 0 0 0];


internalField   nonuniform List<scalar> 
3770
(
0.0004778241767260635
0.0004778241767260636
0.0004778241767260635
0.0004778241767260636
0.0004778241767260637
0.0004778241767260636
0.0004778241767260637
0.0004778241767260636
0.0004778241767260635
0.0004778241767260638
0.0004778241767260634
0.0004778241767260638
0.0004778241767260636
0.0004778241767260638
0.0004778241767260635
0.0004778241767260633
0.0004778241767260641
0.0004778241767260632
0.0004778241767260642
0.0004778241767260636
0.0004778241767260634
0.000477824176726064
0.0004778241767260634
0.0004778241767260636
0.0004778241767260637
0.0004778241767260636
0.0004778241767260636
0.0004778241767260637
0.0004778241767260637
0.000477824176726064
0.0004778241767260629
0.0004778241767260639
0.0004778241767260636
0.0004778241767260639
0.0004778241767260637
0.0004778241767260634
0.0004778241767260638
0.0004778241767260641
0.0004778241767260636
0.0004778241767260636
0.000477824176726063
0.0004778241767260636
0.0004778241767260637
0.0004778241767260635
0.0004778241767260636
0.0004778241767260636
0.0004778241767260636
0.0004778241767260642
0.000477824176726063
0.0004778241767260636
0.0004778241767260636
0.0004778241767260631
0.0004778241767260637
0.0004778241767260649
0.0004778241767260636
0.000477824176726063
0.000477824176726063
0.0004778241767260649
0.000313620258926952
0.0003136202589269526
0.0003136202589269527
0.0003136202589269524
0.0003136202589269527
0.0003136202589269527
0.0003136202589269524
0.0003136202589269524
0.0003136202589269523
0.000313620258926953
0.0003136202589269523
0.0003136202589269527
0.000313620258926953
0.0003136202589269525
0.0003136202589269527
0.0003136202589269527
0.0003136202589269529
0.0003136202589269523
0.0003136202589269534
0.0003136202589269524
0.0003136202589269525
0.0003136202589269529
0.0003136202589269523
0.0003136202589269522
0.0003136202589269524
0.0003136202589269525
0.0003136202589269522
0.0003136202589269524
0.0003136202589269532
0.0003136202589269527
0.0003136202589269518
0.0003136202589269523
0.0003136202589269528
0.0003136202589269527
0.0003136202589269523
0.0003136202589269523
0.0003136202589269531
0.000313620258926953
0.000313620258926952
0.000313620258926952
0.0003136202589269518
0.0003136202589269524
0.0003136202589269529
0.0003136202589269533
0.0003136202589269523
0.0003136202589269524
0.0003136202589269528
0.0003136202589269534
0.000313620258926952
0.0003136202589269526
0.0003136202589269524
0.0003136202589269514
0.0003136202589269528
0.0003136202589269527
0.0003136202589269537
0.0003136202589269511
0.0003136202589269523
0.0003136202589269533
0.0005100143698606781
0.0005100143698606797
0.0005100143698606806
0.00051001436986068
0.0005100143698606802
0.0005100143698606805
0.0005100143698606797
0.0005100143698606791
0.0005100143698606792
0.0005100143698606812
0.0005100143698606798
0.0005100143698606796
0.0005100143698606811
0.0005100143698606798
0.0005100143698606802
0.0005100143698606805
0.0005100143698606802
0.0005100143698606793
0.0005100143698606815
0.0005100143698606801
0.0005100143698606803
0.0005100143698606794
0.00051001436986068
0.0005100143698606798
0.0005100143698606791
0.0005100143698606799
0.0005100143698606799
0.0005100143698606794
0.0005100143698606812
0.0005100143698606806
0.0005100143698606776
0.000510014369860679
0.0005100143698606803
0.0005100143698606809
0.000510014369860679
0.0005100143698606797
0.0005100143698606804
0.0005100143698606814
0.0005100143698606786
0.0005100143698606789
0.0005100143698606778
0.00051001436986068
0.0005100143698606809
0.0005100143698606817
0.0005100143698606793
0.0005100143698606789
0.0005100143698606802
0.0005100143698606819
0.0005100143698606785
0.0005100143698606808
0.0005100143698606805
0.0005100143698606771
0.0005100143698606788
0.0005100143698606796
0.0005100143698606829
0.0005100143698606763
0.0005100143698606794
0.0005100143698606811
0.0007147228327064487
0.0007147228327064501
0.0007147228327064512
0.0007147228327064509
0.0007147228327064508
0.0007147228327064511
0.0007147228327064508
0.0007147228327064496
0.0007147228327064509
0.0007147228327064512
0.0007147228327064504
0.000714722832706451
0.0007147228327064519
0.0007147228327064502
0.0007147228327064509
0.0007147228327064524
0.0007147228327064507
0.0007147228327064506
0.0007147228327064532
0.0007147228327064514
0.0007147228327064511
0.0007147228327064501
0.0007147228327064504
0.0007147228327064499
0.0007147228327064489
0.0007147228327064512
0.0007147228327064522
0.0007147228327064509
0.000714722832706452
0.0007147228327064511
0.0007147228327064486
0.0007147228327064499
0.0007147228327064515
0.0007147228327064512
0.0007147228327064501
0.0007147228327064503
0.0007147228327064519
0.0007147228327064524
0.0007147228327064491
0.0007147228327064491
0.0007147228327064479
0.0007147228327064494
0.0007147228327064507
0.000714722832706454
0.0007147228327064508
0.0007147228327064515
0.0007147228327064503
0.0007147228327064528
0.0007147228327064506
0.000714722832706451
0.0007147228327064512
0.000714722832706447
0.0007147228327064506
0.0007147228327064491
0.0007147228327064545
0.0007147228327064456
0.0007147228327064501
0.0007147228327064522
0.0009121694481852515
0.0009121694481852519
0.0009121694481852535
0.0009121694481852525
0.0009121694481852528
0.0009121694481852537
0.0009121694481852536
0.0009121694481852525
0.0009121694481852538
0.0009121694481852531
0.0009121694481852529
0.0009121694481852532
0.0009121694481852544
0.0009121694481852528
0.0009121694481852537
0.0009121694481852546
0.0009121694481852529
0.0009121694481852535
0.0009121694481852561
0.000912169448185253
0.0009121694481852532
0.000912169448185253
0.0009121694481852527
0.0009121694481852529
0.000912169448185251
0.0009121694481852539
0.0009121694481852545
0.000912169448185253
0.0009121694481852548
0.0009121694481852541
0.0009121694481852507
0.0009121694481852514
0.0009121694481852541
0.000912169448185254
0.0009121694481852536
0.0009121694481852537
0.0009121694481852541
0.0009121694481852544
0.000912169448185252
0.0009121694481852514
0.00091216944818525
0.000912169448185251
0.0009121694481852533
0.0009121694481852569
0.0009121694481852539
0.000912169448185254
0.0009121694481852536
0.0009121694481852551
0.0009121694481852536
0.0009121694481852527
0.0009121694481852521
0.0009121694481852504
0.0009121694481852514
0.0009121694481852525
0.0009121694481852561
0.0009121694481852479
0.0009121694481852529
0.000912169448185255
0.001109658494373615
0.001109658494373615
0.001109658494373616
0.001109658494373616
0.001109658494373616
0.001109658494373617
0.001109658494373617
0.001109658494373616
0.001109658494373617
0.001109658494373617
0.001109658494373616
0.001109658494373616
0.001109658494373616
0.001109658494373615
0.001109658494373616
0.001109658494373617
0.001109658494373616
0.001109658494373618
0.00110965849437362
0.001109658494373616
0.001109658494373617
0.001109658494373616
0.001109658494373616
0.001109658494373617
0.001109658494373615
0.001109658494373618
0.001109658494373618
0.001109658494373617
0.001109658494373619
0.001109658494373617
0.001109658494373614
0.001109658494373615
0.001109658494373618
0.001109658494373618
0.001109658494373618
0.001109658494373617
0.001109658494373618
0.001109658494373617
0.001109658494373615
0.001109658494373615
0.001109658494373612
0.001109658494373613
0.001109658494373618
0.001109658494373621
0.001109658494373618
0.001109658494373619
0.001109658494373617
0.001109658494373618
0.001109658494373617
0.001109658494373616
0.001109658494373615
0.001109658494373614
0.001109658494373614
0.001109658494373617
0.00110965849437362
0.001109658494373611
0.001109658494373617
0.001109658494373619
0.001309345215840706
0.001309345215840706
0.001309345215840707
0.001309345215840708
0.001309345215840705
0.001309345215840707
0.001309345215840708
0.001309345215840706
0.001309345215840707
0.001309345215840708
0.001309345215840706
0.001309345215840707
0.001309345215840706
0.001309345215840705
0.001309345215840707
0.001309345215840707
0.001309345215840707
0.001309345215840709
0.001309345215840711
0.001309345215840707
0.001309345215840708
0.001309345215840708
0.001309345215840707
0.001309345215840707
0.001309345215840706
0.00130934521584071
0.001309345215840709
0.001309345215840708
0.00130934521584071
0.001309345215840707
0.001309345215840705
0.001309345215840706
0.001309345215840709
0.001309345215840708
0.001309345215840708
0.001309345215840709
0.00130934521584071
0.001309345215840707
0.001309345215840705
0.001309345215840706
0.001309345215840701
0.001309345215840706
0.001309345215840709
0.001309345215840713
0.00130934521584071
0.001309345215840712
0.001309345215840707
0.00130934521584071
0.001309345215840707
0.001309345215840707
0.001309345215840706
0.001309345215840705
0.001309345215840705
0.001309345215840708
0.001309345215840712
0.001309345215840703
0.001309345215840707
0.00130934521584071
0.001514030095868274
0.001514030095868274
0.001514030095868273
0.001514030095868274
0.001514030095868271
0.001514030095868273
0.001514030095868276
0.001514030095868273
0.001514030095868274
0.001514030095868274
0.001514030095868273
0.001514030095868273
0.001514030095868271
0.001514030095868272
0.001514030095868272
0.001514030095868272
0.001514030095868273
0.001514030095868276
0.001514030095868278
0.001514030095868275
0.001514030095868275
0.001514030095868276
0.001514030095868273
0.001514030095868273
0.001514030095868273
0.001514030095868276
0.001514030095868276
0.001514030095868275
0.001514030095868276
0.001514030095868274
0.001514030095868272
0.001514030095868274
0.001514030095868276
0.001514030095868276
0.001514030095868274
0.001514030095868275
0.001514030095868276
0.001514030095868274
0.001514030095868273
0.001514030095868274
0.001514030095868268
0.001514030095868273
0.001514030095868276
0.00151403009586828
0.001514030095868277
0.001514030095868279
0.001514030095868274
0.001514030095868276
0.001514030095868275
0.001514030095868274
0.001514030095868273
0.001514030095868272
0.001514030095868272
0.001514030095868275
0.001514030095868279
0.00151403009586827
0.001514030095868275
0.001514030095868276
0.001728792178510085
0.001728792178510084
0.001728792178510083
0.001728792178510084
0.001728792178510081
0.001728792178510083
0.001728792178510086
0.001728792178510084
0.001728792178510084
0.001728792178510084
0.001728792178510083
0.001728792178510081
0.001728792178510081
0.001728792178510082
0.001728792178510083
0.001728792178510082
0.001728792178510084
0.001728792178510087
0.001728792178510087
0.001728792178510085
0.001728792178510086
0.001728792178510086
0.001728792178510082
0.001728792178510082
0.001728792178510085
0.001728792178510088
0.001728792178510087
0.001728792178510085
0.001728792178510087
0.001728792178510085
0.001728792178510082
0.001728792178510085
0.001728792178510086
0.001728792178510086
0.001728792178510084
0.001728792178510087
0.001728792178510086
0.001728792178510084
0.001728792178510083
0.001728792178510083
0.001728792178510078
0.001728792178510083
0.001728792178510087
0.001728792178510092
0.001728792178510087
0.001728792178510091
0.001728792178510084
0.001728792178510086
0.001728792178510087
0.001728792178510085
0.001728792178510083
0.001728792178510082
0.001728792178510082
0.001728792178510086
0.001728792178510091
0.001728792178510082
0.001728792178510085
0.001728792178510086
0.00196180846728712
0.00196180846728712
0.001961808467287117
0.001961808467287118
0.001961808467287114
0.001961808467287118
0.001961808467287121
0.001961808467287119
0.001961808467287119
0.001961808467287118
0.001961808467287117
0.001961808467287116
0.001961808467287116
0.001961808467287116
0.001961808467287118
0.001961808467287115
0.00196180846728712
0.001961808467287123
0.001961808467287122
0.001961808467287122
0.00196180846728712
0.001961808467287121
0.001961808467287116
0.001961808467287117
0.001961808467287121
0.001961808467287122
0.001961808467287122
0.001961808467287121
0.001961808467287122
0.001961808467287119
0.001961808467287118
0.00196180846728712
0.001961808467287121
0.001961808467287121
0.001961808467287119
0.001961808467287122
0.001961808467287123
0.00196180846728712
0.001961808467287118
0.001961808467287118
0.001961808467287114
0.001961808467287117
0.001961808467287123
0.001961808467287127
0.001961808467287124
0.001961808467287126
0.001961808467287119
0.001961808467287121
0.001961808467287122
0.001961808467287122
0.001961808467287118
0.001961808467287116
0.001961808467287119
0.001961808467287122
0.001961808467287126
0.001961808467287119
0.00196180846728712
0.001961808467287122
0.002224433535540266
0.002224433535540266
0.002224433535540265
0.002224433535540265
0.002224433535540261
0.002224433535540263
0.002224433535540268
0.002224433535540266
0.002224433535540265
0.002224433535540264
0.002224433535540263
0.002224433535540262
0.002224433535540263
0.002224433535540263
0.002224433535540265
0.002224433535540261
0.002224433535540268
0.002224433535540271
0.002224433535540268
0.002224433535540269
0.002224433535540267
0.002224433535540268
0.002224433535540262
0.002224433535540263
0.00222443353554027
0.002224433535540271
0.002224433535540269
0.002224433535540269
0.002224433535540271
0.002224433535540265
0.002224433535540265
0.002224433535540267
0.002224433535540268
0.002224433535540268
0.002224433535540264
0.00222443353554027
0.002224433535540271
0.002224433535540265
0.002224433535540264
0.002224433535540264
0.002224433535540261
0.002224433535540263
0.002224433535540271
0.002224433535540276
0.002224433535540271
0.002224433535540272
0.002224433535540266
0.002224433535540267
0.002224433535540269
0.00222443353554027
0.002224433535540264
0.002224433535540263
0.002224433535540267
0.002224433535540271
0.002224433535540273
0.002224433535540266
0.002224433535540268
0.002224433535540267
0.002530059288677939
0.002530059288677937
0.002530059288677936
0.002530059288677935
0.002530059288677933
0.002530059288677936
0.002530059288677939
0.002530059288677938
0.002530059288677937
0.002530059288677936
0.002530059288677936
0.002530059288677935
0.002530059288677936
0.002530059288677935
0.002530059288677936
0.002530059288677933
0.002530059288677942
0.002530059288677945
0.002530059288677941
0.002530059288677942
0.002530059288677939
0.002530059288677941
0.002530059288677935
0.002530059288677936
0.002530059288677943
0.002530059288677945
0.002530059288677941
0.00253005928867794
0.002530059288677944
0.002530059288677938
0.002530059288677937
0.00253005928867794
0.00253005928867794
0.002530059288677941
0.002530059288677934
0.002530059288677941
0.002530059288677944
0.002530059288677937
0.002530059288677934
0.002530059288677935
0.002530059288677933
0.002530059288677936
0.002530059288677944
0.002530059288677951
0.002530059288677945
0.002530059288677945
0.002530059288677938
0.002530059288677939
0.002530059288677942
0.002530059288677942
0.002530059288677936
0.002530059288677936
0.002530059288677941
0.002530059288677946
0.002530059288677946
0.002530059288677939
0.002530059288677942
0.002530059288677939
0.002891456927676631
0.002891456927676627
0.002891456927676627
0.002891456927676625
0.002891456927676624
0.002891456927676629
0.00289145692767663
0.00289145692767663
0.002891456927676627
0.002891456927676628
0.002891456927676627
0.002891456927676627
0.002891456927676626
0.002891456927676626
0.002891456927676626
0.002891456927676622
0.002891456927676632
0.002891456927676636
0.002891456927676633
0.002891456927676634
0.002891456927676631
0.002891456927676632
0.002891456927676626
0.002891456927676629
0.002891456927676636
0.002891456927676635
0.002891456927676631
0.002891456927676632
0.002891456927676636
0.002891456927676629
0.002891456927676631
0.002891456927676633
0.002891456927676631
0.002891456927676631
0.002891456927676626
0.002891456927676634
0.002891456927676635
0.002891456927676628
0.002891456927676627
0.002891456927676625
0.002891456927676624
0.002891456927676628
0.002891456927676637
0.002891456927676644
0.002891456927676638
0.002891456927676638
0.00289145692767663
0.002891456927676631
0.002891456927676633
0.002891456927676634
0.002891456927676627
0.002891456927676627
0.002891456927676634
0.002891456927676641
0.00289145692767664
0.00289145692767663
0.002891456927676634
0.002891456927676632
0.00331700036985759
0.003317000369857587
0.003317000369857587
0.003317000369857585
0.003317000369857584
0.003317000369857587
0.003317000369857589
0.003317000369857589
0.003317000369857587
0.003317000369857586
0.003317000369857587
0.003317000369857586
0.003317000369857583
0.003317000369857585
0.003317000369857585
0.003317000369857582
0.00331700036985759
0.003317000369857596
0.003317000369857591
0.003317000369857592
0.003317000369857592
0.003317000369857593
0.003317000369857587
0.003317000369857589
0.003317000369857596
0.003317000369857596
0.00331700036985759
0.003317000369857592
0.003317000369857594
0.003317000369857587
0.003317000369857591
0.003317000369857593
0.00331700036985759
0.003317000369857589
0.003317000369857587
0.003317000369857594
0.003317000369857595
0.003317000369857589
0.003317000369857586
0.003317000369857581
0.003317000369857582
0.003317000369857589
0.003317000369857597
0.003317000369857604
0.003317000369857599
0.0033170003698576
0.003317000369857592
0.00331700036985759
0.003317000369857592
0.003317000369857596
0.003317000369857586
0.003317000369857587
0.003317000369857596
0.0033170003698576
0.003317000369857599
0.00331700036985759
0.003317000369857592
0.00331700036985759
0.003807071284849718
0.003807071284849715
0.003807071284849715
0.003807071284849712
0.003807071284849714
0.003807071284849717
0.003807071284849716
0.003807071284849715
0.003807071284849716
0.003807071284849715
0.003807071284849713
0.003807071284849715
0.003807071284849712
0.003807071284849713
0.003807071284849713
0.003807071284849708
0.003807071284849718
0.003807071284849723
0.003807071284849721
0.003807071284849718
0.003807071284849721
0.003807071284849723
0.003807071284849717
0.003807071284849718
0.003807071284849725
0.003807071284849724
0.003807071284849719
0.00380707128484972
0.003807071284849722
0.003807071284849717
0.00380707128484972
0.003807071284849719
0.003807071284849718
0.003807071284849718
0.003807071284849715
0.003807071284849723
0.003807071284849725
0.003807071284849718
0.003807071284849717
0.003807071284849708
0.00380707128484971
0.003807071284849721
0.00380707128484973
0.003807071284849731
0.003807071284849726
0.00380707128484973
0.00380707128484972
0.003807071284849721
0.003807071284849723
0.003807071284849726
0.003807071284849714
0.003807071284849719
0.003807071284849728
0.00380707128484973
0.003807071284849727
0.003807071284849719
0.003807071284849718
0.003807071284849717
0.00435239699717472
0.004352396997174719
0.00435239699717472
0.004352396997174717
0.004352396997174719
0.004352396997174719
0.004352396997174717
0.004352396997174719
0.004352396997174717
0.004352396997174719
0.004352396997174717
0.004352396997174717
0.004352396997174716
0.004352396997174718
0.004352396997174717
0.00435239699717471
0.004352396997174717
0.004352396997174727
0.004352396997174729
0.004352396997174724
0.00435239699717473
0.00435239699717473
0.004352396997174725
0.004352396997174724
0.004352396997174729
0.004352396997174728
0.004352396997174724
0.004352396997174725
0.004352396997174725
0.004352396997174724
0.004352396997174724
0.004352396997174724
0.004352396997174723
0.004352396997174723
0.004352396997174722
0.004352396997174728
0.00435239699717473
0.004352396997174724
0.004352396997174724
0.004352396997174714
0.004352396997174717
0.004352396997174732
0.004352396997174737
0.004352396997174734
0.004352396997174731
0.004352396997174733
0.004352396997174725
0.004352396997174727
0.00435239699717473
0.004352396997174734
0.00435239699717472
0.004352396997174725
0.004352396997174738
0.004352396997174738
0.004352396997174735
0.004352396997174726
0.004352396997174724
0.004352396997174719
0.004935442360807477
0.004935442360807475
0.004935442360807478
0.004935442360807475
0.004935442360807477
0.004935442360807479
0.004935442360807477
0.004935442360807477
0.004935442360807475
0.004935442360807474
0.004935442360807475
0.004935442360807474
0.004935442360807472
0.004935442360807474
0.004935442360807473
0.004935442360807465
0.004935442360807473
0.004935442360807485
0.004935442360807486
0.004935442360807478
0.004935442360807487
0.004935442360807487
0.00493544236080748
0.004935442360807479
0.004935442360807483
0.004935442360807486
0.004935442360807481
0.004935442360807481
0.004935442360807479
0.004935442360807478
0.004935442360807479
0.004935442360807479
0.00493544236080748
0.004935442360807479
0.004935442360807477
0.004935442360807484
0.004935442360807487
0.004935442360807482
0.004935442360807483
0.004935442360807472
0.004935442360807477
0.004935442360807491
0.004935442360807496
0.004935442360807492
0.004935442360807487
0.004935442360807489
0.004935442360807482
0.004935442360807485
0.004935442360807488
0.004935442360807492
0.004935442360807479
0.004935442360807485
0.004935442360807498
0.004935442360807497
0.004935442360807495
0.004935442360807482
0.004935442360807485
0.00493544236080748
0.005534398828594863
0.005534398828594861
0.005534398828594864
0.005534398828594861
0.005534398828594861
0.005534398828594864
0.005534398828594864
0.005534398828594862
0.00553439882859486
0.00553439882859486
0.005534398828594858
0.005534398828594858
0.005534398828594854
0.005534398828594855
0.005534398828594858
0.005534398828594848
0.005534398828594856
0.005534398828594867
0.005534398828594872
0.005534398828594863
0.005534398828594871
0.005534398828594872
0.005534398828594866
0.005534398828594864
0.005534398828594865
0.005534398828594869
0.005534398828594865
0.005534398828594867
0.005534398828594866
0.005534398828594862
0.005534398828594861
0.005534398828594863
0.005534398828594864
0.005534398828594865
0.005534398828594859
0.005534398828594866
0.005534398828594871
0.005534398828594867
0.005534398828594865
0.005534398828594858
0.005534398828594866
0.005534398828594879
0.005534398828594878
0.005534398828594878
0.005534398828594874
0.005534398828594875
0.005534398828594867
0.005534398828594867
0.005534398828594873
0.005534398828594874
0.005534398828594866
0.005534398828594871
0.005534398828594883
0.005534398828594887
0.005534398828594883
0.00553439882859487
0.005534398828594873
0.005534398828594865
0.006127919806586946
0.006127919806586943
0.006127919806586943
0.006127919806586939
0.00612791980658694
0.006127919806586937
0.00612791980658694
0.006127919806586939
0.00612791980658694
0.00612791980658694
0.006127919806586936
0.006127919806586935
0.006127919806586933
0.006127919806586935
0.006127919806586939
0.006127919806586929
0.006127919806586934
0.006127919806586946
0.006127919806586948
0.006127919806586943
0.006127919806586952
0.006127919806586948
0.006127919806586943
0.006127919806586941
0.006127919806586943
0.006127919806586947
0.006127919806586943
0.006127919806586945
0.006127919806586944
0.00612791980658694
0.00612791980658694
0.006127919806586942
0.006127919806586944
0.006127919806586941
0.00612791980658694
0.006127919806586944
0.006127919806586948
0.006127919806586944
0.006127919806586945
0.006127919806586939
0.006127919806586948
0.006127919806586958
0.006127919806586959
0.006127919806586959
0.006127919806586953
0.006127919806586955
0.006127919806586949
0.00612791980658695
0.006127919806586955
0.006127919806586953
0.006127919806586945
0.006127919806586948
0.006127919806586966
0.006127919806586969
0.006127919806586966
0.006127919806586953
0.006127919806586953
0.006127919806586949
0.006698650654530359
0.006698650654530355
0.006698650654530354
0.006698650654530352
0.00669865065453035
0.006698650654530351
0.006698650654530355
0.00669865065453035
0.006698650654530349
0.00669865065453035
0.006698650654530347
0.006698650654530345
0.006698650654530342
0.006698650654530346
0.006698650654530349
0.006698650654530341
0.006698650654530343
0.006698650654530354
0.006698650654530358
0.006698650654530353
0.006698650654530358
0.006698650654530357
0.006698650654530355
0.00669865065453035
0.006698650654530355
0.006698650654530357
0.006698650654530357
0.006698650654530355
0.006698650654530352
0.006698650654530348
0.006698650654530348
0.006698650654530352
0.006698650654530356
0.006698650654530355
0.006698650654530352
0.006698650654530355
0.006698650654530357
0.006698650654530358
0.006698650654530356
0.006698650654530351
0.006698650654530358
0.006698650654530369
0.006698650654530369
0.006698650654530367
0.006698650654530364
0.006698650654530364
0.006698650654530359
0.006698650654530366
0.00669865065453036
0.006698650654530364
0.006698650654530357
0.00669865065453036
0.006698650654530379
0.006698650654530382
0.006698650654530383
0.00669865065453037
0.006698650654530368
0.006698650654530365
0.007234668539760652
0.007234668539760648
0.007234668539760646
0.007234668539760649
0.007234668539760645
0.007234668539760643
0.007234668539760646
0.007234668539760642
0.00723466853976064
0.007234668539760646
0.007234668539760641
0.007234668539760639
0.007234668539760635
0.007234668539760639
0.007234668539760644
0.007234668539760636
0.007234668539760636
0.007234668539760647
0.007234668539760649
0.007234668539760645
0.007234668539760646
0.00723466853976065
0.007234668539760648
0.007234668539760646
0.007234668539760647
0.007234668539760648
0.007234668539760651
0.007234668539760649
0.007234668539760646
0.007234668539760641
0.007234668539760637
0.007234668539760643
0.007234668539760647
0.007234668539760649
0.007234668539760647
0.007234668539760647
0.007234668539760644
0.007234668539760649
0.007234668539760652
0.007234668539760646
0.007234668539760648
0.007234668539760662
0.007234668539760662
0.007234668539760662
0.007234668539760659
0.007234668539760659
0.007234668539760657
0.007234668539760658
0.007234668539760654
0.007234668539760657
0.007234668539760652
0.007234668539760652
0.00723466853976067
0.007234668539760679
0.007234668539760679
0.007234668539760666
0.007234668539760663
0.007234668539760661
0.007729130995208605
0.0077291309952086
0.007729130995208599
0.007729130995208601
0.007729130995208595
0.007729130995208592
0.007729130995208594
0.007729130995208588
0.007729130995208588
0.007729130995208592
0.007729130995208592
0.007729130995208588
0.007729130995208585
0.007729130995208588
0.007729130995208589
0.007729130995208585
0.007729130995208586
0.007729130995208595
0.007729130995208595
0.007729130995208594
0.007729130995208591
0.007729130995208595
0.007729130995208597
0.007729130995208595
0.007729130995208597
0.007729130995208596
0.007729130995208598
0.007729130995208596
0.007729130995208592
0.007729130995208593
0.007729130995208587
0.007729130995208591
0.007729130995208595
0.007729130995208599
0.007729130995208596
0.007729130995208598
0.007729130995208593
0.007729130995208599
0.007729130995208602
0.007729130995208594
0.007729130995208599
0.007729130995208606
0.007729130995208612
0.007729130995208608
0.007729130995208608
0.007729130995208607
0.00772913099520861
0.007729130995208608
0.007729130995208603
0.007729130995208607
0.007729130995208605
0.007729130995208605
0.00772913099520862
0.007729130995208629
0.007729130995208628
0.007729130995208619
0.007729130995208617
0.007729130995208613
0.008178987209967599
0.008178987209967594
0.008178987209967594
0.008178987209967591
0.008178987209967585
0.008178987209967582
0.008178987209967584
0.008178987209967577
0.008178987209967577
0.008178987209967582
0.00817898720996758
0.008178987209967578
0.008178987209967573
0.008178987209967577
0.00817898720996758
0.008178987209967573
0.00817898720996758
0.008178987209967584
0.008178987209967582
0.00817898720996758
0.008178987209967584
0.008178987209967587
0.008178987209967585
0.008178987209967587
0.008178987209967587
0.008178987209967585
0.008178987209967585
0.008178987209967587
0.008178987209967585
0.008178987209967587
0.00817898720996758
0.008178987209967584
0.008178987209967585
0.008178987209967587
0.008178987209967584
0.008178987209967585
0.008178987209967584
0.008178987209967589
0.008178987209967591
0.008178987209967585
0.008178987209967589
0.008178987209967598
0.008178987209967601
0.008178987209967603
0.008178987209967601
0.008178987209967599
0.008178987209967599
0.008178987209967596
0.008178987209967592
0.008178987209967598
0.008178987209967598
0.008178987209967596
0.00817898720996761
0.00817898720996762
0.00817898720996762
0.008178987209967613
0.008178987209967611
0.008178987209967608
0.00858353580007412
0.008583535800074113
0.008583535800074107
0.008583535800074106
0.008583535800074102
0.008583535800074095
0.008583535800074097
0.008583535800074094
0.008583535800074094
0.008583535800074095
0.008583535800074097
0.008583535800074095
0.008583535800074088
0.008583535800074094
0.008583535800074094
0.008583535800074088
0.008583535800074097
0.0085835358000741
0.008583535800074094
0.008583535800074095
0.008583535800074099
0.008583535800074102
0.0085835358000741
0.008583535800074102
0.008583535800074102
0.008583535800074097
0.008583535800074102
0.008583535800074104
0.008583535800074102
0.008583535800074102
0.008583535800074095
0.008583535800074099
0.0085835358000741
0.008583535800074104
0.008583535800074099
0.008583535800074102
0.0085835358000741
0.008583535800074104
0.008583535800074107
0.008583535800074104
0.008583535800074104
0.008583535800074109
0.008583535800074116
0.008583535800074116
0.008583535800074116
0.008583535800074114