/*--------------------------------*- C++ -*----------------------------------*\
| =========                 |                                                 |
| \\      /  F ield         | OpenFOAM: The Open Source CFD Toolbox           |
|  \\    /   O peration     | Version:  v1812                                 |
|   \\  /    A nd           | Web:      www.OpenFOAM.com                      |
|    \\/     M anipulation  |                                                 |
\*---------------------------------------------------------------------------*/
FoamFile
{
    version     2.0;
    format      ascii;
    class       volScalarField;
    location    "10000";
    object      nut;
}
// * * * * * * * * * * * * * * * * * * * * * * * * * * * * * * * * * * * * * //

dimensions      [0 2 -1 0 0 0 0];


internalField   nonuniform List<scalar> 
3770
(
5.725664676148541e-06
5.725664676148942e-06
5.725664676148594e-06
5.725664676149142e-06
5.725664676148599e-06
5.725664676149882e-06
5.725664676150861e-06
5.725664676149338e-06
5.7256646761468e-06
5.725664676147658e-06
5.7256646761487e-06
5.725664676149119e-06
5.725664676148277e-06
5.725664676147459e-06
5.72566467614685e-06
5.725664676147985e-06
5.72566467614887e-06
5.725664676150154e-06
5.725664676151252e-06
5.725664676149904e-06
5.725664676148212e-06
5.725664676150843e-06
5.725664676149276e-06
5.725664676146243e-06
5.725664676146069e-06
5.725664676148573e-06
5.72566467615002e-06
5.725664676148371e-06
5.725664676146861e-06
5.725664676149612e-06
5.725664676150484e-06
5.725664676150138e-06
5.725664676148404e-06
5.725664676149914e-06
5.725664676149929e-06
5.72566467614887e-06
5.725664676149278e-06
5.725664676148759e-06
5.725664676148418e-06
5.725664676150097e-06
5.725664676150384e-06
5.725664676147625e-06
5.725664676147579e-06
5.725664676148106e-06
5.725664676148129e-06
5.725664676147131e-06
5.725664676147323e-06
5.725664676146776e-06
5.725664676148591e-06
5.72566467615086e-06
5.725664676148782e-06
5.72566467614856e-06
5.72566467614936e-06
5.725664676149885e-06
5.725664676148234e-06
5.725664676147412e-06
5.725664676148479e-06
5.725664676148604e-06
1.506281743230912e-06
1.506281743284979e-06
1.506281743262034e-06
1.506281743284885e-06
1.506281743270161e-06
1.506281743293491e-06
1.506281743266083e-06
1.506281743271743e-06
1.50628174324105e-06
1.506281743241926e-06
1.506281743258789e-06
1.506281743290518e-06
1.506281743262912e-06
1.50628174326919e-06
1.506281743249884e-06
1.506281743261664e-06
1.506281743270519e-06
1.506281743284792e-06
1.506281743263629e-06
1.506281743275939e-06
1.506281743267841e-06
1.506281743269512e-06
1.506281743254856e-06
1.506281743253715e-06
1.506281743244977e-06
1.50628174324493e-06
1.506281743266735e-06
1.506281743273032e-06
1.50628174323797e-06
1.506281743266714e-06
1.506281743255621e-06
1.506281743255122e-06
1.506281743274088e-06
1.506281743255483e-06
1.506281743257202e-06
1.506281743247339e-06
1.506281743256724e-06
1.506281743271234e-06
1.506281743243606e-06
1.506281743260462e-06
1.506281743262306e-06
1.506281743241464e-06
1.506281743244496e-06
1.506281743249048e-06
1.506281743237105e-06
1.506281743229113e-06
1.506281743230489e-06
1.50628174321181e-06
1.506281743225409e-06
1.506281743242968e-06
1.506281743229515e-06
1.506281743213029e-06
1.506281743225583e-06
1.50628174321562e-06
1.506281743203892e-06
1.506281743203353e-06
1.506281743225629e-06
1.506281743217994e-06
6.492950992095888e-06
6.49295099244764e-06
6.492950992223389e-06
6.492950992413949e-06
6.492950992289394e-06
6.492950992511341e-06
6.492950992277681e-06
6.492950992431448e-06
6.492950992138335e-06
6.492950992155622e-06
6.492950992288798e-06
6.492950992487742e-06
6.492950992274739e-06
6.492950992361561e-06
6.492950992303777e-06
6.492950992338826e-06
6.492950992310893e-06
6.492950992440608e-06
6.492950992361418e-06
6.492950992401363e-06
6.492950992238118e-06
6.492950992325905e-06
6.492950992218468e-06
6.492950992223817e-06
6.492950992140615e-06
6.492950992176717e-06
6.492950992373934e-06
6.49295099232761e-06
6.492950992067794e-06
6.492950992365853e-06
6.492950992337992e-06
6.492950992240454e-06
6.492950992328348e-06
6.492950992295619e-06
6.49295099229415e-06
6.49295099226164e-06
6.492950992300095e-06
6.492950992359516e-06
6.492950992250275e-06
6.492950992348493e-06
6.492950992308293e-06
6.492950992176432e-06
6.49295099215166e-06
6.492950992132103e-06
6.492950992187849e-06
6.492950992074197e-06
6.492950992071099e-06
6.492950992026611e-06
6.49295099199882e-06
6.492950992171932e-06
6.492950991971205e-06
6.492950991705455e-06
6.492950991958631e-06
6.492950992043874e-06
6.492950992020519e-06
6.492950991815475e-06
6.492950991880869e-06
6.492950991994516e-06
2.309641327779412e-05
2.309641327871622e-05
2.309641327782184e-05
2.309641327822257e-05
2.309641327798389e-05
2.309641327890584e-05
2.30964132778383e-05
2.309641327846492e-05
2.309641327816334e-05
2.309641327751586e-05
2.30964132779578e-05
2.30964132788537e-05
2.309641327771736e-05
2.309641327860118e-05
2.309641327870398e-05
2.309641327778067e-05
2.309641327843127e-05
2.309641327904513e-05
2.309641327821474e-05
2.30964132783902e-05
2.309641327783646e-05
2.309641327803678e-05
2.309641327755161e-05
2.309641327805612e-05
2.309641327854824e-05
2.309641327755461e-05
2.309641327827088e-05
2.3096413278767e-05
2.309641327767164e-05
2.30964132786032e-05
2.309641327881034e-05
2.309641327793079e-05
2.309641327835418e-05
2.309641327807601e-05
2.309641327795812e-05
2.309641327772869e-05
2.309641327797806e-05
2.309641327843439e-05
2.30964132774831e-05
2.309641327828792e-05
2.309641327848705e-05
2.3096413277715e-05
2.309641327812544e-05
2.309641327781678e-05
2.309641327750286e-05
2.309641327770533e-05
2.309641327777045e-05
2.30964132775361e-05
2.309641327704108e-05
2.309641327776013e-05
2.309641327728606e-05
2.309641327601866e-05
2.309641327687565e-05
2.309641327714803e-05
2.309641327711086e-05
2.309641327616914e-05
2.309641327701812e-05
2.309641327790991e-05
6.062912558065864e-05
6.062912558250056e-05
6.062912558027696e-05
6.062912557997825e-05
6.062912558005854e-05
6.062912558322984e-05
6.062912557947859e-05
6.062912558265864e-05
6.06291255833673e-05
6.062912557938361e-05
6.062912558100978e-05
6.062912558330481e-05
6.062912557929542e-05
6.062912558229162e-05
6.062912558368477e-05
6.062912557939637e-05
6.062912558228447e-05
6.062912558429103e-05
6.062912558127805e-05
6.062912558168934e-05
6.062912558073051e-05
6.062912558077873e-05
6.062912557957488e-05
6.062912558132898e-05
6.062912558336277e-05
6.062912557974938e-05
6.06291255818739e-05
6.062912558357052e-05
6.062912557955429e-05
6.062912558247095e-05
6.062912558391635e-05
6.062912557971233e-05
6.062912558196476e-05
6.0629125582462e-05
6.062912558138386e-05
6.06291255805432e-05
6.062912558124327e-05
6.06291255823751e-05
6.06291255790452e-05
6.062912558204943e-05
6.062912558365828e-05
6.062912557990494e-05
6.062912558166375e-05
6.06291255820152e-05
6.062912558085267e-05
6.062912558084962e-05
6.062912558095565e-05
6.062912558152151e-05
6.062912557851398e-05
6.062912558056222e-05
6.062912558073427e-05
6.062912557674039e-05
6.06291255783394e-05
6.062912557878339e-05
6.062912557872117e-05
6.062912557576035e-05
6.062912557854608e-05
6.062912558152662e-05
0.0001292718625039996
0.0001292718625059227
0.0001292718625022919
0.0001292718625003978
0.000129271862501733
0.0001292718625083061
0.0001292718624987444
0.0001292718625067366
0.0001292718625113471
0.0001292718624998579
0.0001292718625043639
0.0001292718625090756
0.0001292718624994668
0.00012927186250658
0.0001292718625113247
0.0001292718624994791
0.0001292718625073384
0.0001292718625121168
0.0001292718625051517
0.0001292718625052964
0.0001292718625032965
0.0001292718625029193
0.0001292718625006359
0.0001292718625048617
0.0001292718625102874
0.0001292718625013958
0.0001292718625064694
0.0001292718625104141
0.0001292718625004616
0.0001292718625076256
0.0001292718625119355
0.0001292718625003939
0.0001292718625065637
0.0001292718625100355
0.0001292718625065033
0.0001292718625042212
0.0001292718625056123
0.0001292718625074027
0.0001292718624993786
0.0001292718625072793
0.0001292718625119882
0.0001292718625014835
0.0001292718625063595
0.0001292718625095353
0.000129271862505713
0.0001292718625068868
0.0001292718625066841
0.0001292718625068869
0.000129271862498941
0.0001292718625049629
0.0001292718625077065
0.000129271862497597
0.0001292718624993099
0.0001292718624997955
0.0001292718624996046
0.0001292718624922803
0.0001292718624989148
0.0001292718625065301
0.0002376655593665549
0.0002376655593676961
0.0002376655593638232
0.0002376655593563674
0.0002376655593604844
0.0002376655593711233
0.000237665559353523
0.0002376655593687909
0.0002376655593804826
0.0002376655593559667
0.0002376655593656795
0.0002376655593735958
0.0002376655593553072
0.000237665559369193
0.0002376655593798559
0.0002376655593552124
0.0002376655593715121
0.0002376655593804734
0.0002376655593665899
0.0002376655593666755
0.0002376655593642603
0.0002376655593625172
0.0002376655593580697
0.0002376655593662625
0.0002376655593771553
0.0002376655593602815
0.0002376655593701002
0.0002376655593771078
0.0002376655593576693
0.0002376655593721118
0.0002376655593812258
0.0002376655593574908
0.0002376655593700976
0.0002376655593787522
0.0002376655593706211
0.0002376655593664808
0.0002376655593687154
0.000237665559370945
0.000237665559355698
0.0002376655593721396
0.0002376655593820499
0.0002376655593605488
0.0002376655593708083
0.0002376655593806063
0.0002376655593703257
0.0002376655593713537
0.0002376655593713085
0.000237665559371208
0.0002376655593562407
0.0002376655593694336
0.0002376655593771675
0.0002376655593570424
0.0002376655593577311
0.0002376655593578151
0.000237665559357381
0.0002376655593431013
0.0002376655593558559
0.0002376655593712724
0.0003915802046532165
0.0003915802046521485
0.0003915802046502138
0.0003915802046321235
0.0003915802046404227
0.0003915802046545318
0.0003915802046278519
0.0003915802046528271
0.0003915802046739896
0.0003915802046318407
0.0003915802046490037
0.000391580204660051
0.0003915802046308591
0.0003915802046542019
0.0003915802046725127
0.0003915802046313848
0.0003915802046590008
0.0003915802046722425
0.0003915802046450485
0.0003915802046509659
0.0003915802046518944
0.0003915802046439098
0.0003915802046363756
0.0003915802046496182
0.0003915802046670429
0.000391580204641317
0.0003915802046569396
0.0003915802046667521
0.0003915802046356068
0.0003915802046601577
0.0003915802046750155
0.0003915802046352545
0.0003915802046565017
0.0003915802046714869
0.0003915802046563477
0.0003915802046503672
0.0003915802046537237
0.0003915802046563906
0.0003915802046323807
0.0003915802046607385
0.0003915802046771084
0.0003915802046410942
0.0003915802046592215
0.0003915802046773028
0.0003915802046608401
0.0003915802046608163
0.0003915802046582463
0.0003915802046582698
0.0003915802046352955
0.0003915802046586145
0.0003915802046719086
0.0003915802046387848
0.0003915802046373348
0.0003915802046353371
0.0003915802046357546
0.0003915802046135544
0.000391580204634135
0.0003915802046596256
0.0005956018758404234
0.0005956018758350026
0.0005956018758345262
0.0005956018758004983
0.0005956018758134216
0.0005956018758293472
0.0005956018757943684
0.0005956018758308401
0.0005956018758620206
0.0005956018758002437
0.0005956018758262839
0.000595601875839497
0.0005956018757988326
0.0005956018758335062
0.0005956018758596316
0.0005956018758019177
0.0005956018758419045
0.0005956018758578805
0.000595601875816141
0.0005956018758281807
0.0005956018758334749
0.0005956018758193108
0.0005956018758084948
0.0005956018758268448
0.0005956018758501636
0.0005956018758178303
0.0005956018758386791
0.0005956018758497104
0.0005956018758074274
0.0005956018758436715
0.0005956018758635612
0.0005956018758061938
0.0005956018758372402
0.0005956018758581103
0.0005956018758345958
0.0005956018758250668
0.0005956018758302019
0.0005956018758354912
0.0005956018758023055
0.0005956018758445413
0.000595601875867202
0.0005956018758149941
0.0005956018758431504
0.0005956018758696025
0.000595601875845864
0.0005956018758447377
0.0005956018758376154
0.0005956018758384416
0.000595601875809206
0.0005956018758442667
0.000595601875862246
0.0005956018758137687
0.0005956018758100311
0.000595601875806896
0.0005956018758085516
0.000595601875777702
0.0005956018758063044
0.0005956018758440833
0.0008560944738831251
0.0008560944738625136
0.0008560944738622683
0.000856094473810651
0.0008560944738268873
0.0008560944738427169
0.0008560944738018731
0.0008560944738505667
0.000856094473890561
0.0008560944738104777
0.0008560944738455925
0.0008560944738593227
0.0008560944738083199
0.0008560944738547716
0.0008560944738874876
0.0008560944738162456
0.0008560944738675868
0.0008560944738837022
0.0008560944738278642
0.0008560944738463474
0.0008560944738565811
0.0008560944738364708
0.0008560944738236508
0.000856094473845487
0.0008560944738722679
0.0008560944738390059
0.0008560944738626509
0.0008560944738722255
0.0008560944738227768
0.0008560944738704171
0.0008560944738930477
0.0008560944738189485
0.0008560944738594453
0.0008560944738856872
0.0008560944738532561
0.0008560944738435634
0.0008560944738494635
0.0008560944738545001
0.0008560944738145673
0.000856094473870637
0.0008560944738980716
0.0008560944738299528
0.000856094473869666
0.0008560944739035638
0.0008560944738726686
0.0008560944738709198
0.000856094473859153
0.0008560944738606796
0.0008560944738274471
0.0008560944738737984
0.000856094473894249
0.0008560944738302254
0.000856094473824622
0.0008560944738212
0.000856094473823921
0.0008560944737856012
0.0008560944738199752
0.000856094473879047
0.001182404038169507
0.001182404038135968
0.001182404038136102
0.00118240403806609
0.001182404038082467
0.001182404038096421
0.001182404038053646
0.001182404038113949
0.001182404038160263
0.001182404038065761
0.00118240403810913
0.00118240403812181
0.001182404038063127
0.00118240403811996
0.001182404038157117
0.001182404038077895
0.001182404038137341
0.001182404038150607
0.001182404038082162
0.001182404038107609
0.001182404038123921
0.001182404038097537
0.001182404038085562
0.001182404038107862
0.001182404038133158
0.001182404038105847
0.001182404038129173
0.001182404038135101
0.001182404038085434
0.001182404038142306
0.001182404038164449
0.001182404038077045
0.001182404038124592
0.00118240403815349
0.001182404038114089
0.001182404038109726
0.001182404038114222
0.00118240403811491
0.001182404038072995
0.001182404038140584
0.00118240403817004
0.001182404038088098
0.001182404038139992
0.001182404038179503
0.001182404038142124
0.001182404038140514
0.001182404038124386
0.00118240403812616
0.001182404038093958
0.00118240403814892
0.001182404038168608
0.001182404038092938
0.001182404038087978
0.001182404038083753
0.001182404038085067
0.001182404038041738
0.001182404038076983
0.00118240403815569
0.001584360496000673
0.001584360495951877
0.001584360495953114
0.001584360495872462
0.001584360495884388
0.001584360495894735
0.001584360495855364
0.001584360495925195
0.001584360495974506
0.001584360495869495
0.001584360495920084
0.001584360495932024
0.001584360495869636
0.001584360495933401
0.001584360495972275
0.001584360495891906
0.001584360495954266
0.001584360495962134
0.001584360495883823
0.001584360495916793
0.001584360495942148
0.001584360495907509
0.001584360495900599
0.001584360495920008
0.001584360495934521
0.001584360495919467
0.001584360495940067
0.001584360495941577
0.001584360495899577
0.00158436049596259
0.001584360495981687
0.001584360495887249
0.001584360495936822
0.001584360495963899
0.001584360495918945
0.001584360495916626
0.001584360495919029
0.001584360495918534
0.001584360495882817
0.001584360495957976
0.001584360495986124
0.001584360495894103
0.001584360495957479
0.001584360496000105
0.001584360495956917
0.001584360495955552
0.001584360495937245
0.001584360495938032
0.001584360495913167
0.001584360495972871
0.001584360495988874
0.001584360495907843
0.00158436049590256
0.001584360495896731
0.001584360495897783
0.001584360495853251
0.001584360495884992
0.001584360495978131
0.002066624659436437
0.00206662465937395
0.002066624659375283
0.002066624659294247
0.002066624659297358
0.002066624659300987
0.002066624659270807
0.002066624659346903
0.002066624659395731
0.002066624659282658
0.002066624659339497
0.002066624659353613
0.002066624659292418
0.002066624659357968
0.002066624659395307
0.00206662465931953
0.002066624659378745
0.002066624659380212
0.002066624659296531
0.002066624659336939
0.002066624659373091
0.002066624659325029
0.002066624659334235
0.002066624659349834
0.002066624659336376
0.002066624659335248
0.002066624659352576
0.002066624659352185
0.002066624659326179
0.002066624659392362
0.002066624659407715
0.002066624659315637
0.00206662465936007
0.002066624659379832
0.002066624659329161
0.002066624659324398
0.002066624659332027
0.002066624659332014
0.002066624659306207
0.002066624659384756
0.002066624659408259
0.002066624659311116
0.002066624659383638
0.002066624659426544
0.002066624659378571
0.00206662465937699
0.002066624659360125
0.00206662465935663
0.002066624659345543
0.002066624659406662
0.002066624659418077
0.002066624659340395
0.002066624659337379
0.00206662465932492
0.002066624659323022
0.002066624659285933
0.002066624659310845
0.002066624659408049
0.002623809616919305
0.002623809616849196
0.002623809616850679
0.002623809616765164
0.002623809616769244
0.00262380961677316
0.002623809616744671
0.002623809616823466
0.002623809616869129
0.00262380961674927
0.002623809616811121
0.002623809616831645
0.002623809616776843
0.002623809616838522
0.002623809616870222
0.002623809616800418
0.002623809616849294
0.002623809616846479
0.002623809616765704
0.002623809616811934
0.002623809616854271
0.002623809616794001
0.002623809616818581
0.002623809616839632
0.002623809616804539
0.002623809616803355
0.002623809616818583
0.002623809616819099
0.002623809616806347
0.00262380961687402
0.002623809616887221
0.002623809616806994
0.002623809616839858
0.002623809616849451
0.002623809616789975
0.002623809616795564
0.002623809616805007
0.002623809616786777
0.002623809616784147
0.002623809616864407
0.002623809616880581
0.002623809616783663
0.002623809616861786
0.002623809616902699
0.002623809616851392
0.002623809616848116
0.002623809616837225
0.002623809616820886
0.002623809616828371
0.002623809616892309
0.002623809616898469
0.002623809616827164
0.002623809616833975
0.002623809616818381
0.002623809616807037
0.002623809616786363
0.002623809616804362
0.00262380961688905
0.003240504038464128
0.003240504038396992
0.003240504038398979
0.003240504038311319
0.00324050403832135
0.003240504038324994
0.003240504038291582
0.003240504038370274
0.003240504038411648
0.003240504038288037
0.003240504038352356
0.003240504038381257
0.003240504038336592
0.003240504038390068
0.00324050403841185
0.003240504038343408
0.003240504038390185
0.003240504038387526
0.003240504038306945
0.003240504038356194
0.003240504038398701
0.003240504038319838
0.003240504038362432
0.003240504038392434
0.003240504038341422
0.003240504038335734
0.003240504038356476
0.003240504038360652
0.003240504038352056
0.003240504038421111
0.00324050403843459
0.003240504038367148
0.00324050403838658
0.003240504038387722
0.003240504038333477
0.003240504038346263
0.003240504038357618
0.00324050403830636
0.003240504038323268
0.003240504038410229
0.003240504038417942
0.003240504038326677
0.003240504038406759
0.003240504038446238
0.003240504038393122
0.003240504038385212
0.003240504038387745
0.003240504038357054
0.003240504038380887
0.003240504038441343
0.00324050403844008
0.003240504038365809
0.003240504038411871
0.003240504038422408
0.003240504038377616
0.003240504038369913
0.003240504038388947
0.003240504038438199
0.003895513392572882
0.003895513392515684
0.003895513392518072
0.003895513392425963
0.003895513392450251
0.003895513392458893
0.003895513392413995
0.003895513392490865
0.003895513392528131
0.003895513392406464
0.003895513392469529
0.003895513392504716
0.003895513392470898
0.003895513392514475
0.003895513392523345
0.003895513392447452
0.003895513392506945
0.003895513392511239
0.003895513392423012
0.003895513392472547
0.003895513392510738
0.003895513392420279
0.00389551339247567
0.003895513392507856
0.003895513392461916
0.003895513392444175
0.003895513392465304
0.003895513392479235
0.003895513392465563
0.003895513392536472
0.003895513392551308
0.003895513392484973
0.003895513392507582
0.003895513392509222
0.003895513392446968
0.003895513392468907
0.003895513392485266
0.00389551339241189
0.003895513392445543
0.00389551339252078
0.003895513392521529
0.003895513392443115
0.003895513392522224
0.003895513392565579
0.003895513392511307
0.003895513392509658
0.003895513392521457
0.003895513392472365
0.003895513392508479
0.00389551339254645
0.003895513392541851
0.003895513392480837
0.003895513392554403
0.003895513392586086
0.003895513392511369
0.003895513392536798
0.00389551339258123
0.003895513392567171
0.004566308233247924
0.004566308233209754
0.004566308233210588
0.004566308233115102
0.004566308233158952
0.004566308233176629
0.004566308233116093
0.004566308233190309
0.004566308233224282
0.004566308233107394
0.004566308233167041
0.004566308233205701
0.004566308233178329
0.004566308233212684
0.004566308233210338
0.004566308233122852
0.004566308233190761
0.004566308233207433
0.004566308233118007
0.004566308233166476
0.004566308233199768
0.004566308233103989
0.004566308233164415
0.004566308233188913
0.004566308233149334
0.004566308233126465
0.004566308233156301
0.004566308233179907
0.004566308233153652
0.004566308233226332
0.004566308233242263
0.004566308233162676
0.004566308233202396
0.004566308233215343
0.004566308233131155
0.004566308233165174
0.004566308233191218
0.004566308233105582
0.004566308233149343
0.004566308233193038
0.004566308233189847
0.004566308233138417
0.004566308233213637
0.00456630823325671
0.004566308233205825
0.004566308233236956
0.004566308233247214
0.004566308233170943
0.004566308233212996
0.004566308233228949
0.004566308233225397
0.004566308233182625
0.004566308233272162
0.004566308233317439
0.004566308233239891
0.004566308233275535
0.004566308233315914
0.004566308233249379
0.005231842405437588
0.005231842405382001
0.005231842405383651
0.005231842405305971
0.005231842405356636
0.005231842405378891
0.005231842405309162
0.005231842405380375
0.005231842405412253
0.00523184240530113
0.005231842405356492
0.005231842405395533
0.005231842405364814
0.005231842405388585
0.005231842405383227
0.005231842405293436
0.005231842405364485
0.00523184240539154
0.005231842405303194
0.005231842405350459
0.005231842405380466
0.005231842405285426
0.005231842405343584
0.005231842405358946
0.005231842405320983
0.005231842405297286
0.005231842405335742
0.00523184240536604
0.005231842405330834
0.005231842405404515
0.005231842405422208
0.005231842405332551
0.005231842405383009
0.005231842405405264
0.005231842405313204
0.005231842405354944
0.005231842405384672
0.005231842405297087
0.005231842405343828
0.005231842405361489
0.005231842405352828
0.005231842405326124
0.005231842405394499
0.005231842405434702
0.005231842405389089
0.005231842405435627
0.005231842405446685
0.005231842405367677
0.005231842405411211
0.005231842405417937
0.005231842405415546
0.005231842405380965
0.005231842405475751
0.005231842405533722
0.005231842405468301
0.005231842405498257
0.00523184240552688
0.00523184240544367
0.005874388189734481
0.005874388189658398
0.005874388189658709
0.005874388189597068
0.005874388189645534
0.005874388189669118
0.00587438818959491
0.005874388189661978
0.005874388189692161
0.005874388189587292
0.005874388189638088
0.005874388189675075
0.005874388189635336
0.005874388189669102
0.005874388189665514
0.005874388189565823
0.005874388189633283
0.005874388189665208
0.005874388189578905
0.005874388189624923
0.005874388189653679
0.005874388189564095
0.005874388189614855
0.005874388189624889
0.005874388189594066
0.005874388189571143
0.00587438818961111
0.005874388189642554
0.00587438818959935
0.005874388189672591
0.005874388189693345
0.00587438818960312
0.005874388189657409
0.005874388189682988
0.005874388189590268
0.005874388189635607
0.005874388189666477
0.005874388189586075
0.005874388189632548
0.005874388189640521
0.005874388189621087
0.005874388189608248
0.005874388189666819
0.005874388189700376
0.005874388189666607
0.005874388189718431
0.005874388189727847
0.005874388189647884
0.005874388189694773
0.005874388189715664
0.005874388189713162
0.005874388189672307
0.005874388189762052
0.005874388189834719
0.005874388189792332
0.005874388189805348
0.005874388189821074
0.005874388189743714
0.006480769714459211
0.00648076971435819
0.006480769714354885
0.006480769714311044
0.006480769714351211
0.006480769714373453
0.00648076971429898
0.006480769714360326
0.006480769714388777
0.006480769714291138
0.006480769714337047
0.006480769714370206
0.006480769714318517
0.006480769714356838
0.006480769714360334
0.006480769714262777
0.006480769714321996
0.006480769714354436
0.006480769714272049
0.006480769714315639
0.006480769714343697
0.006480769714262788
0.006480769714302811
0.006480769714309965
0.006480769714290675
0.006480769714268649
0.006480769714305793
0.006480769714336125
0.00648076971428585
0.006480769714356528
0.006480769714380597
0.006480769714294809
0.006480769714348689
0.006480769714374833
0.0064807697142856
0.0064807697143312
0.006480769714361007
0.006480769714278162
0.006480769714328335
0.006480769714350624
0.006480769714315496
0.00648076971431039
0.006480769714358172
0.006480769714376424
0.006480769714360986
0.006480769714413705
0.006480769714418941
0.006480769714335984
0.006480769714387663
0.006480769714426048
0.00648076971442422
0.006480769714379503
0.006480769714453702
0.006480769714544005
0.006480769714532593
0.006480769714518895
0.006480769714522125
0.006480769714469875
0.007042688917036134
0.007042688916914666
0.007042688916903818
0.007042688916872332
0.007042688916900177
0.007042688916918722
0.00704268891684791
0.007042688916902095
0.007042688916928499
0.007042688916839049
0.007042688916879775
0.007042688916908527
0.007042688916847422
0.00704268891688682
0.007042688916897467
0.007042688916806573
0.007042688916855617
0.00704268891688649
0.00704268891681004
0.007042688916849353
0.007042688916876108
0.00704268891680627
0.007042688916833627
0.007042688916843024
0.007042688916834582
0.00704268891681073
0.007042688916845115
0.007042688916873448
0.007042688916818092
0.007042688916883827
0.007042688916910378
0.007042688916831369
0.00704268891688237
0.007042688916907963
0.007042688916824798
0.007042688916868278
0.007042688916896484
0.007042688916817006
0.00704268891686711
0.007042688916897085
0.007042688916840858
0.007042688916857549
0.007042688916900051
0.007042688916885512
0.007042688916891209
0.007042688916947701
0.007042688916948515
0.007042688916871187
0.007042688916922516
0.007042688916977406
0.00704268891697766
0.007042688916928795
0.007042688916981128
0.007042688917093514
0.007042688917108554
0.007042688917087946
0.00704268891708448
0.007042688917047837
0.007556077791647834
0.007556077791508784
0.007556077791485623
0.007556077791463622
0.007556077791477012
0.007556077791488906
0.007556077791425708
0.007556077791471701
0.007556077791495424
0.007556077791414872
0.007556077791450188
0.007556077791474726
0.007556077791409245
0.007556077791446305
0.007556077791461662
0.007556077791379462
0.007556077791417856
0.007556077791445924
0.007556077791377251
0.007556077791410403
0.007556077791434152
0.007556077791381882
0.007556077791394424
0.007556077791409299
0.007556077791410009
0.007556077791380417
0.007556077791412243
0.007556077791438056
0.00755607779138087
0.00755607779143954
0.007556077791467006
0.00755607779139589
0.007556077791442494
0.00755607779146695
0.007556077791391455
0.007556077791431237
0.007556077791457587
0.007556077791384781
0.007556077791431404
0.007556077791461683
0.007556077791400647
0.007556077791427162
0.007556077791466927
0.007556077791433129
0.007556077791450084
0.007556077791502
0.007556077791500228
0.007556077791433764
0.007556077791479168
0.007556077791549228
0.007556077791554529
0.007556077791504833
0.007556077791541665
0.007556077791667236
0.007556077791712154
0.007556077791698916
0.007556077791687541
0.007556077791661412
0.008019882662979691
0.008019882662825811
0.008019882662784692
0.008019882662770698
0.008019882662769755
0.008019882662770383
0.008019882662718561
0.008019882662755983
0.008019882662776598
0.008019882662705339
0.008019882662735098
0.008019882662755875
0.00801988266269167
0.008019882662723353
0.008019882662739997
0.008019882662667711
0.008019882662695639
0.008019882662719911
0.008019882662660575
0.008019882662686191
0.00801988266270348
0.008019882662675415
0.008019882662671774
0.00801988266269414
0.008019882662704678
0.008019882662664393
0.008019882662693292
0.008019882662716431
0.008019882662661374
0.008019882662711454
0.00801988266273781
0.008019882662675025
0.008019882662716294
0.008019882662739175
0.008019882662672237
0.00801988266270739
0.008019882662731598
0.008019882662666808
0.008019882662708063
0.008019882662736177
0.008019882662677703
0.008019882662707105
0.008019882662742934
0.008019882662702168
0.008019882662723908
0.008019882662760268
0.008019882662758895
0.008019882662709843
0.008019882662745762
0.008019882662823609
0.008019882662836573
0.008019882662794476
0.008019882662827004
0.008019882662952074
0.008019882663030293
0.008019882663035112
0.008019882663018845
0.008019882662999467
0.00843479953617882
0.008434799536009011
0.00843479953594501
0.008434799535925876
0.008434799535912307
0.00843479953591088
0.00843479953587504
0.008434799535903856
0.008434799535921017
0.008434799535859176
0.008434799535883331
0.008434799535900617
0.008434799535841501
0.008434799535866046
0.008434799535881358
0.008434799535820027
0.008434799535837926
0.00843479953585733
0.008434799535808718
0.008434799535826407
0.008434799535834517
0.008434799535820284
0.008434799535812739
0.008434799535837721
0.00843479953585302
0.008434799535811242
0.008434799535836805
0.008434799535857219
0.008434799535806836
0.008434799535848034
0.008434799535872017
0.008434799535817607
0.008434799535853016