/*--------------------------------*- C++ -*----------------------------------*\
| =========                 |                                                 |
| \\      /  F ield         | OpenFOAM: The Open Source CFD Toolbox           |
|  \\    /   O peration     | Version:  v1812                                 |
|   \\  /    A nd           | Web:      www.OpenFOAM.com                      |
|    \\/     M anipulation  |                                                 |
\*---------------------------------------------------------------------------*/
FoamFile
{
    version     2.0;
    format      ascii;
    class       volScalarField;
    location    "10000";
    object      nuTilda;
}
// * * * * * * * * * * * * * * * * * * * * * * * * * * * * * * * * * * * * * //

dimensions      [0 2 -1 0 0 0 0];


internalField   nonuniform List<scalar> 
3770
(
0.0004957436341776557
0.0004957436341776647
0.0004957436341776571
0.0004957436341776718
0.0004957436341776571
0.0004957436341776696
0.0004957436341776585
0.0004957436341777203
0.0004957436341776671
0.0004957436341776085
0.0004957436341776576
0.0004957436341776586
0.000495743634177617
0.0004957436341777219
0.000495743634177746
0.000495743634177643
0.0004957436341776751
0.0004957436341776946
0.0004957436341776999
0.0004957436341777009
0.0004957436341776942
0.000495743634177583
0.0004957436341775384
0.0004957436341777288
0.000495743634177701
0.0004957436341776805
0.0004957436341776525
0.0004957436341777069
0.0004957436341777952
0.0004957436341776789
0.0004957436341777068
0.000495743634177715
0.0004957436341776661
0.0004957436341776722
0.0004957436341776735
0.000495743634177625
0.0004957436341776467
0.0004957436341776786
0.0004957436341776851
0.0004957436341776749
0.0004957436341776266
0.000495743634177668
0.0004957436341777165
0.0004957436341776537
0.000495743634177658
0.0004957436341776483
0.0004957436341776725
0.0004957436341777428
0.0004957436341776798
0.0004957436341775515
0.0004957436341776478
0.0004957436341776847
0.0004957436341776103
0.0004957436341776145
0.0004957436341776688
0.0004957436341776593
0.0004957436341776544
0.000495743634177657
0.0003543875036493847
0.0003543875036525621
0.000354387503651211
0.0003543875036525546
0.000354387503651676
0.0003543875036530902
0.0003543875036516225
0.0003543875036527
0.000354387503649939
0.0003543875036486761
0.0003543875036507062
0.0003543875036527004
0.0003543875036504379
0.0003543875036522803
0.0003543875036517595
0.0003543875036506054
0.000354387503651841
0.0003543875036531076
0.0003543875036522412
0.0003543875036527219
0.0003543875036520655
0.0003543875036504122
0.0003543875036483693
0.0003543875036514387
0.0003543875036506811
0.0003543875036501817
0.000354387503651384
0.0003543875036523834
0.0003543875036518937
0.0003543875036517319
0.0003543875036517002
0.0003543875036517368
0.0003543875036517858
0.0003543875036509192
0.0003543875036510335
0.0003543875036496199
0.0003543875036504547
0.0003543875036519318
0.0003543875036504972
0.0003543875036513644
0.0003543875036507906
0.0003543875036498824
0.000354387503651018
0.000354387503650384
0.00035438750364959
0.0003543875036489133
0.0003543875036493085
0.0003543875036496363
0.0003543875036494178
0.0003543875036484142
0.0003543875036490345
0.0003543875036489848
0.0003543875036482175
0.0003543875036477036
0.0003543875036478626
0.0003543875036477005
0.0003543875036490541
0.0003543875036486049
0.0005117246662877734
0.0005117246662947277
0.0005117246662902703
0.0005117246662940423
0.0005117246662915187
0.0005117246662959248
0.0005117246662913902
0.000511724666295748
0.0005117246662903662
0.0005117246662866638
0.0005117246662898926
0.0005117246662954879
0.0005117246662915412
0.0005117246662969499
0.0005117246662950797
0.0005117246662923426
0.0005117246662951195
0.0005117246662968245
0.0005117246662941296
0.0005117246662954886
0.0005117246662941253
0.0005117246662902101
0.0005117246662841226
0.0005117246662931361
0.0005117246662932917
0.0005117246662898598
0.0005117246662901186
0.0005117246662939675
0.0005117246662945434
0.0005117246662917859
0.0005117246662921312
0.0005117246662922716
0.0005117246662917919
0.0005117246662880465
0.0005117246662888456
0.0005117246662875758
0.0005117246662890645
0.0005117246662929537
0.0005117246662903379
0.0005117246662928057
0.0005117246662894302
0.0005117246662852288
0.0005117246662906153
0.0005117246662925576
0.0005117246662891164
0.0005117246662868324
0.0005117246662871724
0.0005117246662908897
0.0005117246662890851
0.0005117246662838387
0.000511724666286658
0.0005117246662850551
0.0005117246662839521
0.0005117246662812009
0.0005117246662828934
0.0005117246662822564
0.0005117246662834252
0.0005117246662857014
0.0007063743165629683
0.0007063743165701008
0.0007063743165630651
0.0007063743165661879
0.000706374316564247
0.0007063743165715097
0.0007063743165632693
0.0007063743165686971
0.0007063743165665467
0.0007063743165601662
0.0007063743165638321
0.0007063743165712216
0.0007063743165627456
0.0007063743165708809
0.0007063743165710203
0.000706374316561372
0.0007063743165681705
0.0007063743165736469
0.000706374316569129
0.0007063743165702179
0.0007063743165681862
0.0007063743165665885
0.0007063743165589371
0.000706374316566444
0.0007063743165707795
0.0007063743165615014
0.0007063743165655287
0.0007063743165713071
0.0007063743165648231
0.0007063743165686845
0.0007063743165705031
0.0007063743165649427
0.000706374316564684
0.0007063743165604135
0.0007063743165629346
0.0007063743165608621
0.0007063743165631814
0.0007063743165679675
0.000706374316561185
0.0007063743165674547
0.000706374316568948
0.0007063743165629785
0.0007063743165648028
0.0007063743165670243
0.0007063743165622611
0.0007063743165612674
0.0007063743165602735
0.0007063743165633949
0.0007063743165613056
0.0007063743165574443
0.0007063743165602464
0.0007063743165544228
0.0007063743165551389
0.0007063743165519621
0.0007063743165535015
0.0007063743165502052
0.0007063743165567388
0.0007063743165637602
0.0009072340622895158
0.0009072340622966537
0.0009072340622878642
0.000907234062286725
0.0009072340622869543
0.0009072340622995188
0.0009072340622849302
0.0009072340622975448
0.0009072340623003101
0.0009072340622842074
0.0009072340622909749
0.0009072340623000312
0.0009072340622842813
0.0009072340622964326
0.0009072340623017086
0.0009072340622842554
0.000907234062296235
0.0009072340623045264
0.0009072340622964589
0.0009072340622965574
0.0009072340622932536
0.0009072340622926
0.0009072340622845529
0.000907234062292763
0.0009072340623010206
0.0009072340622863588
0.0009072340622939935
0.0009072340623013169
0.000907234062286385
0.0009072340622964956
0.0009072340623022506
0.0009072340622870755
0.0009072340622941837
0.0009072340622933474
0.0009072340622913314
0.0009072340622876612
0.0009072340622909643
0.0009072340622964147
0.000907234062283315
0.0009072340622951743
0.0009072340623015854
0.0009072340622889979
0.0009072340622954486
0.000907234062299979
0.0009072340622919275
0.0009072340622891889
0.000907234062290009
0.0009072340622937637
0.0009072340622854472
0.0009072340622868495
0.000907234062290678
0.0009072340622779338
0.0009072340622801274
0.0009072340622773069
0.0009072340622780657
0.0009072340622702517
0.0009072340622810762
0.0009072340622928471
0.001111327044113159
0.001111327044117783
0.001111327044109173
0.001111327044104697
0.001111327044107776
0.001111327044123351
0.001111327044100956
0.001111327044119728
0.001111327044130537
0.001111327044103318
0.00111132704411455
0.001111327044125549
0.001111327044102864
0.001111327044119594
0.001111327044130708
0.001111327044103019
0.001111327044121627
0.001111327044132988
0.001111327044119303
0.001111327044116731
0.001111327044110408
0.001111327044111844
0.001111327044105256
0.0011113270441157
0.001111327044128758
0.001111327044107795
0.001111327044119118
0.001111327044128624
0.001111327044105687
0.001111327044121876
0.001111327044132026
0.001111327044105219
0.001111327044118779
0.00111132704412346
0.001111327044117365
0.001111327044111276
0.001111327044115724
0.001111327044121733
0.001111327044102428
0.001111327044121065
0.001111327044132132
0.001111327044107756
0.001111327044119619
0.001111327044130845
0.001111327044119825
0.001111327044120387
0.001111327044118848
0.001111327044119646
0.001111327044103495
0.001111327044115411
0.001111327044123407
0.001111327044099541
0.001111327044101698
0.001111327044099675
0.001111327044099648
0.001111327044085775
0.001111327044101147
0.001111327044119077
0.001318589364060587
0.001318589364063002
0.001318589364056757
0.001318589364044667
0.001318589364051298
0.001318589364068486
0.001318589364040349
0.001318589364064728
0.001318589364083416
0.001318589364044001
0.001318589364060486
0.001318589364073042
0.001318589364043575
0.00131858936406563
0.001318589364082757
0.00131858936404396
0.001318589364069826
0.001318589364083888
0.001318589364062458
0.001318589364061185
0.001318589364055794
0.001318589364055371
0.001318589364047751
0.001318589364061111
0.001318589364078922
0.00131858936405203
0.001318589364066951
0.001318589364078295
0.001318589364047705
0.001318589364070308
0.001318589364084836
0.001318589364046755
0.001318589364066314
0.001318589364076766
0.001318589364065958
0.001318589364057365
0.001318589364062977
0.001318589364069129
0.001318589364043773
0.001318589364070136
0.001318589364085917
0.001318589364051063
0.001318589364068241
0.001318589364085804
0.001318589364067257
0.001318589364068302
0.001318589364065456
0.00131858936406597
0.001318589364045542
0.001318589364066029
0.001318589364078654
0.001318589364045343
0.001318589364046098
0.001318589364044735
0.001318589364044199
0.001318589364023652
0.001318589364043655
0.001318589364068286
0.001530487928289011
0.001530487928289747
0.00153048792828815
0.00153048792826568
0.001530487928275935
0.001530487928293192
0.001530487928260975
0.001530487928291022
0.001530487928316535
0.001530487928265567
0.00153048792828749
0.001530487928300662
0.001530487928265169
0.001530487928293028
0.001530487928315277
0.001530487928266914
0.001530487928299551
0.001530487928314804
0.001530487928282616
0.001530487928288831
0.0015304879282877
0.00153048792828063
0.001530487928271496
0.001530487928287645
0.001530487928309056
0.001530487928278249
0.001530487928296078
0.001530487928308027
0.001530487928271227
0.001530487928300282
0.001530487928318067
0.001530487928269792
0.001530487928295
0.001530487928310256
0.001530487928294294
0.001530487928283913
0.001530487928290567
0.001530487928296787
0.001530487928266431
0.001530487928300605
0.001530487928320157
0.001530487928275873
0.001530487928298843
0.001530487928321535
0.001530487928298517
0.00153048792829857
0.001530487928294531
0.001530487928295263
0.001530487928270606
0.001530487928298558
0.001530487928313956
0.001530487928272105
0.001530487928271604
0.001530487928272415
0.001530487928271701
0.001530487928243616
0.001530487928267729
0.001530487928297917
0.001751467495093644
0.001751467495090686
0.001751467495088859
0.001751467495052936
0.001751467495066203
0.001751467495082274
0.001751467495047735
0.001751467495083536
0.001751467495114232
0.001751467495053516
0.001751467495080569
0.001751467495093291
0.0017514674950529
0.001751467495086627
0.001751467495112638
0.001751467495057791
0.001751467495095899
0.001751467495110371
0.001751467495068561
0.001751467495080182
0.001751467495083605
0.001751467495072172
0.001751467495061913
0.00175146749508012
0.001751467495103437
0.001751467495071892
0.001751467495091305
0.001751467495102293
0.001751467495061715
0.001751467495096719
0.001751467495116067
0.001751467495059185
0.001751467495089468
0.001751467495107441
0.001751467495086569
0.001751467495075709
0.00175146749508285
0.001751467495089571
0.001751467495055721
0.001751467495097089
0.001751467495119004
0.001751467495066513
0.001751467495095782
0.001751467495121874
0.001751467495094901
0.00175146749509552
0.001751467495092128
0.001751467495092123
0.001751467495063314
0.001751467495097593
0.001751467495113989
0.001751467495064252
0.001751467495063035
0.00175146749506436
0.00175146749506393
0.001751467495031081
0.001751467495058131
0.001751467495096104
0.001989559797496208
0.0019895597974805
0.001989559797479228
0.001989559797431997
0.001989559797446912
0.001989559797461075
0.00198955979742592
0.001989559797467476
0.001989559797501734
0.001989559797433866
0.0019895597974654
0.001989559797476506
0.001989559797432397
0.001989559797471658
0.001989559797500121
0.001989559797441867
0.001989559797483911
0.001989559797495895
0.00198955979744674
0.001989559797462943
0.001989559797470229
0.001989559797454876
0.001989559797444862
0.001989559797463823
0.001989559797486853
0.001989559797458888
0.001989559797477937
0.001989559797486253
0.00198955979744522
0.00198955979748515
0.001989559797504173
0.001989559797440402
0.001989559797474876
0.001989559797495111
0.001989559797469981
0.001989559797460478
0.001989559797466919
0.001989559797472343
0.001989559797437336
0.001989559797484816
0.00198955979750758
0.001989559797448035
0.001989559797484088
0.001989559797512563
0.001989559797481854
0.001989559797482986
0.001989559797478555
0.001989559797478419
0.001989559797449531
0.001989559797488589
0.00198955979750425
0.001989559797447929
0.001989559797446177
0.001989559797447623
0.001989559797447441
0.00198955979741162
0.001989559797439427
0.001989559797491676
0.002256066478790408
0.002256066478764042
0.002256066478763597
0.002256066478706648
0.002256066478721219
0.002256066478732965
0.00225606647869895
0.002256066478746139
0.002256066478782521
0.002256066478709404
0.002256066478745029
0.002256066478754119
0.002256066478707477
0.002256066478751523
0.00225606647878134
0.002256066478722662
0.002256066478766606
0.002256066478774782
0.002256066478719402
0.002256066478740365
0.002256066478752291
0.002256066478732003
0.002256066478724427
0.002256066478742583
0.002256066478761835
0.002256066478741292
0.002256066478758215
0.002256066478763028
0.002256066478725683
0.002256066478769244
0.002256066478786134
0.002256066478717472
0.002256066478754516
0.002256066478775987
0.002256066478747557
0.002256066478742979
0.0022560664787467
0.002256066478747743
0.002256066478715259
0.002256066478767402
0.002256066478789336
0.002256066478723778
0.002256066478767014
0.002256066478796946
0.002256066478762563
0.002256066478764373
0.002256066478758942
0.002256066478758372
0.002256066478733144
0.002256066478775233
0.002256066478788719
0.002256066478728141
0.002256066478725287
0.002256066478725864
0.002256066478725928
0.00225606647868919
0.002256066478714952
0.002256066478778795
0.002564200953899886
0.002564200953862737
0.002564200953863225
0.002564200953800895
0.002564200953812784
0.002564200953821018
0.002564200953789989
0.002564200953842498
0.00256420095387969
0.002564200953801625
0.002564200953841539
0.002564200953849671
0.002564200953801862
0.002564200953849362
0.002564200953879524
0.002564200953822996
0.002564200953866252
0.002564200953869868
0.002564200953809292
0.002564200953835678
0.002564200953855067
0.002564200953827149
0.002564200953824659
0.002564200953841037
0.002564200953849825
0.002564200953839363
0.002564200953853318
0.00256420095385474
0.002564200953825482
0.00256420095387171
0.002564200953885526
0.002564200953814768
0.002564200953851639
0.002564200953871517
0.002564200953839608
0.002564200953837083
0.002564200953836278
0.002564200953835803
0.002564200953812379
0.002564200953867805
0.002564200953887361
0.002564200953816873
0.002564200953867377
0.002564200953897622
0.00256420095385947
0.002564200953862055
0.002564200953856737
0.002564200953854531
0.002564200953836711
0.0025642009538805
0.002564200953890841
0.002564200953829286
0.002564200953821772
0.002564200953816809
0.002564200953820507
0.002564200953788089
0.002564200953810159
0.002564200953882386
0.002926434822159082
0.002926434822112212
0.002926434822112884
0.00292643482205213
0.002926434822060314
0.002926434822061158
0.002926434822034041
0.00292643482209127
0.002926434822128037
0.002926434822043675
0.002926434822088503
0.002926434822098466
0.002926434822051351
0.002926434822100181
0.002926434822129324
0.002926434822076265
0.002926434822115722
0.002926434822114873
0.002926434822051331
0.002926434822083608
0.002926434822112035
0.002926434822069919
0.002926434822081005
0.002926434822098594
0.002926434822082749
0.002926434822080725
0.002926434822092254
0.002926434822092848
0.002926434822078142
0.002926434822126646
0.002926434822137656
0.00292643482206925
0.002926434822102082
0.002926434822116459
0.002926434822079052
0.002926434822076449
0.002926434822081108
0.002926434822079104
0.002926434822062794
0.002926434822120667
0.002926434822136298
0.002926434822062229
0.002926434822119442
0.002926434822148789
0.002926434822106653
0.002926434822109893
0.002926434822106523
0.00292643482209962
0.002926434822092947
0.002926434822138359
0.002926434822145217
0.002926434822089479
0.002926434822082449
0.002926434822068847
0.002926434822071458
0.002926434822045398
0.00292643482206268
0.002926434822137476
0.003350917291337781
0.003350917291284676
0.003350917291285361
0.003350917291220468
0.003350917291229887
0.00335091729122927
0.003350917291202168
0.003350917291263192
0.003350917291298511
0.003350917291205965
0.003350917291256094
0.003350917291271693
0.00335091729122813
0.003350917291275306
0.003350917291300856
0.003350917291249955
0.003350917291279835
0.003350917291276518
0.003350917291216652
0.003350917291254289
0.003350917291287508
0.003350917291233468
0.003350917291257357
0.00335091729127867
0.003350917291246064
0.003350917291244399
0.003350917291256869
0.003350917291258167
0.003350917291252324
0.003350917291303474
0.003350917291313266
0.003350917291252393
0.00335091729127757
0.003350917291285119
0.003350917291236931
0.003350917291243414
0.003350917291249282
0.003350917291231184
0.003350917291234821
0.003350917291295964
0.003350917291306288
0.003350917291230612
0.003350917291293283
0.003350917291321123
0.003350917291275065
0.003350917291277054
0.003350917291278261
0.003350917291258641
0.003350917291266623
0.003350917291317927
0.003350917291320751
0.003350917291267432
0.003350917291271108
0.003350917291257603
0.003350917291250617
0.003350917291234743
0.00335091729124771
0.00335091729131432
0.00383811274638845
0.003838112746335102
0.003838112746336236
0.003838112746265994
0.003838112746280089
0.003838112746280276
0.003838112746248597
0.003838112746312267
0.003838112746345625
0.003838112746245274
0.003838112746299596
0.003838112746323267
0.003838112746286721
0.003838112746328939
0.003838112746347019
0.003838112746293846
0.003838112746325269
0.003838112746322266
0.003838112746259553
0.003838112746300981
0.003838112746335199
0.003838112746267153
0.003838112746304688
0.003838112746331089
0.003838112746288007
0.003838112746280853
0.003838112746303139
0.003838112746307838
0.003838112746299687
0.003838112746354377
0.003838112746364901
0.00383811274631139
0.003838112746329168
0.003838112746330073
0.003838112746280038
0.003838112746293525
0.003838112746305684
0.003838112746259337
0.003838112746275957
0.003838112746345405
0.003838112746349747
0.00383811274627579
0.003838112746342197
0.003838112746370804
0.003838112746321623
0.003838112746317227
0.003838112746327112
0.003838112746299588
0.003838112746321661
0.003838112746369551
0.003838112746367146
0.00383811274631004
0.003838112746346661
0.003838112746354016
0.003838112746318553
0.003838112746312313
0.003838112746326986
0.00383811274636744
0.004379178111190954
0.004379178111143423
0.004379178111144955
0.004379178111063397
0.004379178111088854
0.004379178111097548
0.004379178111056332
0.004379178111121364
0.004379178111152751
0.004379178111049208
0.004379178111104591
0.00437917811113502
0.004379178111106937
0.004379178111142247
0.004379178111149527
0.004379178111086969
0.00437917811113521
0.004379178111137819
0.004379178111062735
0.004379178111105952
0.004379178111138253
0.004379178111059594
0.004379178111107791
0.00437917811113489
0.004379178111097734
0.00437917811107886
0.004379178111100468
0.004379178111115175
0.004379178111101888
0.004379178111160806
0.004379178111172877
0.004379178111117056
0.004379178111138353
0.004379178111139853
0.004379178111081296
0.004379178111102794
0.00437917811111936
0.004379178111054458
0.004379178111084853
0.004379178111146475
0.004379178111146004
0.00437917811108029
0.004379178111148447
0.004379178111184315
0.00437917811113447
0.004379178111132804
0.004379178111147101
0.004379178111104558
0.004379178111136648
0.004379178111164786
0.004379178111160757
0.004379178111113556
0.004379178111175655
0.004379178111202042
0.004379178111139209
0.00437917811116034
0.004379178111197543
0.004379178111186028
0.00495716863851156
0.004957168638477777
0.004957168638478495
0.004957168638394019
0.004957168638434094
0.004957168638449835
0.004957168638395724
0.004957168638460904
0.004957168638490572
0.004957168638387207
0.004957168638441221
0.00495716863847598
0.004957168638453037
0.004957168638481192
0.004957168638478475
0.00495716863840311
0.004957168638461992
0.004957168638475768
0.004957168638396243
0.004957168638439883
0.004957168638469407
0.004957168638384383
0.004957168638437661
0.004957168638457116
0.004957168638423512
0.004957168638402236
0.004957168638430731
0.004957168638453702
0.004957168638430336
0.00495716863849328
0.004957168638506697
0.004957168638436627
0.004957168638472067
0.004957168638483496
0.004957168638408017
0.004957168638439353
0.004957168638462871
0.00495716863838665
0.004957168638425929
0.004957168638461044
0.004957168638457931
0.004957168638414923
0.004957168638481921
0.004957168638519868
0.004957168638475035
0.004957168638501248
0.004957168638510631
0.004957168638443751
0.004957168638481017
0.004957168638493437
0.004957168638490281
0.004957168638454251
0.004957168638532992
0.004957168638572801
0.004957168638504774
0.00495716863853566
0.004957168638571017
0.004957168638512856
0.005550807831846317
0.005550807831794497
0.00555080783179634
0.005550807831727101
0.005550807831773583
0.00555080783179371
0.005550807831730335
0.005550807831794708
0.005550807831823341
0.005550807831722224
0.005550807831773452
0.005550807831809483
0.005550807831782688
0.005550807831801259
0.005550807831795847
0.005550807831716772
0.005550807831780808
0.005550807831804683
0.005550807831723891
0.005550807831767408
0.005550807831794939
0.005550807831708702
0.005550807831761032
0.00555080783177285
0.005550807831740152
0.005550807831718907
0.005550807831754613
0.005550807831783079
0.005550807831751096
0.005550807831817075
0.005550807831832556
0.005550807831751349
0.005550807831797257
0.005550807831817289
0.005550807831733415
0.005550807831771911
0.005550807831799044
0.005550807831719578
0.005550807831762011
0.005550807831777066
0.005550807831769064
0.005550807831745382
0.005550807831807881
0.005550807831844502
0.005550807831803948
0.005550807831844988
0.005550807831854568
0.005550807831784039
0.005550807831823204
0.005550807831828586
0.005550807831826213
0.005550807831795125
0.00555080783188096
0.005550807831933636
0.005550807831874273
0.005550807831900981
0.00555080783192701
0.005550807831851978
0.006139117668216913
0.006139117668145368
0.006139117668145941
0.006139117668089785
0.006139117668134942
0.006139117668156766
0.006139117668088056
0.00613911766815002
0.006139117668177761
0.006139117668080411
0.006139117668128088
0.006139117668162782
0.006139117668126899
0.00613911766815697
0.00613911766815298
0.006139117668061238
0.006139117668123659
0.00613911766815292
0.006139117668072595
0.006139117668115574
0.006139117668142423
0.006139117668059654
0.0061391176681062
0.006139117668113874
0.006139117668086651
0.006139117668065674
0.006139117668103209
0.006139117668132956
0.006139117668092881
0.006139117668160166
0.006139117668178963
0.006139117668095364
0.006139117668145766
0.006139117668169382
0.006139117668083345
0.006139117668125658
0.006139117668154345
0.006139117668080149
0.006139117668123061
0.006139117668129983
0.006139117668111927
0.006139117668100198
0.006139117668154825
0.006139117668185943
0.006139117668155507
0.006139117668202684
0.006139117668210852
0.006139117668137492
0.006139117668180686
0.006139117668201028
0.006139117668198362
0.006139117668159418
0.006139117668242463
0.00613911766831004
0.006139117668270256
0.006139117668281864
0.006139117668296865
0.006139117668225584
0.006704950035477612
0.006704950035382418
0.006704950035379381
0.006704950035338302
0.006704950035376221
0.006704950035397137
0.006704950035327117
0.006704950035384729
0.006704950035411355
0.006704950035319388
0.00670495003536292
0.006704950035394378
0.00670495003534635
0.006704950035381806
0.006704950035384637
0.006704950035293034
0.006704950035348785
0.006704950035379162
0.006704950035301467
0.006704950035342628
0.006704950035369136
0.006704950035293257
0.006704950035330559
0.006704950035336331
0.006704950035318815
0.006704950035298122
0.006704950035333606
0.006704950035362529
0.006704950035315196
0.006704950035381358
0.006704950035403719
0.006704950035322948
0.006704950035373709
0.006704950035398284
0.006704950035314278
0.006704950035357329
0.00670495003538541
0.006704950035307612
0.006704950035354736
0.006704950035375536
0.006704950035342488
0.006704950035337788
0.006704950035383109
0.006704950035400007
0.006704950035386119
0.006704950035435293
0.006704950035439724
0.006704950035361858
0.00670495003541042
0.006704950035447617
0.006704950035445648
0.006704950035402626
0.006704950035472486
0.006704950035557974
0.006704950035545833
0.006704950035532307
0.006704950035536505
0.006704950035487639
0.007236471802264303
0.007236471802148734
0.007236471802138438
0.007236471802108518
0.007236471802135075
0.007236471802152713
0.007236471802085357
0.00723647180213686
0.007236471802161906
0.007236471802076747
0.007236471802115664
0.007236471802143162
0.007236471802085364
0.00723647180212254
0.007236471802132407
0.007236471802045996
0.007236471802092722
0.007236471802122033
0.00723647180204921
0.007236471802086665
0.007236471802112164
0.007236471802045784
0.007236471802071636
0.007236471802080186
0.007236471802072397
0.007236471802049647
0.007236471802082742
0.007236471802109907
0.007236471802057238
0.00723647180211961
0.007236471802144703
0.007236471802069479
0.007236471802118033
0.007236471802142381
0.00723647180206324
0.007236471802104677
0.007236471802131523
0.007236471802055952
0.007236471802103592
0.007236471802132044
0.007236471802078568
0.00723647180209454
0.007236471802135561
0.007236471802120935
0.00723647180212655
0.007236471802180454
0.007236471802180889
0.007236471802107396
0.007236471802156199
0.007236471802208991
0.007236471802209127
0.007236471802162162
0.007236471802212163
0.007236471802319245
0.00723647180233279
0.007236471802312836
0.007236471802310059
0.007236471802275393
0.007726860811210434
0.007726860811077081
0.007726860811054883
0.00772686081103379
0.007726860811046662
0.007726860811058069
0.007726860810997456
0.007726860811041551
0.007726860811064266
0.00772686081098697
0.007726860811020919
0.00772686081104453
0.007726860810981886
0.007726860811017282
0.007726860811031881
0.007726860810953069
0.007726860810989958
0.007726860811016856
0.007726860810950937
0.007726860810982751
0.00772686081100554
0.007726860810955415
0.007726860810967357
0.007726860810981459
0.007726860810982229
0.007726860810953796
0.007726860810984536
0.007726860811009408
0.007726860810954567
0.007726860811010774
0.007726860811037034
0.007726860810968785
0.007726860811013491
0.00772686081103695
0.007726860810964531
0.007726860811002722
0.007726860811027997
0.007726860810958177
0.007726860811002888
0.007726860811031901
0.007726860810973374
0.007726860810998858
0.007726860811037159
0.007726860811004508
0.007726860811020994
0.007726860811070601
0.007726860811068733
0.007726860811005101
0.007726860811048643
0.007726860811115916
0.007726860811120981
0.00772686081107325
0.007726860811108691
0.007726860811229266
0.007726860811271904
0.007726860811258999
0.007726860811248361
0.007726860811223418
0.008173052310633165
0.008173052310484699
0.008173052310445045
0.008173052310431545
0.008173052310430641
0.008173052310431249
0.008173052310381245
0.008173052310417348
0.008173052310437221
0.008173052310368441
0.008173052310397184
0.008173052310417265
0.008173052310355375
0.008173052310385882
0.008173052310401888
0.008173052310332158
0.008173052310359155
0.00817305231038257
0.008173052310325278
0.008173052310350004
0.008173052310366668
0.008173052310339582
0.008173052310336023
0.008173052310357533
0.008173052310367749
0.008173052310328843
0.008173052310356831
0.008173052310379221
0.008173052310326105
0.008173052310374414
0.00817305231039981
0.008173052310339206
0.008173052310379021
0.008173052310401097
0.008173052310336503
0.008173052310370438
0.008173052310393794
0.008173052310331282
0.008173052310371088
0.008173052310398202
0.008173052310341791
0.008173052310370191
0.008173052310404811
0.008173052310365395
0.008173052310386474
0.00817305231042127
0.008173052310419909
0.008173052310372776
0.008173052310407434
0.008173052310482556
0.008173052310495059
0.008173052310454428
0.008173052310485819
0.008173052310606672
0.008173052310681933
0.008173052310686445
0.008173052310670855
0.008173052310652225
0.00857431856830923
0.008574318568144657
0.008574318568082636
0.008574318568064093
0.008574318568050946
0.008574318568049563
0.008574318568014825
0.008574318568042758
0.008574318568059382
0.008574318567999428
0.008574318568022843
0.008574318568039611
0.008574318567982339
0.008574318568006101
0.008574318568020923
0.008574318567961493
0.008574318567978877
0.008574318567997686
0.008574318567950533
0.008574318567967691
0.008574318567975529
0.008574318567961724
0.008574318567954412
0.00857431856797859
0.008574318567993428
0.008574318567952911
0.008574318567977732
0.008574318567997553
0.008574318567948729
0.008574318567988666
0.008574318568011897
0.008574318567959149
0.008574318567993459
0.008574318568013699
0.008574318567957446
0.008574318567986608
0.008574318568007687
0.008574318567953093
0.00857431856798712
0.00857431856801142
0.008574318567960428
0.008574318567988001
0.008574318568018501
0.008574318567978818
0.008574318568000805
0.008574318568027024
0.008574318568026158