/*--------------------------------*- C++ -*----------------------------------*\
| =========                 |                                                 |
| \\      /  F ield         | OpenFOAM: The Open Source CFD Toolbox           |
|  \\    /   O peration     | Version:  v1812                                 |
|   \\  /    A nd           | Web:      www.OpenFOAM.com                      |
|    \\/     M anipulation  |                                                 |
\*---------------------------------------------------------------------------*/
FoamFile
{
    version     2.0;
    format      ascii;
    class       volScalarField;
    location    "10000";
    object      p;
}
// * * * * * * * * * * * * * * * * * * * * * * * * * * * * * * * * * * * * * //

dimensions      [0 2 -2 0 0 0 0];


internalField   nonuniform List<scalar> 
3770
(
3.580553185583639e-16
6.510538910758161e-13
1.971013443262618e-12
2.331064142045208e-12
2.948563220360945e-12
3.12209107341969e-12
3.511689994588294e-12
3.502466366287168e-12
3.856332564713355e-12
3.832380076050007e-12
3.947595723499713e-12
3.987783780427807e-12
4.093133427561563e-12
4.006177921588154e-12
4.18854684582957e-12
4.140917938525443e-12
4.159829293262043e-12
4.172816503995541e-12
4.213926124427124e-12
4.142449220288892e-12
4.238430256395856e-12
4.209456315273295e-12
4.185792171442675e-12
4.127769802326473e-12
4.125721367718873e-12
4.081845789470742e-12
4.083569149494906e-12
4.071390814671641e-12
3.982651103465446e-12
3.848043101877362e-12
3.864478989166655e-12
3.766304862894166e-12
3.693726074701377e-12
3.67882051039211e-12
3.657778072423634e-12
3.546483089238937e-12
3.496769948293647e-12
3.426884992682336e-12
3.323555408424812e-12
3.236982447652131e-12
3.172474506928562e-12
3.015442623883327e-12
2.868043679264865e-12
2.785810183198139e-12
2.700501266771917e-12
2.524392376483491e-12
2.393612227522863e-12
2.182021220120403e-12
1.968760110839804e-12
1.734627888658506e-12
1.642806846036188e-12
1.346314413128327e-12
1.049491684877572e-12
8.244361927998495e-13
6.574540064425939e-13
5.905021945398244e-13
5.09933262759002e-13
1.628039341086252e-12
6.902214449948292e-16
6.500565139296476e-13
1.97034277587274e-12
2.331083862484302e-12
2.948455701147167e-12
3.121983875579643e-12
3.511732363524468e-12
3.502419659815822e-12
3.85634272679528e-12
3.832261286520338e-12
3.947639760663947e-12
3.98776904114139e-12
4.093214260782671e-12
4.006090487178311e-12
4.188519501995739e-12
4.140927893399713e-12
4.159952482232362e-12
4.172747623720148e-12
4.213904012611822e-12
4.142358836627031e-12
4.238490483951609e-12
4.209457272594965e-12
4.185848791216996e-12
4.127806256917156e-12
4.125785609892262e-12
4.081735910102287e-12
4.083583724355791e-12
4.071516757009952e-12
3.98286044160779e-12
3.848109869380434e-12
3.864633949594579e-12
3.766431932214393e-12
3.693661186067589e-12
3.678797070998439e-12
3.65790784694835e-12
3.546552573975598e-12
3.496860789352514e-12
3.426996263020913e-12
3.323638337084787e-12
3.23710051753788e-12
3.172733854158895e-12
3.015653276170265e-12
2.868064081950296e-12
2.785906325852678e-12
2.700759773944846e-12
2.524523956942566e-12
2.393804103258336e-12
2.182263193650326e-12
1.968961937035355e-12
1.734723917409716e-12
1.642975586430683e-12
1.346543181695382e-12
1.049592613183291e-12
8.244969121040744e-13
6.574697421714257e-13
5.905534061121627e-13
5.085018116687525e-13
1.627895070071631e-12
1.856319419983756e-15
6.489132781430386e-13
1.969445421783831e-12
2.331473183910497e-12
2.948375279115628e-12
3.122014067099526e-12
3.511806182143949e-12
3.502370135798761e-12
3.856466818407645e-12
3.832157519977667e-12
3.947648654840085e-12
3.987844205130667e-12
4.093271067662136e-12
4.005936169221783e-12
4.18854481306452e-12
4.1409831983648e-12
4.160052760641791e-12
4.172715174772082e-12
4.213852831987132e-12
4.14225010797258e-12
4.238641647066935e-12
4.209466189157804e-12
4.185884746116731e-12
4.127827393493031e-12
4.125874114840963e-12
4.081560673064644e-12
4.083591427877686e-12
4.071806287405628e-12
3.983120487808554e-12
3.84809492055671e-12
3.86489325379933e-12
3.766598940515114e-12
3.693415944323194e-12
3.678851740780164e-12
3.658140900843579e-12
3.546609149389824e-12
3.497022030065447e-12
3.427158766892242e-12
3.323705228807571e-12
3.237211534804806e-12
3.173143023046286e-12
3.015911606529301e-12
2.867922651395551e-12
2.786077901080652e-12
2.701175996416297e-12
2.52472519777242e-12
2.394056760538827e-12
2.18258885190537e-12
1.969193238647813e-12
1.734820319407123e-12
1.643288057363791e-12
1.346866230460192e-12
1.049614786857571e-12
8.244827184604906e-13
6.573414319507942e-13
5.902134957911377e-13
5.059860543993604e-13
1.627212449319515e-12
3.54828412085177e-15
6.479998441536432e-13
1.968421530099582e-12
2.332141570902043e-12
2.948417954497374e-12
3.122205237474953e-12
3.511800163852988e-12
3.502272625468285e-12
3.856754824380115e-12
3.832064542693789e-12
3.947727342587902e-12
3.988011838493804e-12
4.093227727000377e-12
4.005785934253503e-12
4.188635661258663e-12
4.141020692980677e-12
4.160219447831552e-12
4.172745770771333e-12
4.213714921244549e-12
4.142081526864087e-12
4.238874596361932e-12
4.209420926645209e-12
4.185868221201956e-12
4.127987573376935e-12
4.12596205667658e-12
4.081258176063176e-12
4.083703612538061e-12
4.072199664643574e-12
3.983323026310682e-12
3.848112993771446e-12
3.865170454340806e-12
3.766688862193282e-12
3.693155154959388e-12
3.679060344515171e-12
3.658318831087851e-12
3.546583003222175e-12
3.497380917201198e-12
3.427306777523994e-12
3.323663485443218e-12
3.237434492427415e-12
3.173693535525e-12
3.016084189545944e-12
2.867596030433216e-12
2.786323212162121e-12
2.701752255837997e-12
2.525004731223705e-12
2.394348934629961e-12
2.182942957723915e-12
1.969436012493825e-12
1.735021432476944e-12
1.643799430438855e-12
1.347172091458333e-12
1.049457571427284e-12
8.243725625830666e-13
6.569683958599005e-13
5.893148205526848e-13
5.027135837310074e-13
1.626092071737935e-12
5.112225726928682e-15
6.475024173255386e-13
1.966892912155613e-12
2.332781144472549e-12
2.948904499035431e-12
3.122400700723276e-12
3.511623121079347e-12
3.502537431245348e-12
3.856972704029676e-12
3.831646170523732e-12
3.948178405797732e-12
3.98803104976809e-12
4.092991241489256e-12
4.006106997653046e-12
4.188565567845182e-12
4.140786202047216e-12
4.160956861775621e-12
4.172835633778437e-12
4.213209383080324e-12
4.141678175247604e-12
4.239144469193506e-12
4.209266055303557e-12
4.185848012021191e-12
4.128658837153098e-12
4.125979383417441e-12
4.080685814026485e-12
4.084233225903382e-12
4.072424019949427e-12
3.983327895463181e-12
3.848688680326587e-12
3.865310864605684e-12
3.766476599157362e-12
3.693424758146674e-12
3.679490955673581e-12
3.658088503174155e-12
3.546482901261013e-12
3.498131802719748e-12
3.427161326041082e-12
3.323428247044507e-12
3.238309534764076e-12
3.174359418653605e-12
3.015971479203814e-12
2.867304649429519e-12
2.786679176296082e-12
2.702365692372195e-12
2.525394174725281e-12
2.39498304463207e-12
2.183119771487891e-12
1.969592936361919e-12
1.735863627632174e-12
1.644493880109544e-12
1.347174315441825e-12
1.049097119747394e-12
8.24221554285685e-13
6.561893501191262e-13
5.878755061922839e-13
4.992048946996689e-13
1.624413026995758e-12
5.376356864466209e-15
6.474199578736768e-13
1.964655409376972e-12
2.333154117696157e-12
2.950234226460126e-12
3.122157546829615e-12
3.511168610086246e-12
3.50404580932103e-12
3.856876806236433e-12
3.830430340836782e-12
3.949446465481684e-12
3.987523753416324e-12
4.092491647993115e-12
4.007639912254022e-12
4.18794181549561e-12
4.139891545106551e-12
4.162969114119109e-12
4.172872672425498e-12
4.211822168029743e-12
4.140833016039358e-12
4.239424522823514e-12
4.20897651684016e-12
4.186029518494598e-12
4.130373087815415e-12
4.125827783577591e-12
4.079692138376583e-12
4.085530860278386e-12
4.072001002436495e-12
3.983017889667577e-12
3.850609287188658e-12
3.865098064554844e-12
3.765749389519209e-12
3.694973449268123e-12
3.680038688760328e-12
3.65699242249927e-12
3.546504647071191e-12
3.499355131332147e-12
3.426258119841379e-12
3.323052757581968e-12
3.240583720384092e-12
3.17482424765335e-12
3.01536799437388e-12
2.86786100610478e-12
2.787236780319462e-12
2.702679195187669e-12
2.525935448039342e-12
2.396233918868082e-12
2.182757664984102e-12
1.969628976176938e-12
1.738109726074946e-12
1.645100784732545e-12
1.346423029895358e-12
1.048707072830659e-12
8.240782890677868e-13
6.545925781168162e-13
5.858166024452071e-13
4.962220903312006e-13
1.622123951088419e-12
3.128715390892653e-15
6.478992457604443e-13
1.9616385582554e-12
2.332898048827107e-12
2.952569635955801e-12
3.120993819506498e-12
3.510413616596535e-12
3.50741639598096e-12
3.856282555529653e-12
3.828103189434875e-12
3.951831007149892e-12
3.986124194384978e-12
4.091798377454521e-12
4.010999631370764e-12
4.186394628256593e-12
4.138089654468475e-12
4.166825435051016e-12
4.1727380947582e-12
4.209491686058355e-12
4.13979121431642e-12
4.239447720112082e-12
4.208069582900245e-12
4.18651001855828e-12
4.133569296830019e-12
4.125453104736435e-12
4.078296036054104e-12
4.087849350721179e-12
4.070455450632521e-12
3.982380462195337e-12
3.854521307708172e-12
3.864300818722813e-12
3.764354568705245e-12
3.698439535213949e-12
3.680655628095093e-12
3.654805963480888e-12
3.546682409308404e-12
3.500883889206519e-12
3.424331507501685e-12
3.322803192603056e-12
3.244884586133303e-12
3.17475518747052e-12
3.014153432505568e-12
2.870187147670215e-12
2.788038217044701e-12
2.702400345970112e-12
2.526822986653849e-12
2.397940644111332e-12
2.181484275737272e-12
1.969820043275753e-12
1.742302007296424e-12
1.645161045805708e-12
1.344633929413187e-12
1.048639712826719e-12
8.239642253651803e-13
6.518068168314173e-13
5.83149093369133e-13
4.943946674711034e-13
1.619102248695985e-12
-2.317804437001336e-15
6.494109310822928e-13
1.957672441758856e-12
2.331454192512994e-12
2.955808823842897e-12
3.118689423781716e-12
3.509664241123556e-12
3.512672710459392e-12
3.854946215747713e-12
3.824722506254467e-12
3.955388227527566e-12
3.983600586622849e-12
4.091196131802934e-12
4.01638868158435e-12
4.183733167072641e-12
4.135470483865287e-12
4.172542302486241e-12
4.171890968331132e-12
4.206464731049995e-12
4.139496056465825e-12
4.239110823147162e-12
4.20586895929984e-12
4.187247924312239e-12
4.138369754858702e-12
4.124951700425818e-12
4.076743267727113e-12
4.090999786222387e-12
4.06744256274866e-12
3.981645170188732e-12
3.860575586212148e-12
3.86278994320701e-12
3.762510958006679e-12
3.703837732111939e-12
3.681322100286303e-12
3.65164739825939e-12
3.546704606692478e-12
3.502566385073839e-12
3.421552784295855e-12
3.322980073986636e-12
3.251360888186944e-12
3.174070399027701e-12
3.012581281078485e-12
2.874684159098036e-12
2.788971846055583e-12
2.701476265555917e-12
2.528139450645165e-12
2.399718164471946e-12
2.179274893959778e-12
1.97071262144753e-12
1.748600071622355e-12
1.644387057851319e-12
1.34188489687265e-12
1.049035493105127e-12
8.238506034207694e-13
6.478660863890883e-13
5.800104969579922e-13
4.937511003540632e-13
1.614871311949533e-12
-1.105492380395271e-14
6.520670076733753e-13
1.952344975916158e-12
2.328409218493096e-12
2.959602324199178e-12
3.115189538138246e-12
3.509400041332211e-12
3.51944478532668e-12
3.852611834337272e-12
3.820603687302982e-12
3.959900663396327e-12
3.979860970611986e-12
4.091073967538441e-12
4.023587668746316e-12
4.179997436125626e-12
4.132462678932589e-12
4.179642149055915e-12
4.169773645879616e-12
4.20298032884444e-12
4.140553846118598e-12
4.238623025744137e-12
4.202244570958387e-12
4.18814930243321e-12
4.144515594811414e-12
4.124559109644454e-12
4.075441328304023e-12
4.094479536038406e-12
4.062919386451824e-12
3.981215551070589e-12
3.868379293601364e-12
3.860498023021617e-12
3.760608953602096e-12
3.710797006712082e-12
3.681800155461958e-12
3.647820644519651e-12
3.546533720120118e-12
3.504376460809797e-12
3.418285967267153e-12
3.323834873933491e-12
3.259691178582497e-12
3.172726061902713e-12
3.011121514669923e-12
2.88125407190443e-12
2.789944318317933e-12
2.70003058724327e-12
2.529551503688793e-12
2.401335577074841e-12
2.176604113364771e-12
1.972813157785324e-12
1.756757991776869e-12
1.642568658690323e-12
1.338421020422801e-12
1.050006167603876e-12
8.239282366774319e-13
6.432300120886425e-13
5.76670578281015e-13
4.940018036968311e-13
1.608940284427698e-12
-2.337278815911115e-14
6.553237743897887e-13
1.945136899779351e-12
2.323627555784764e-12
2.963470388531187e-12
3.110578172735692e-12
3.510102545874747e-12
3.527238217528857e-12
3.849081750594405e-12
3.816162876766328e-12
3.965174697441429e-12
3.97500267302243e-12
4.091753487684852e-12
4.032155386370657e-12
4.175388657748183e-12
4.129603480222488e-12
4.187418574748751e-12
4.166168067993161e-12
4.199235259346463e-12
4.142660486308911e-12
4.238018731331875e-12
4.19770445165759e-12
4.189426441705718e-12
4.151601073822246e-12
4.124582920217235e-12
4.074754645212895e-12
4.097567447355998e-12
4.057124817473103e-12
3.981626961590017e-12
3.877296449159727e-12
3.857358564298699e-12
3.759141618362726e-12
3.718718737023153e-12
3.681605633128321e-12
3.643743510833084e-12
3.546333581922716e-12
3.506116146256157e-12
3.415029165598404e-12
3.325761628425004e-12
3.269344170264434e-12
3.170644330042241e-12
3.010329448863679e-12
2.889686677614044e-12
2.790885044809323e-12
2.69825009531516e-12
2.530671084345214e-12
2.402792538565734e-12
2.174182166819474e-12
1.976476947354612e-12
1.766340749952736e-12
1.639579178004869e-12
1.334531199689112e-12
1.05171831892827e-12
8.244483174635611e-13
6.384299406242345e-13
5.732980262869693e-13
4.951756295805151e-13
1.601033366913693e-12
-3.970315056519893e-14
6.593944787550124e-13
1.935984110617314e-12
2.317143374571539e-12
2.966684614070908e-12
3.105078236475111e-12
3.512268000441679e-12
3.535553449413807e-12
3.844251083849422e-12
3.811729264413164e-12
3.970904804031939e-12
3.969247876307244e-12
4.09342006323544e-12
4.041547994407092e-12
4.170197987300189e-12
4.127420812642871e-12
4.19518483819591e-12
4.161015706119182e-12
4.195536232482932e-12
4.145586835061142e-12
4.237259412272168e-12
4.192964653186152e-12
4.191196083751555e-12
4.158694554339854e-12
4.125220946775213e-12
4.075064160580519e-12
4.099679385566004e-12
4.050697231443909e-12
3.983442135069179e-12
3.88655768454266e-12
3.85327938034358e-12
3.758386702171346e-12
3.727052668607245e-12
3.680471988585838e-12
3.639964712633254e-12
3.546334919993137e-12
3.507499537741287e-12
3.412208171997093e-12
3.329124552845437e-12
3.2798202759184e-12
3.167800919839735e-12
3.010597650058882e-12
2.899688204511002e-12
2.791853749611363e-12
2.696557507321593e-12
2.531331056593851e-12
2.404007704803985e-12
2.172595828149835e-12
1.981881382221725e-12
1.776827907602595e-12
1.635714767917162e-12
1.330743406290721e-12
1.053994997649956e-12
8.254361740660416e-13
6.341746195912271e-13
5.699832272341891e-13
4.970643922138382e-13
1.589718598382837e-12
-6.013569814353252e-14
6.657150361684584e-13
1.925537758789336e-12
2.309304535956471e-12
2.968165110112791e-12
3.099235824881777e-12
3.516432091267625e-12
3.543774553703327e-12
3.83824890872544e-12
3.807708892157194e-12
3.976759709591857e-12
3.963135271571813e-12
4.096122907542845e-12
4.05099820023473e-12
4.164804705119265e-12
4.126374316815051e-12
4.20215662064934e-12
4.154351007545598e-12
4.192216812001348e-12
4.149288416422348e-12
4.236422318490596e-12
4.18894806979465e-12
4.193378382333593e-12
4.164166433959917e-12
4.126475415465395e-12
4.076790986876965e-12
4.100341965993761e-12
4.044626933081382e-12
3.987243098560587e-12
3.895365375547299e-12
3.848352142012447e-12
3.758560577988321e-12
3.734954154236758e-12
3.678206983007519e-12
3.636684712672136e-12
3.546669282778511e-12
3.508860994039319e-12
3.410387789000303e-12
3.334057211334644e-12
3.290530305097629e-12
3.164355766717146e-12
3.012296783145895e-12
2.910811369343753e-12
2.792894715942962e-12
2.695317861357523e-12
2.531558251920014e-12
2.405100100019779e-12
2.172502624674413e-12
1.989062706204496e-12
1.787616028560539e-12
1.631699103270344e-12
1.327775432590311e-12
1.056493421330218e-12
8.268865748298591e-13
6.312111775143452e-13
5.665120782665959e-13
4.984758092727237e-13
1.571639337788697e-12
-8.423894939278502e-14
6.760262101709648e-13
1.914471262442462e-12
2.300793875376914e-12
2.967489606526754e-12
3.094340402717989e-12
3.522807566169836e-12
3.551093808436511e-12
3.831364516906772e-12
3.804506646200916e-12
3.982341405393741e-12
3.957623954642265e-12
4.099727441235747e-12
4.059444591232625e-12
4.159717334858905e-12
4.126828620986582e-12
4.207460740607527e-12
4.146536458474329e-12
4.189789225773029e-12
4.153874040273318e-12
4.235441829716692e-12
4.186312002976191e-12
4.195790597863946e-12
4.166155160764225e-12
4.127866402126408e-12
4.080213953092915e-12
4.099510248484742e-12
4.040323677270616e-12
3.993453299888093e-12
3.902919143620916e-12
3.843069192649243e-12
3.75964375050328e-12
3.74137876069183e-12
3.674888847358113e-12
3.633953985116258e-12
3.547237316388727e-12
3.510594278929992e-12
3.41032814452902e-12
3.340637668598783e-12
3.300745449825489e-12
3.160690274544549e-12
3.01551762367411e-12
2.922273806069452e-12
2.794126128067952e-12
2.694691176497253e-12
2.531358937513558e-12
2.406422729269397e-12
2.174675508267169e-12
1.997897700973672e-12
1.798036495502125e-12
1.628322963511552e-12
1.326663842193521e-12
1.059530111578391e-12
8.28654799628334e-13
6.300964923755479e-13
5.626061165672735e-13
4.973504247426137e-13
1.542134855945111e-12
-1.105029902110929e-13
6.921458506955163e-13
1.90323704877153e-12
2.293056455403663e-12
2.965643004817834e-12
3.091618660494022e-12
3.53046719115511e-12
3.556714930744377e-12
3.82395845096109e-12
3.802464042832517e-12
3.987576800376016e-12
3.954095497635285e-12
4.103835589321756e-12
4.065746003573141e-12
4.155476528692391e-12
4.128904592189748e-12
4.210209106903861e-12
4.138207936843534e-12
4.188601532663085e-12
4.158992002280062e-12
4.234099033011766e-12
4.185366154439375e-12
4.198544365931794e-12
4.164230974489426e-12
4.12859126725804e-12
4.08476943531153e-12
4.097601994540249e-12
4.039028855310396e-12
4.001946053323029e-12
3.908676354571198e-12
3.838472007624272e-12
3.76158503876581e-12
3.745041193391889e-12
3.670767100780911e-12
3.631776465065594e-12
3.547672221575764e-12
3.512716540136284e-12
3.4127082773328e-12
3.348998004988135e-12
3.309634558041802e-12
3.157271165053326e-12
3.020062756176247e-12
2.933196950586198e-12
2.795985994927833e-12
2.694658865933513e-12
2.530525494525081e-12
2.408362080875762e-12
2.179821501294432e-12
2.008157174766272e-12
1.807573696029219e-12
1.626172480776417e-12
1.328663863625862e-12
1.064730689182105e-12
8.303917244947771e-13
6.305580605763157e-13
5.577509832872571e-13
4.908326893658497e-13
1.496208244932223e-12
-1.363498602209385e-13
7.158541740508661e-13
1.892791606174093e-12
2.288314714566056e-12
2.963676399017375e-12
3.091420347622504e-12
3.537791018041023e-12
3.560282625242139e-12
3.816553431154334e-12
3.801801411911239e-12
3.992394492083749e-12
3.953481198100936e-12
4.107768921857713e-12
4.069227609496821e-12
4.15233057171384e-12
4.132378099716925e-12
4.210101463903414e-12
4.130266611935591e-12
4.188644055344886e-12
4.163919915282323e-12
4.231993138916577e-12
4.186073711832178e-12
4.202035057594921e-12
4.159982531450347e-12
4.128677070443015e-12
4.089340505965053e-12
4.095005857509406e-12
4.040743586976305e-12
4.011579357603139e-12
3.912559225894432e-12
3.835815083751922e-12
3.764249003021431e-12
3.745045941616679e-12
3.666446900424997e-12
3.630244176981527e-12
3.547532888441587e-12
3.514514345156575e-12
3.41743514065461e-12
3.359270750160469e-12
3.316675351148853e-12
3.154565941762429e-12
3.025467257908468e-12
2.942829903090516e-12
2.798947322127733e-12
2.695251631521291e-12
2.529277421000042e-12
2.411000329217434e-12
2.187760859118917e-12
2.019494095872986e-12
1.816033406863812e-12
1.625552575446494e-12
1.33485289157738e-12
1.074818419452005e-12
8.321344697490546e-13
6.313982869382887e-13
5.514640129185673e-13
4.75792866029919e-13
1.429183180253693e-12
-1.59443139894432e-13
7.48394394881297e-13
1.884047690010686e-12
2.288498077928622e-12
2.962356664030824e-12
3.09372102425678e-12
3.543468669590269e-12
3.562250749350289e-12
3.809875911874308e-12
3.802627080262765e-12
3.996648305621592e-12
3.95571025060407e-12
4.110730388089137e-12
4.069979755105536e-12
4.1497158420976e-12
4.136558970637695e-12
4.208279500990751e-12
4.123825152485421e-12
4.189271892141175e-12
4.167966906773731e-12
4.228465111725082e-12
4.188093772221395e-12
4.2071015267013e-12
4.155626576744659e-12
4.128745553882166e-12
4.093342129944899e-12
4.092179853100628e-12
4.043957015992598e-12
4.020433956954815e-12
3.91498627643096e-12
3.83528062881327e-12
3.767430339594854e-12
3.742574069824893e-12
3.662962972084134e-12
3.629240515565948e-12
3.547100877968724e-12
3.515073322365209e-12
3.422816986734486e-12
3.370766971056588e-12
3.3217639450914e-12
3.152831054215691e-12
3.031261270072837e-12
2.951112077605763e-12
2.802881437267558e-12
2.696832667384922e-12
2.529716550937097e-12
2.414083662548527e-12
2.19649490546765e-12
2.031131693753254e-12
1.823411916929766e-12
1.62691238012138e-12
1.345493276349733e-12
1.090746070812728e-12
8.339829049571199e-13
6.325826008325078e-13
5.444985036161428e-13
4.499267716858163e-13
1.337473455775481e-12
-1.776813861389343e-13
7.901496079534264e-13
1.877136645550574e-12
2.294954887242503e-12
2.963344258866922e-12
3.098381090992939e-12
3.546470826693788e-12
3.563770594617013e-12
3.804607950968262e-12
3.804825787528663e-12
3.999989094686838e-12
3.959864741559517e-12
4.112218737588962e-12
4.068808633800643e-12
4.146620379379087e-12
4.140532385422507e-12
4.206767185274047e-12
4.120098989112076e-12
4.189685404910591e-12
4.170579045728809e-12
4.22322479133158e-12
4.190463401039636e-12
4.213444139247766e-12
4.152632511158884e-12
4.129101128207476e-12
4.096884598370878e-12
4.090296135761682e-12
4.047215280794781e-12
4.026948919427559e-12
3.916719070728618e-12
3.835813520202526e-12
3.770718564334473e-12
3.740427592023776e-12
3.660464097257717e-12
3.628359361541076e-12
3.547983150138217e-12
3.514403247491354e-12
3.427299559737412e-12
3.381382120378281e-12
3.324192978010248e-12
3.152511689522025e-12
3.037228713357661e-12
2.95828614586409e-12
2.80712561342132e-12
2.700093179848403e-12
2.53418270947433e-12
2.416673069575608e-12
2.203967753098662e-12
2.042220646164452e-12
1.829539310419097e-12
1.631446318919059e-12
1.36022388327438e-12
1.110418374622639e-12
8.361640404270269e-13
6.347677925273047e-13
5.354011726105775e-13
4.123959159028519e-13
1.222170210646722e-12
-1.910325211918385e-13
8.395702466456904e-13
1.872479224357687e-12
2.308413339411931e-12
2.967669047204741e-12
3.105473863832285e-12
3.546670623142547e-12
3.56609601860593e-12
3.801216405583497e-12
3.808226987988689e-12
4.002020731012103e-12
3.964640953725625e-12
4.112186433621453e-12
4.06700744366736e-12
4.142846068103721e-12
4.143641119829648e-12
4.20637052604253e-12
4.119482512654832e-12
4.18967982097175e-12
4.171743747224903e-12
4.217037317684865e-12
4.192310466797997e-12
4.219194245584728e-12
4.150654183979548e-12
4.12956667191606e-12
4.100539461043139e-12
4.090503211632963e-12
4.050153975222477e-12
4.030774867841482e-12
3.918320729972204e-12
3.83658515762052e-12
3.773767475341876e-12
3.740117031068132e-12
3.658548293419682e-12
3.627411668603306e-12
3.550865788124979e-12
3.513337534368737e-12
3.431165969801672e-12
3.388601846508257e-12
3.322657968221021e-12
3.154608993119863e-12
3.043790550451873e-12
2.964405806467335e-12
2.811661368051824e-12
2.705014542132583e-12
2.541683943251493e-12
2.418456011504375e-12
2.210375766722205e-12
2.051932203457041e-12
1.834521905806826e-12
1.640162980689079e-12
1.377843200794328e-12
1.131210254774331e-12
8.393792208138944e-13
6.373250738657753e-13
5.199896600454536e-13
3.654038031585173e-13
1.089761384827542e-12
-2.021231167527404e-13
8.944494573638322e-13
1.871376832263092e-12
2.328808271141872e-12
2.973799902296764e-12
3.114960688017843e-12
3.545126140444274e-12
3.569924685199981e-12
3.799262016108365e-12
3.812334578207159e-12
4.003102690072642e-12
3.969215333737556e-12
4.11079501972283e-12
4.065859624311492e-12
4.139226648942954e-12
4.145712427373675e-12
4.206293264600237e-12
4.120752805494581e-12
4.189318062107057e-12
4.172625295681397e-12
4.211511783206718e-12
4.193538341630751e-12
4.222778180880427e-12
4.148988699638594e-12
4.130376267980226e-12
4.104588344714998e-12
4.092406911394771e-12
4.052516914845869e-12
4.032260282443061e-12
3.919845591269317e-12
3.837504803287353e-12
3.776429836523469e-12
3.741189286136607e-12
3.657343394923455e-12
3.626590284108707e-12
3.555017621327684e-12
3.51284196115368e-12
3.434744097998429e-12
3.392139403179212e-12
3.31796273167441e-12
3.158619157657711e-12
3.050444218850251e-12
2.969471675247708e-12
2.81695168311415e-12
2.710811569908704e-12
2.54979178956356e-12
2.420336484827227e-12
2.216596835242781e-12
2.06034072720148e-12
1.839367917073562e-12
1.651824635382793e-12
1.395710524656927e-12
1.151435360141718e-12
8.441097225536475e-13
6.396520590917575e-13
4.966910272363529e-13
3.138608547230536e-13
9.467704252660764e-13
-2.126953819936277e-13
9.54232892134618e-13
1.874156964335438e-12
2.35520489513212e-12
2.979885686938607e-12
3.126743610185544e-12
3.542980834528759e-12
3.575240532584332e-12
3.798142457914876e-12
3.816765757592466e-12
4.003578429225151e-12
3.973229584349897e-12
4.108432102905682e-12
4.066075131537874e-12
4.136538180978432e-12
4.146856195416587e-12
4.205603576684054e-12
4.122582870462285e-12
4.18862923257808e-12
4.174104461897059e-12
4.207615360859021e-12
4.194294485751738e-12
4.223903932088612e-12
4.148122102095267e-12
4.132365640279822e-12
4.108471128808539e-12
4.094579566222153e-12
4.053920397120564e-12
4.031835981874124e-12
3.921264677172538e-12
3.83892907841697e-12
3.778797036180902e-12
3.742485015442559e-12
3.656893737877491e-12
3.626135158932008e-12
3.559334191477837e-12
3.513023571565473e-12
3.438089355933426e-12
3.394310292843195e-12
3.31249055286322e-12
3.162560094250035e-12
3.055859616475479e-12
2.97322895852125e-12
2.822924518269755e-12
2.717043210188498e-12
2.557139146897597e-12
2.422526690310413e-12
2.223039027070582e-12
2.068898596975088e-12
1.844931270410687e-12
1.663793573158099e-12
1.411014280543994e-12
1.170135619253327e-12
8.506487048357891e-13
6.416487276508939e-13
4.658174145043664e-13
2.621921000781868e-13
7.977769272145051e-13
-2.232814359981975e-13
1.019315934239506e-12
1.879674919941056e-12
2.386204507548676e-12
2.985194223148764e-12
3.140621995419478e-12
3.540889468594581e-12
3.581769988895103e-12
3.797800945294238e-12
3.821522265757582e-12
4.003219269471141e-12
3.976426107500677e-12
4.10555999053621e-12
4.067672077331247e-12
4.134914675527653e-12
4.147268049671203e-12
4.20418277454864e-12
4.124844634382241e-12
4.187872905935307e-12
4.175849109962411e-12
4.20512160972233e-12
4.194713777387175e-12
4.222998395374975e-12
4.148400021299671e-12
4.135520486932062e-12
4.111701129633837e-12
4.096487886973101e-12
4.054345890600754e-12
4.029882019810974e-12
3.922572342633381e-12
3.840923899700556e-12
3.781041700942808e-12
3.743706777662483e-12
3.657280045331965e-12
3.626121483358408e-12
3.563035364950753e-12
3.513369822464883e-12
3.440988605910029e-12
3.396261518839809e-12
3.306982934609514e-12
3.165809717931092e-12
3.06028794160773e-12
2.975166775493472e-12
2.829017738842316e-12
2.723769444445011e-12
2.563251808947627e-12
2.42496195201866e-12
2.229688084466628e-12
2.078510198139323e-12
1.851509214666692e-12
1.674191287525898e-12
1.421843115280352e-12
1.186807314491398e-12
8.586581076342229e-13
6.434796818460401e-13
4.294630988541334e-13
2.136334953329633e-13
6.454616126344571e-13
-2.337316643219174e-13
1.0901300757128e-12
1.88622024886995e-12
2.420350189481103e-12
2.989409966933943e-12
3.156186959317902e-12
3.539194952966179e-12
3.58927060156217e-12
3.798162665659633e-12
3.826574224692648e-12
4.002048405923171e-12
3.978917857002915e-12
4.102490657516323e-12
4.070230935238284e-12
4.134136198686159e-12
4.147182686101141e-12
4.202239418042299e-12
4.127567792931599e-12
4.187255167600787e-12
4.177502183597789e-12
4.203698853409469e-12
4.194925872600558e-12
4.220783219540081e-12
4.149706858572015e-12
4.139020795142844e-12
4.11412567285796e-12
4.098078262465426e-12
4.053977774091779e-12
4.026900233055212e-12
3.923718545139913e-12
3.843318598232592e-12
3.78324412935004e-12
3.74490586999205e-12
3.658377204940089e-12
3.626477957757267e-12
3.56601620369744e-12
3.513731671475655e-12
3.443220036312744e-12
3.397493617749591e-12
3.301447414007714e-12
3.168888440872592e-12
3.064764581903688e-12
2.975648087222038e-12
2.834048088721314e-12
2.730488542209744e-12
2.568227582785909e-12
2.427628117233785e-12
2.236182843944606e-12
2.088987155040678e-12
1.859055136425782e-12
1.682633175762386e-12
1.428181553935154e-12
1.201614841976637e-12
8.670620182869063e-13
6.454967921823871e-13
3.904180459864808e-13
1.697762022588714e-13
4.910515681792607e-13
-2.442151686697087e-13
1.166383924929771e-12
1.892578195560424e-12
2.456773364478136e-12
2.992315025087298e-12
3.172946910577048e-12
3.538133652590377e-12
3.597491929954219e-12
3.799017169627413e-12
3.831819001076853e-12
4.000340071194575e-12
3.981020333964003e-12
4.099417807684988e-12
4.073213025958017e-12
4.133905011336034e-12
4.146819209515033e-12
4.199988706598149e-12
4.130640756362501e-12
4.186813757323681e-12
4.178810231211535e-12
4.203264485506904e-12
4.195228513126609e-12
4.218038225532625e-12
4.15196831288505e-12
4.141945280797572e-12
4.115444536932989e-12
4.099194766948883e-12
4.053135946608017e-12
4.023494514050799e-12
3.924640372680398e-12
3.845934958257366e-12
3.785393445537174e-12
3.746094935287393e-12
3.659996035833115e-12
3.627107970673965e-12
3.568365031427152e-12
3.514098729200898e-12
3.444694607920762e-12
3.397648614745077e-12
3.296349587711028e-12
3.171974281284011e-12
3.069120934995567e-12
2.975547843922298e-12
2.837589204589172e-12
2.736321066652614e-12
2.572156087808111e-12
2.430600906564916e-12
2.242158592047203e-12
2.09928116999581e-12
1.866891044787448e-12
1.689970200262646e-12
1.431845300107193e-12
1.214843058668508e-12
8.747267469691568e-13