/*--------------------------------*- C++ -*----------------------------------*\
| =========                 |                                                 |
| \\      /  F ield         | OpenFOAM: The Open Source CFD Toolbox           |
|  \\    /   O peration     | Version:  v1812                                 |
|   \\  /    A nd           | Web:      www.OpenFOAM.com                      |
|    \\/     M anipulation  |                                                 |
\*---------------------------------------------------------------------------*/
FoamFile
{
    version     2.0;
    format      ascii;
    class       surfaceScalarField;
    location    "10000";
    object      phi;
}
// * * * * * * * * * * * * * * * * * * * * * * * * * * * * * * * * * * * * * //

dimensions      [0 3 -1 0 0 0 0];
oriented        oriented;


internalField   nonuniform List<scalar> 
7417
(
-0.0009078218763624506
1.701091485312736e-16
-0.000907821876362539
8.790381746239862e-17
-0.0009078218763620078
-5.303732322366925e-16
-0.0009078218763619467
-6.014394890139568e-17
-0.0009078218763617557
-1.901796702396108e-16
-0.0009078218763617425
-1.263722544012135e-17
-0.0009078218763616011
-1.416538854488221e-16
-0.0009078218763616845
8.387837684215286e-17
-0.0009078218763615462
-1.364141871251027e-16
-0.0009078218763615471
6.215647111697724e-18
-0.0009078218763615599
1.181393276326438e-17
-0.0009078218763615386
-1.945174333116075e-17
-0.0009078218763615046
-3.378870073948184e-17
-0.0009078218763615603
5.574731221530468e-17
-0.0009078218763614746
-8.586988009046092e-17
-0.0009078218763614742
-3.348153790795202e-19
-0.0009078218763615319
5.62614715953037e-17
-0.0009078218763615051
-2.931017366485122e-17
-0.0009078218763614775
-3.054680218170571e-17
-0.0009078218763615014
9.793010275504294e-18
-0.000907821876361451
-3.82011739863462e-17
-0.0009078218763614572
7.506248408427972e-18
-0.0009078218763614731
1.81090610234965e-17
-0.0009078218763615198
4.956513293688229e-17
-0.0009078218763615289
9.441510590236309e-18
-0.0009078218763614986
-3.130509954000786e-17
-0.000907821876361491
-8.901504129200648e-18
-0.0009078218763614899
-1.809302023676462e-18
-0.0009078218763615528
6.378364392412224e-17
-0.0009078218763616609
1.086306324191824e-16
-0.0009078218763616528
-7.794906420390109e-18
-0.0009078218763616813
4.795222344754035e-17
-0.0009078218763617406
3.835548513207906e-17
-0.0009078218763617159
-2.653377791908439e-17
-0.0009078218763616974
-1.976652203183119e-17
-0.0009078218763617468
4.249874773968046e-17
-0.000907821876361778
4.063808389187952e-17
-0.0009078218763617955
1.680654307504873e-17
-0.0009078218763618237
2.747490498247923e-17
-0.0009078218763619014
7.751221273074769e-17
-0.0009078218763619319
3.120637736020582e-17
-0.0009078218763619882
5.377315283136204e-17
-0.0009078218763620956
1.123268634804564e-16
-0.0009078218763621149
1.74572941969258e-17
-0.0009078218763621287
1.243055059419128e-17
-0.0009078218763621953
6.750917010126033e-17
-0.0009078218763622425
4.897252139041688e-17
-0.0009078218763623155
8.282436495721535e-17
-0.0009078218763623802
5.804498583295415e-17
-0.0009078218763624575
7.709216719486178e-17
-0.0009078218763624291
-2.924507207282532e-17
-0.0009078218763625054
7.691693765876876e-17
-0.0009078218763625958
8.965126330633534e-17
-0.0009078218763626642
6.701806844637046e-17
-0.0009078218763627437
7.854948267422183e-17
-0.0009078218763627871
4.216340473284037e-17
-0.0009078218763630282
2.405993978525515e-16
-8.941131306706833e-16
-0.0008294994703775407
-2.1152505613809e-16
-0.0008294994703775452
9.126426930652365e-17
-0.0008294994703766098
-1.464735889380332e-15
-0.0008294994703763064
-3.621924406578155e-16
-0.0008294994703760026
-4.928100036909324e-16
-0.0008294994703758581
-1.563576042753568e-16
-0.0008294994703756703
-3.29849431613567e-16
-0.0008294994703757124
1.265968263861844e-16
-0.000829499470375598
-2.480925085678582e-16
-0.0008294994703754882
-9.71119443718066e-17
-0.000829499470375553
7.683982870321113e-17
-0.0008294994703754877
-8.254977499565918e-17
-0.0008294994703754678
-5.355473123882733e-17
-0.0008294994703754883
7.602048895625113e-17
-0.0008294994703754079
-1.660312571843022e-16
-0.0008294994703753223
-8.59850590252613e-17
-0.0008294994703754804
2.124127697653523e-16
-0.0008294994703754366
-7.768714180206661e-17
-0.0008294994703754083
-6.36392443205224e-17
-0.000829499470375392
-2.06385811782589e-17
-0.0008294994703753434
-7.568573789089202e-17
-0.0008294994703753433
1.065759429429103e-17
-0.0008294994703753942
7.359970774840311e-17
-0.0008294994703754817
1.416531172674126e-16
-0.0008294994703755526
8.082364877495483e-17
-0.0008294994703754377
-1.483726056412318e-16
-0.000829499470375438
-1.126757472482804e-17
-0.0008294994703754912
5.050120082473008e-17
-0.0008294994703756478
2.218511653578081e-16
-0.0008294994703758818
3.435367099598238e-16
-0.0008294994703759756
8.589833240341263e-17
-0.0008294994703759934
8.355563242673328e-17
-0.0008294994703761307
1.546097656715141e-16
-0.00082949947037612
-3.973945297369711e-17
-0.0008294994703761095
-3.168250424885132e-17
-0.0008294994703762131
1.397254184142112e-16
-0.0008294994703763158
1.526295136137143e-16
-0.0008294994703763901
9.073698936018578e-17
-0.0008294994703764507
8.732580585502028e-17
-0.000829499470376656
2.823487319868486e-16
-0.0008294994703768388
2.141797991888376e-16
-0.0008294994703769703
1.834113265509601e-16
-0.0008294994703772292
3.764935028582811e-16
-0.0008294994703773406
1.251291614989446e-16
-0.0008294994703774545
1.240552685644187e-16
-0.0008294994703776274
2.423236702183222e-16
-0.0008294994703778145
2.397399375700806e-16
-0.0008294994703780358
3.14884978452006e-16
-0.0008294994703782149
2.321733962030327e-16
-0.0008294994703784017
2.637624284973365e-16
-0.0008294994703784945
6.33232696613523e-17
-0.0008294994703786729
2.554052243276995e-16
-0.0008294994703788643
2.790230387603327e-16
-0.000829499470378998
1.985900589774079e-16
-0.0008294994703790841
1.632851264916157e-16
-0.0008294994703790991
5.506165185057498e-17
-0.0008294994703790204
1.616930858786733e-16
-1.997704808703347e-15
-0.0007514492669708985
-1.408722678286073e-15
-0.0007514492669708642
5.683827356589637e-17
-0.0007514492669697113
-2.616826545369798e-15
-0.000751449266969183
-8.896266459794663e-16
-0.0007514492669687805
-8.94802390460494e-16
-0.0007514492669685589
-3.773938492721093e-16
-0.0007514492669682854
-6.035363261092184e-16
-0.0007514492669682928
1.343298104982068e-16
-0.0007514492669683471
-1.921264016048096e-16
-0.0007514492669681177
-3.22678848959539e-16
-0.000751449266968175
1.329367880033203e-16
-0.0007514492669681252
-1.308992134508408e-16
-0.0007514492669680585
-1.197691711034453e-16
-0.0007514492669680206
3.804812905087914e-17
-0.0007514492669680394
-1.473287322145364e-16
-0.0007514492669678075
-3.180164498382631e-16
-0.0007514492669680016
4.055303542215312e-16
-0.0007514492669680367
-4.411427367416754e-17
-0.0007514492669680097
-9.266708687097252e-17
-0.0007514492669679747
-6.744772915192204e-17
-0.0007514492669679623
-7.75424989099473e-17
-0.0007514492669679469
-4.208692750731234e-18
-0.0007514492669680008
1.281585003590944e-16
-0.000751449266968103
2.458993525469607e-16
-0.0007514492669682679
2.462087670346726e-16
-0.0007514492669680487
-3.682885873931464e-16
-0.0007514492669680155
-4.491975131929681e-17
-0.0007514492669681915
2.262199704521313e-16
-0.0007514492669683728
4.034730461796318e-16
-0.0007514492669686933
6.642717676202889e-16
-0.0007514492669689754
3.686390240767722e-16
-0.0007514492669689122
3.692327424869986e-17
-0.0007514492669690773
3.025423679630033e-16
-0.0007514492669691837
6.555264655096963e-17
-0.0007514492669691825
-3.38829042119884e-17
-0.0007514492669693281
2.792455678880403e-16
-0.0007514492669695083
3.407231756227058e-16
-0.0007514492669696345
2.160686011005902e-16
-0.0007514492669696703
1.225248642211998e-16
-0.0007514492669699693
5.814348441304692e-16
-0.0007514492669703631
6.088747315985409e-16
-0.0007514492669705247
3.427818993911461e-16
-0.0007514492669709102
7.658556508941116e-16
-0.0007514492669711809
3.948986734939875e-16
-0.0007514492669713945
3.369599988383948e-16
-0.0007514492669716946
5.42819960051903e-16
-0.0007514492669720289
5.750809030056154e-16
-0.0007514492669724095
7.031805676892201e-16
-0.0007514492669726635
4.800315707289e-16
-0.0007514492669729448
5.447347323935075e-16
-0.0007514492669732677
3.85210810904715e-16
-0.0007514492669735601
5.485331048139697e-16
-0.0007514492669738027
5.214751573511417e-16
-0.000751449266973962
3.568491659690546e-16
-0.0007514492669739763
1.769692810338172e-16
-0.0007514492669737739
-1.480811745797113e-16
-0.0007514492669734013
-2.115097198258054e-16
-3.298333801329592e-15
-0.0006764606317173239
-3.504971542808811e-15
-0.0006764606317172432
-2.505912796127755e-17
-0.0006764606317160812
-3.777659587481316e-15
-0.0006764606317152961
-1.673448332089932e-15
-0.0006764606317147843
-1.405349755962932e-15
-0.000676460631714513
-6.479141235222881e-16
-0.0006764606317141059
-1.011055706464997e-15
-0.0006764606317139768
6.00402961146799e-18
-0.0006764606317143514
1.853348583157024e-16
-0.0006764606317140429
-6.249236264015914e-16
-0.0006764606317140139
1.046731010117012e-16
-0.0006764606317140401
-1.024593873730004e-16
-0.0006764606317138805
-2.789626099039702e-16
-0.0006764606317137188
-1.240875006568685e-16
-0.0006764606317139461
8.006686944422686e-17
-0.0006764606317135334
-7.306546529150562e-16
-0.0006764606317136411
5.111131640785504e-16
-0.0006764606317138412
1.512730139356409e-16
-0.0006764606317138504
-8.899388418029299e-17
-0.0006764606317138214
-1.092150149401006e-16
-0.0006764606317138943
5.053791776159597e-18
-0.0006764606317138469
-4.766597667481419e-17
-0.0006764606317138565
1.427728625586199e-16
-0.0006764606317139299
3.242666053180328e-16
-0.0006764606317142139
5.306015658707694e-16
-0.0006764606317139045
-6.80135309992019e-16
-0.0006764606317137777
-1.745334821870895e-16
-0.0006764606317141296
5.771119778071323e-16
-0.00067646063171427
5.456151003871381e-16
-0.0006764606317145873
9.823890642535616e-16
-0.0006764606317151433
9.244664116183413e-16
-0.0006764606317149699
-1.215838762007247e-16
-0.0006764606317150642
3.785518064307938e-16
-0.0006764606317153732
3.720350114504844e-16
-0.0006764606317154191
1.062655318825175e-17
-0.0006764606317155763
4.30790101352309e-16
-0.0006764606317158364
6.086536452171595e-16
-0.0006764606317160313
4.109178176881442e-16
-0.0006764606317159691
5.963347445937271e-17
-0.0006764606317162687
8.804906929503447e-16
-0.0006764606317169316
1.272003591608848e-15
-0.000676460631717083
4.927146223870874e-16
-0.0006764606317174932
1.180794027305379e-15
-0.0006764606317179669
8.642374970175555e-16
-0.0006764606317182975
6.652220227440179e-16
-0.0006764606317187382
9.856392474544872e-16
-0.0006764606317192036
1.044381429671792e-15
-0.0006764606317197607
1.270222545946525e-15
-0.0006764606317200559
7.713458311954619e-16
-0.0006764606317203537
8.425910596706018e-16
-0.0006764606317210108
1.042152922322732e-15
-0.0006764606317214804
1.018362058800336e-15
-0.0006764606317217552
7.940796611543277e-16
-0.0006764606317219482
5.473760880804695e-16
-0.0006764606317219093
1.363262342087557e-16
-0.0006764606317214342
-6.251966252077302e-16
-0.0006764606317207503
-8.955258846462749e-16
-4.632179989841872e-15
-0.0006083296832512918
-6.469166966352978e-15
-0.000608329683251058
-2.587023651623293e-16
-0.0006083296832500402
-4.794839209491176e-15
-0.0006083296832490195
-2.693590679997438e-15
-0.0006083296832484305
-1.993935895853258e-15
-0.0006083296832481149
-9.630224599026977e-16
-0.0006083296832475879
-1.538231351241929e-15
-0.000608329683247221
-3.606579723350509e-16
-0.0006083296832479112
8.765534935532131e-16
-0.0006083296832476025
-9.314462548268297e-16
-0.0006083296832474537
-4.522749298813557e-17
-0.0006083296832475597
4.598072312445404e-18
-0.0006083296832473144
-5.238044301999158e-16
-0.0006083296832469926
-4.458280717269581e-16
-0.0006083296832474471
5.342457850554467e-16
-0.0006083296832468904
-1.287540842600844e-15
-0.0006083296832468245
4.449052063291622e-16
-0.0006083296832471913
5.178373246919835e-16
-0.0006083296832472454
-3.5505570028467e-17
-0.000608329683247215
-1.474219910700302e-16
-0.0006083296832474312
2.285995836527693e-16
-0.0006083296832473734
-1.063266317602525e-16
-0.0006083296832473179
8.649777648080221e-17
-0.0006083296832473363
3.435212790757486e-16
-0.0006083296832477008
8.953671834894078e-16
-0.0006083296832473528
-1.028255150289352e-15
-0.0006083296832471166
-4.104560558634533e-16
-0.0006083296832476218
1.082312131183567e-15
-0.0006083296832477072
6.308668126186887e-16
-0.0006083296832479497
1.224814157654411e-15
-0.0006083296832487804
1.755950988693592e-15
-0.0006083296832485382
-3.521243993594053e-16
-0.0006083296832484784
3.0756713232319e-16
-0.0006083296832489793
8.726365571082171e-16
-0.0006083296832491246
1.552683140783987e-16
-0.0006083296832492935
5.954513890607342e-16
-0.0006083296832496315
9.520528429437378e-16
-0.000608329683249886
6.645370739108289e-16
-0.0006083296832496891
-1.377661584414835e-16
-0.0006083296832499084
1.10002669297163e-15
-0.0006083296832508398
2.204554252907076e-15
-0.0006083296832509778
6.289485161959975e-16
-0.0006083296832512694
1.474731737430934e-15
-0.0006083296832519195
1.51456276339024e-15
-0.0006083296832523769
1.12256019459236e-15
-0.000608329683252953
1.561479292488872e-15
-0.0006083296832535687
1.660041642333101e-15
-0.0006083296832542733
1.979332919298699e-15
-0.0006083296832545807
1.07421078716012e-15
-0.000608329683254839
1.100630776206078e-15
-0.0006083296832558374
2.03921559392624e-15
-0.0006083296832565321
1.713931815693207e-15
-0.0006083296832568249
1.087341647513558e-15
-0.000608329683257085
8.07050979347902e-16
-0.0006083296832570885
1.395398169349048e-16
-0.0006083296832564263
-1.287472771641985e-15
-0.0006083296832554638
-1.858700677651376e-15
-5.833861906343836e-15
-0.0005514847303227771
-1.029291268956794e-14
-0.0005514847303222161
-8.210113272680318e-16
-0.0005514847303214142
-5.595757122856238e-15
-0.0005514847303202678
-3.838730766554894e-15
-0.0005514847303196949
-2.565613441891788e-15
-0.0005514847303192685
-1.388864233424338e-15
-0.0005514847303186984
-2.108634194183469e-15
-0.0005514847303181424
-9.161021520973769e-16
-0.0005514847303189702
1.707058867095532e-15
-0.0005514847303187018
-1.194538112600694e-15
-0.0005514847303184958
-2.500225816701865e-16
-0.0005514847303186006
1.11626592630214e-16
-0.0005514847303183383
-7.857270110815778e-16
-0.0005514847303179161
-8.684119783062918e-16
-0.0005514847303184759
1.094086233475895e-15
-0.0005514847303178584
-1.905140765502978e-15
-0.0005514847303176687
2.531992500069855e-16
-0.0005514847303181052
9.498861766974057e-16
-0.0005514847303181188
-2.720346215521473e-17
-0.0005514847303180055
-2.703133316254215e-16
-0.0005514847303183879
6.175468051210813e-16
-0.0005514847303184044
-8.546611500719048e-17
-0.0005514847303183523
3.939348247383509e-17
-0.0005514847303183484
3.442476627164891e-16
-0.0005514847303186855
1.233076008622316e-15
-0.0005514847303183597
-1.356601339972541e-15
-0.0005514847303180832
-6.895951198398502e-16
-0.0005514847303186158
1.613967990783823e-15
-0.0005514847303186854
7.020274009049353e-16
-0.0005514847303188839
1.424185334089578e-15
-0.0005514847303198641
2.735818204273829e-15
-0.0005514847303196465
-5.597667576224327e-16
-0.000551484730319485
1.328530911840993e-16
-0.0005514847303200441
1.429301707864258e-15
-0.0005514847303203
4.098126667557739e-16
-0.0005514847303205494
8.412182150475558e-16
-0.0005514847303209252
1.333763537215617e-15
-0.0005514847303211684
9.077874567678814e-16
-0.0005514847303208786
-4.282641521285453e-16
-0.000551484730321022
1.242669411503918e-15
-0.0005514847303220848
3.267585458535294e-15
-0.0005514847303222599
8.034352516063465e-16
-0.0005514847303224338
1.652094311223939e-15
-0.0005514847303231486
2.225075111775022e-15
-0.0005514847303236985
1.67015336385378e-15
-0.0005514847303243945
2.259452786303081e-15
-0.0005514847303251773
2.446636201109818e-15
-0.0005514847303259365
2.74628527151156e-15
-0.0005514847303262501
1.385642690205436e-15
-0.0005514847303264998
1.350473473181913e-15
-0.0005514847303277003
3.239701611218963e-15
-0.0005514847303285814
2.595018932441448e-15
-0.0005514847303289015
1.405328432221686e-15
-0.0005514847303292456
1.148755743039469e-15
-0.0005514847303293461
2.382282049622066e-16
-0.000551484730328663
-1.972696397052436e-15
-0.0005514847303275619
-2.959629418307191e-15
-6.797410773812856e-15
-0.0005095918863056203
-1.492514054648455e-14
-0.0005095918863046182
-1.822526297429151e-15
-0.000509591886303996
-6.21747735142767e-15
-0.000509591886302815
-5.019683463663121e-15
-0.0005095918863023571
-3.023348009674825e-15
-0.0005095918863017228
-2.022952982135127e-15
-0.0005095918863011884
-2.643040175282261e-15
-0.0005095918863005904
-1.513877069952199e-15
-0.0005095918863013379
2.454929156006271e-15
-0.0005095918863010912
-1.440982011300746e-15
-0.0005095918863009338
-4.08744115052941e-16
-0.0005095918863009326
1.10945271419307e-16
-0.0005095918863007217
-9.962237926257519e-16
-0.0005095918863003309
-1.259147776301827e-15
-0.0005095918863008168
1.579625065540357e-15
-0.0005095918863002054
-2.51678552378407e-15
-0.0005095918863000519
1.000491116661458e-16
-0.0005095918863004759
1.374477944872483e-15
-0.000509591886300409
-9.363737683683393e-17
-0.0005095918863001349
-5.479734840854752e-16
-0.0005095918863005729
1.059651696500739e-15
-0.0005095918863006768
1.690678462339024e-17
-0.000509591886300733
9.309674010758219e-17
-0.0005095918863007887
3.998304620314801e-16
-0.0005095918863009856
1.430156357344589e-15
-0.0005095918863007142
-1.627604051360686e-15
-0.0005095918863005193
-8.833852366233487e-16
-0.0005095918863009309
2.025696793067177e-15
-0.0005095918863010392
8.099068701134984e-16
-0.0005095918863013047
1.689312444210317e-15
-0.0005095918863022565
3.688374260416573e-15
-0.0005095918863021348
-6.751383553769823e-16
-0.0005095918863020231
1.623259377863506e-17
-0.0005095918863024955
1.9021030640247e-15
-0.0005095918863028242
7.38090269179609e-16
-0.0005095918863032095
1.224045737245718e-15
-0.0005095918863035651
1.692089305114883e-15
-0.0005095918863037149
1.056471087332652e-15
-0.0005095918863034372
-7.062913333187454e-16
-0.000509591886303603
1.408956584914553e-15
-0.0005095918863046142
4.279997071930689e-15
-0.0005095918863048782
1.066052090393373e-15
-0.000509591886305085
1.859645527811843e-15
-0.0005095918863057359
2.877223330418574e-15
-0.0005095918863063177
2.252572004699859e-15
-0.000509591886307139
3.080072212285552e-15
-0.0005095918863080316
3.338304231124138e-15
-0.0005095918863087341
3.450098113681965e-15
-0.0005095918863090903
1.738818189137884e-15
-0.0005095918863094136
1.673437973500851e-15
-0.0005095918863105964
4.421192537746315e-15
-0.0005095918863115714
3.571039422771989e-15
-0.000509591886312003
1.837809201867008e-15
-0.0005095918863124209
1.566737950942099e-15
-0.0005095918863125674
3.849084302206896e-16
-0.0005095918863120217
-2.517867890247925e-15
-0.0005095918863109765
-4.005623961600558e-15
-7.515724631567033e-15
-0.0004853191718461778
-2.036184290765287e-14
-0.0004853191718447451
-3.256449890453161e-15
-0.0004853191718441905
-6.771265163607239e-15
-0.000485319171842968
-6.241019090515171e-15
-0.0004853191718426759
-3.314451127158376e-15
-0.0004853191718417758
-2.922521677501138e-15
-0.0004853191718413395
-3.079679894320051e-15
-0.0004853191718408126
-2.040299670504193e-15
-0.0004853191718413283
2.97284911485787e-15
-0.000485319171841053
-1.712220137651241e-15
-0.0004853191718410116
-4.484363450254934e-16
-0.0004853191718408363
-6.246509779075342e-17
-0.0004853191718407297
-1.102514648680348e-15
-0.0004853191718404731
-1.516132676277589e-15
-0.0004853191718407539
1.860521412465409e-15
-0.0004853191718401885
-3.082288812951373e-15
-0.0004853191718401976
1.069656476790052e-16
-0.0004853191718405027
1.675806832114815e-15
-0.0004853191718403864
-2.140803886799975e-16
-0.0004853191718400646
-8.759795593395907e-16
-0.0004853191718404138
1.412387208945881e-15
-0.0004853191718404939
1.00693826422816e-16
-0.0004853191718407261
3.298018279630112e-16
-0.0004853191718409156
5.931073884729696e-16
-0.0004853191718409102
1.425397615476696e-15
-0.0004853191718407102
-1.829459310211892e-15
-0.000485319171840682
-9.140444608888728e-16
-0.0004853191718408816
2.22437900407369e-15
-0.0004853191718410679
9.974468628553136e-16
-0.000485319171841496
2.118123495021369e-15
-0.0004853191718422922
4.484354014456437e-15
-0.0004853191718423029
-6.588143208682745e-16
-0.0004853191718423699
7.478912563053843e-17
-0.0004853191718426961
2.225922659440178e-15
-0.0004853191718430596
1.100325734244265e-15
-0.0004853191718435536
1.716413433814606e-15
-0.0004853191718438409
1.983436082367206e-15
-0.0004853191718438773
1.093047809582608e-15
-0.0004853191718437095
-8.745942266422508e-16
-0.0004853191718440009
1.699729673894521e-15
-0.0004853191718448638
5.143007814404613e-15
-0.0004853191718452476
1.449938369603825e-15
-0.0004853191718456205
2.235071937677893e-15
-0.0004853191718461357
3.388994089907825e-15
-0.0004853191718466964
2.811063355963716e-15
-0.0004853191718476347
4.019901526929276e-15
-0.0004853191718485679
4.274751428528295e-15
-0.0004853191718491652
4.052759274820134e-15
-0.000485319171849626
2.198888489966483e-15
-0.0004853191718500947
2.142113375279378e-15
-0.0004853191718511372
5.463675148614622e-15
-0.0004853191718521476
4.581252561688704e-15
-0.0004853191718527288
2.417248551992684e-15
-0.0004853191718532064
2.042379602151772e-15
-0.0004853191718533608
5.376469147701569e-16
-0.0004853191718530597
-2.820861740785191e-15
-0.0004853191718521883
-4.876934417171464e-15
-8.09116547378051e-15
-0.000481182733457087
-2.661567107822044e-14
-0.0004811827334552255
-5.117328190831333e-15
-0.0004811827334545797
-7.416780521863191e-15
-0.0004811827334532237
-7.596918696938077e-15
-0.0004811827334530871
-3.451159059358597e-15
-0.0004811827334518936
-4.115741275050405e-15
-0.0004811827334515919
-3.381342873613692e-15
-0.0004811827334511684
-2.463743858648042e-15
-0.0004811827334513867
3.191131588866052e-15
-0.0004811827334510449
-2.054609545855022e-15
-0.0004811827334511271
-3.674496505964913e-16
-0.0004811827334507536
-4.359965881934279e-16
-0.000481182733450786
-1.069750173255958e-15
-0.0004811827334506964
-1.60544434684968e-15
-0.0004811827334507163
1.879990761604604e-15
-0.0004811827334502244
-3.574248000003831e-15
-0.0004811827334504458
3.288974961462855e-16
-0.0004811827334505534
1.784927123221243e-15
-0.0004811827334504186
-3.47425711980719e-16
-0.0004811827334501639
-1.131971517344423e-15
-0.0004811827334503516
1.602269941000595e-15
-0.000481182733450326
7.292078684794673e-17
-0.0004811827334507646
7.653994789711868e-16
-0.0004811827334511131
9.406936018559712e-16
-0.0004811827334509078
1.220171014752026e-15
-0.0004811827334507893
-1.947274605523661e-15
-0.0004811827334509476
-7.545981029566197e-16
-0.0004811827334509098
2.187154883265279e-15
-0.0004811827334512105
1.297665050425136e-15
-0.0004811827334518359
2.742954286004737e-15
-0.0004811827334524285
5.077734973468994e-15
-0.0004811827334525944
-4.898373662813599e-16
-0.0004811827334528949
3.73823567318249e-16
-0.0004811827334530738
2.405979153617833e-15
-0.0004811827334534417
1.46811803218292e-15
-0.0004811827334539965
2.269882078952679e-15
-0.0004811827334542298
2.21812624916347e-15
-0.0004811827334541756
1.037661923496828e-15
-0.0004811827334541656
-8.851218557948017e-16
-0.0004811827334546445
2.179552840569495e-15
-0.0004811827334553463
5.846029082353205e-15
-0.0004811827334558755
1.97811646849025e-15
-0.000481182733456465
2.82451100033883e-15
-0.0004811827334568348
3.760492708624596e-15
-0.0004811827334573656
3.342798668943548e-15
-0.0004811827334583852
5.038692301477811e-15
-0.0004811827334593273
5.215410138654584e-15
-0.0004811827334598588
4.584001305896311e-15
-0.0004811827334604835
2.821711669363285e-15
-0.000481182733461131
2.789394739711544e-15
-0.0004811827334620083
6.339636397930281e-15
-0.0004811827334630468
5.620889526386633e-15
-0.0004811827334637983
3.169776145559641e-15
-0.000481182733464366
2.610360573852938e-15
-0.0004811827334645498
7.218554566959521e-16
-0.0004811827334645625
-2.807228301996011e-15
-0.0004811827334639062
-5.533881679705939e-15
-8.652253000616482e-15
-0.0004997888517033612
-3.389097689319162e-14
-0.0004997888517009408
-7.538660617854461e-15
-0.0004997888517000285
-8.328430315910721e-15
-0.0004997888516984097
-9.214719564403472e-15
-0.0004997888516983742
-3.485934001411869e-15
-0.0004997888516968642
-5.625207328174121e-15
-0.0004997888516967172
-3.528552034672433e-15
-0.000499788851696368
-2.812472697482332e-15
-0.0004997888516962619
3.086809132104409e-15
-0.0004997888516958308
-2.482953756681885e-15
-0.0004997888516960091
-1.874558116059202e-16
-0.0004997888516954383
-1.005173108027747e-15
-0.0004997888516956361
-8.715478374825888e-16
-0.0004997888516956986
-1.543146131128602e-15
-0.000499788851695448
1.629520811452719e-15
-0.0004997888516950599
-3.962623408761451e-15
-0.0004997888516954978
7.650428731396165e-16
-0.00049978885169539
1.674345763963093e-15
-0.0004997888516952626
-4.778782054253726e-16
-0.000499788851695092
-1.306396617305104e-15
-0.0004997888516950829
1.594878303004939e-15
-0.0004997888516949399
-6.789921683054665e-17
-0.0004997888516955951
1.424330863308278e-15
-0.0004997888516961054
1.454243680603091e-15
-0.0004997888516957449
8.603082293287826e-16
-0.0004997888516957231
-1.970297491550261e-15
-0.0004997888516960383
-4.411807228118909e-16
-0.0004997888516957813
1.929316484054718e-15
-0.0004997888516962305
1.747412961083356e-15
-0.0004997888516970456
3.558570001562858e-15
-0.0004997888516974297
5.461709368456046e-15
-0.0004997888516977785
-1.380098319273197e-16
-0.0004997888516983297
9.198808645881595e-16
-0.0004997888516983727
2.446887174687249e-15
-0.0004997888516987466
1.840837509259496e-15
-0.0004997888516993377
2.860536240482403e-15
-0.0004997888516995227
2.405721450081798e-15
-0.0004997888516994144
9.295094625216358e-16
-0.0004997888516996037
-6.962836783606189e-16
-0.000499788851700304
2.879386198877154e-15
-0.0004997888517008788
6.421085194025681e-15
-0.0004997888517015852
2.684861500472046e-15
-0.0004997888517023875
3.628595920983139e-15
-0.0004997888517026377
4.008782582748828e-15
-0.000499788851703181
3.884300402134667e-15
-0.0004997888517042566
6.115119039193973e-15
-0.0004997888517052067
6.16757837030616e-15
-0.000499788851705746
5.126878950333737e-15
-0.0004997888517065867
3.662208301853033e-15
-0.0004997888517074306
3.633289394714097e-15
-0.0004997888517081508
7.059427351236465e-15
-0.0004997888517092469
6.716896478695131e-15
-0.0004997888517102401
4.162004363623677e-15
-0.000499788851710988
3.356780777872125e-15
-0.0004997888517112579
9.90372054969628e-16
-0.0004997888517116572
-2.4096086434468e-15
-0.00049978885171127
-5.921346652025187e-15
-9.286508673331599e-15
-0.0005426072495062519
-4.24945339244464e-14
-0.0005426072495030727
-1.07171646920596e-14
-0.0005426072495017262
-9.67455375446469e-15
-0.0005426072494996713
-1.126963966800365e-14
-0.0005426072494996406
-3.516771073111769e-15
-0.0005426072494977871
-7.478357757055527e-15
-0.0005426072494978058
-3.509782277557939e-15
-0.0005426072494974617
-3.156499989162893e-15
-0.0005426072494970186
2.643693869016135e-15
-0.0005426072494964817
-3.020807113165556e-15
-0.000542607249496708
3.764897284050882e-17
-0.0005426072494959512
-1.76208411339842e-15
-0.0005426072494963365
-4.859022045421515e-16
-0.0005426072494965087
-1.370815127889995e-15
-0.0005426072494959961
1.116664715192755e-15
-0.0005426072494957504
-4.208427385903285e-15
-0.0005426072494963876
1.402818633672527e-15
-0.000542607249496067
1.355258474370736e-15
-0.0005426072494959689
-5.745647464402012e-16
-0.0005426072494958639
-1.41157989331389e-15
-0.0005426072494956426
1.3748125532592e-15
-0.0005426072494954108
-3.017060211786768e-16
-0.0005426072494962697
2.279903352166213e-15
-0.0005426072494969184
2.102167899291193e-15
-0.0005426072494964846
4.267510562414592e-16
-0.0005426072494965837
-1.870900268884055e-15
-0.0005426072494969997
-2.419709542299598e-17
-0.0005426072494965644
1.494744614992711e-15
-0.0005426072494972103
2.393145781559775e-15
-0.0005426072494981797
4.527365828353194e-15
-0.0005426072494983634
5.646128590645841e-15
-0.0005426072494989303
4.304348316206996e-16
-0.0005426072494997334
1.723159561313075e-15
-0.0005426072494996773
2.391823505307647e-15
-0.0005426072495001021
2.265478192554771e-15
-0.0005426072495007032
3.460914060490084e-15
-0.0005426072495008127
2.516265148484813e-15
-0.0005426072495006924
8.07808825129144e-16
-0.0005426072495011349
-2.544628594142057e-16
-0.000542607249502083
3.828600196874319e-15
-0.0005426072495025847
6.924129551323111e-15
-0.0005426072495035055
3.604602434514857e-15
-0.0005426072495044932
4.615758489931077e-15
-0.0005426072495046709
4.188026622488595e-15
-0.0005426072495053022
4.516676777018065e-15
-0.000542607249506426
7.238165113434377e-15
-0.0005426072495074052
7.1454436861291e-15
-0.0005426072495080413
5.761988509564822e-15
-0.0005426072495091512
4.771042444208927e-15
-0.000542607249510209
4.690785093356345e-15
-0.0005426072495108239
7.672721885707457e-15
-0.0005426072495120519
7.946345647085658e-15
-0.0005426072495133716
5.482779023220236e-15
-0.0005426072495144161
4.401423499417346e-15
-0.0005426072495148833
1.458064895207075e-15
-0.0005426072495157629
-1.529068949689679e-15
-0.0005426072495156964
-5.988526344014741e-15
-1.01241782647555e-14
-0.0006078350396842041
-5.274559411942234e-14
-0.0006078350396800404
-1.488131331322701e-14
-0.0006078350396781056
-1.16089041584128e-14
-0.0006078350396754118
-1.396278013159457e-14
-0.0006078350396752228
-3.705242224537968e-15
-0.0006078350396730095
-9.691246893955024e-15
-0.0006078350396731899
-3.329463353202902e-15
-0.0006078350396727456
-3.60039235044397e-15
-0.0006078350396719585
1.857770754888675e-15
-0.0006078350396713099
-3.667843866188563e-15
-0.000607835039671517
2.460113204695051e-16
-0.0006078350396706069