/*--------------------------------*- C++ -*----------------------------------*\
| =========                 |                                                 |
| \\      /  F ield         | OpenFOAM: The Open Source CFD Toolbox           |
|  \\    /   O peration     | Version:  v1812                                 |
|   \\  /    A nd           | Web:      www.OpenFOAM.com                      |
|    \\/     M anipulation  |                                                 |
\*---------------------------------------------------------------------------*/
FoamFile
{
    version     2.0;
    format      ascii;
    class       volVectorField;
    location    "10000";
    object      U;
}
// * * * * * * * * * * * * * * * * * * * * * * * * * * * * * * * * * * * * * //

dimensions      [0 1 -1 0 0 0 0];


internalField   nonuniform List<vector> 
3770
(
(-0.9581336262406812 8.582872523929206e-15 -2.364553106628793e-07)
(-0.9581336262402796 2.624625135525776e-15 -2.364593581645786e-07)
(-0.9581336262408708 -7.594149679793009e-15 -2.364519756884517e-07)
(-0.9581336262395944 8.74274017003247e-16 -2.364593874746224e-07)
(-0.9581336262404488 -3.181497259628821e-15 -2.364515845004683e-07)
(-0.9581336262393939 1.071849390694751e-15 -2.364595200143193e-07)
(-0.9581336262402215 -2.759078215107892e-15 -2.364513335035963e-07)
(-0.9581336262393205 2.427016667532174e-15 -2.364593868603928e-07)
(-0.9581336262401579 -2.476963094565165e-15 -2.364513927471359e-07)
(-0.9581336262392306 1.179574768210932e-15 -2.364589943961206e-07)
(-0.9581336262400377 -1.07530926431791e-15 -2.364516675561991e-07)
(-0.9581336262393085 8.195052389618954e-17 -2.364584602175823e-07)
(-0.9581336262399368 -1.030575571507644e-15 -2.364520394540462e-07)
(-0.9581336262393404 1.404287123387735e-15 -2.364578839567102e-07)
(-0.9581336262399182 -1.684035343689489e-15 -2.36452424794586e-07)
(-0.9581336262392804 6.851250941751128e-16 -2.364573260849029e-07)
(-0.9581336262398534 2.55398188442035e-16 -2.364527764258631e-07)
(-0.958133626239414 -2.396562770148342e-16 -2.364568153187926e-07)
(-0.9581336262397794 -5.415435202209761e-16 -2.364530725253344e-07)
(-0.9581336262394228 3.660152175680172e-16 -2.364563601539587e-07)
(-0.958133626239744 -6.101322799287234e-16 -2.364533058886001e-07)
(-0.9581336262393877 4.61656102053708e-16 -2.364559578176366e-07)
(-0.9581336262397233 -6.510363242958213e-18 -2.364534765385058e-07)
(-0.95813362623944 5.959363167398439e-16 -2.364555999188776e-07)
(-0.9581336262397776 -4.299375613093976e-16 -2.364535872954949e-07)
(-0.9581336262394858 -1.354753749847157e-16 -2.364552756290259e-07)
(-0.9581336262397009 -3.40153145171786e-16 -2.364536413657521e-07)
(-0.9581336262394928 1.143527980553544e-16 -2.364549733261259e-07)
(-0.9581336262397089 5.572853114303173e-16 -2.364536411548611e-07)
(-0.9581336262396308 1.118704117119615e-15 -2.364546814018006e-07)
(-0.9581336262398663 -1.279446557236699e-15 -2.364535878296588e-07)
(-0.9581336262396752 1.17848404563173e-15 -2.364543886678477e-07)
(-0.9581336262399074 2.706642631275551e-16 -2.364534813348179e-07)
(-0.9581336262397948 -8.230914398924238e-16 -2.364540846866734e-07)
(-0.9581336262398539 -2.185045796523105e-16 -2.364533207917017e-07)
(-0.9581336262398006 5.96614394431393e-16 -2.364537602400484e-07)
(-0.9581336262399147 3.430739229620886e-17 -2.364531052925452e-07)
(-0.9581336262398619 -1.870092817037602e-16 -2.364534081493255e-07)
(-0.9581336262399724 3.94066796262028e-16 -2.364528351910882e-07)
(-0.9581336262399268 6.656263210795863e-16 -2.364530246358691e-07)
(-0.9581336262401036 -6.77204727958613e-16 -2.364525140245047e-07)
(-0.9581336262400308 9.408988180790497e-16 -2.364526113949861e-07)
(-0.9581336262402135 1.175837227954345e-15 -2.364521511709316e-07)
(-0.95813362624022 -6.816112609026439e-16 -2.364521783907395e-07)
(-0.9581336262402672 -2.105894362036623e-16 -2.364517650734737e-07)
(-0.9581336262402985 8.194510288194513e-16 -2.364517469935436e-07)
(-0.9581336262403607 -2.97325326366543e-16 -2.364513863251729e-07)
(-0.9581336262404193 3.535534619324586e-16 -2.364513522768187e-07)
(-0.9581336262404997 4.118279917116061e-16 -2.364510588661258e-07)
(-0.9581336262405724 8.340631771798838e-16 -2.364510421392486e-07)
(-0.9581336262406062 -1.291151211307219e-15 -2.364508364093376e-07)
(-0.9581336262406032 9.029249066735041e-16 -2.364508698555525e-07)
(-0.9581336262407202 1.04043304379573e-15 -2.36450769924576e-07)
(-0.9581336262407937 6.029210580160877e-16 -2.364508753094174e-07)
(-0.9581336262408718 1.177771251483195e-15 -2.364508849655153e-07)
(-0.9581336262409327 1.011653195647809e-15 -2.364509786378035e-07)
(-0.9581336262411966 8.630602824891727e-15 -2.364507126768168e-07)
(-0.9581336262406221 -1.877478783310943e-14 -2.36451146873625e-07)
(-0.8753628852012476 8.587545721386178e-15 -7.037104984958176e-07)
(-0.8753628851993724 6.925130933878343e-15 -7.037209475617732e-07)
(-0.8753628852012589 -4.325378847306938e-14 -7.03700757047813e-07)
(-0.8753628851978085 -7.652022367071784e-15 -7.037226535904356e-07)
(-0.8753628852003428 -1.486381157784559e-14 -7.03699122701432e-07)
(-0.8753628851973577 -2.891095561645889e-15 -7.037230324774766e-07)
(-0.8753628851998504 -9.872006585318641e-15 -7.036985327369919e-07)
(-0.8753628851971732 5.196962494837937e-15 -7.037224398419411e-07)
(-0.8753628851997136 -8.935505783103889e-15 -7.036988754514285e-07)
(-0.8753628851971225 -6.977646795704146e-16 -7.037211322318901e-07)
(-0.8753628851993661 -6.746244803905026e-17 -7.036997865283868e-07)
(-0.8753628851973078 -2.190330775764942e-15 -7.037194772413889e-07)
(-0.8753628851991753 -1.764709270362351e-15 -7.037009237531903e-07)
(-0.8753628851973637 3.204221770440077e-15 -7.037177499704393e-07)
(-0.87536288519909 -6.341801303703548e-15 -7.037020625229404e-07)
(-0.8753628851973081 -3.987190325097608e-16 -7.037161076033969e-07)
(-0.8753628851988489 5.331981371715343e-15 -7.037030824023308e-07)
(-0.8753628851976533 -2.748481156909701e-15 -7.037146196974912e-07)
(-0.8753628851987394 -1.731408901130629e-15 -7.037039311828691e-07)
(-0.8753628851976573 -4.687941537602395e-16 -7.037133023039484e-07)
(-0.8753628851986233 -2.409667322535571e-15 -7.037045945712577e-07)
(-0.8753628851976224 8.64250307812772e-16 -7.037121425652604e-07)
(-0.8753628851985913 1.78296139671266e-15 -7.037050762377073e-07)
(-0.8753628851977472 3.627954733453513e-15 -7.03711113688138e-07)
(-0.8753628851987342 9.927747078317946e-16 -7.037053861803204e-07)
(-0.8753628851979225 -3.081175192890506e-15 -7.037101831454552e-07)
(-0.8753628851984795 -7.304045004077158e-16 -7.037055345004415e-07)
(-0.8753628851979446 9.441024402704697e-16 -7.037093168037063e-07)
(-0.8753628851986019 6.299478567133154e-15 -7.037055284060819e-07)
(-0.8753628851982802 8.659122309488285e-15 -7.037084808539537e-07)
(-0.8753628851990287 -7.170259433000468e-16 -7.037053711479745e-07)
(-0.8753628851985361 4.676852195082684e-15 -7.037076427330639e-07)
(-0.8753628851990481 4.011395297062776e-15 -7.03705062126712e-07)
(-0.8753628851988204 -3.335961805198574e-15 -7.03706771863343e-07)
(-0.8753628851990251 -2.575705368506687e-16 -7.037045979813929e-07)
(-0.8753628851988406 3.759981840546704e-15 -7.037058407980537e-07)
(-0.8753628851992026 2.923414973362328e-15 -7.037039747415645e-07)
(-0.8753628851990529 1.913003306734433e-15 -7.037048273403991e-07)
(-0.8753628851993789 2.962607793517163e-15 -7.037031913135939e-07)
(-0.875362885199186 6.821350448991475e-15 -7.037037181943228e-07)
(-0.8753628851997809 3.153020043698249e-15 -7.037022547501564e-07)
(-0.8753628851996091 6.305444040066634e-15 -7.037025146616678e-07)
(-0.8753628852000505 9.260140774626954e-15 -7.037011877039154e-07)
(-0.8753628852001197 8.753711853326232e-16 -7.037012405996753e-07)
(-0.8753628852002978 3.012220836348915e-15 -7.037000377999749e-07)
(-0.8753628852004073 6.084035350353076e-15 -7.036999518511208e-07)
(-0.875362885200618 4.472469810028643e-15 -7.036988873579896e-07)
(-0.8753628852008222 6.75982891594613e-15 -7.03698744275194e-07)
(-0.8753628852010708 6.240960009980471e-15 -7.036978589784584e-07)
(-0.875362885201216 6.782104067599772e-15 -7.036977541927949e-07)
(-0.8753628852014113 -1.129678080460188e-15 -7.036971090662023e-07)
(-0.8753628852014973 6.622745493860366e-15 -7.03697141785746e-07)
(-0.8753628852017437 8.178781707760766e-15 -7.036967988774375e-07)
(-0.875362885201901 5.687437760711726e-15 -7.036970483910338e-07)
(-0.8753628852020325 6.228057289051845e-15 -7.036970355970327e-07)
(-0.8753628852020555 5.3403792143689e-15 -7.03697400241717e-07)
(-0.8753628852022847 1.218056829904747e-14 -7.036974336735059e-07)
(-0.8753628852011166 -6.73956649238127e-14 -7.036999971587309e-07)
(-0.7926717924774863 -2.760560175035376e-14 -1.169266066447461e-06)
(-0.7926717924739224 6.295512664995656e-15 -1.169284036604338e-06)
(-0.7926717924774153 -9.22362804446097e-14 -1.16924976139845e-06)
(-0.7926717924719102 -2.568541220850949e-14 -1.16928753238605e-06)
(-0.7926717924760193 -3.12084417564651e-14 -1.16924709527355e-06)
(-0.7926717924712561 -1.120177011960434e-14 -1.169287650598787e-06)
(-0.79267179247536 -1.93725336711087e-14 -1.169246716301796e-06)
(-0.7926717924708963 6.666812611889837e-15 -1.169286057458888e-06)
(-0.792671792475143 -1.15555717189889e-14 -1.169247762422429e-06)
(-0.7926717924712064 -7.668619211972468e-15 -1.169283499732656e-06)
(-0.792671792474541 2.171788387107946e-15 -1.169249518857953e-06)
(-0.7926717924713761 -5.477357533550783e-15 -1.169280586099481e-06)
(-0.7926717924743819 -2.813965402691275e-15 -1.169251471508891e-06)
(-0.792671792471337 3.050781283963995e-15 -1.16927770017069e-06)
(-0.7926717924741686 -8.984185200187432e-15 -1.169253322305604e-06)
(-0.7926717924714939 -6.61129741761725e-15 -1.169275036094355e-06)
(-0.7926717924736179 1.396720094985444e-14 -1.169254927927496e-06)
(-0.792671792471915 -4.638456211674898e-15 -1.169272664988899e-06)
(-0.7926717924736748 -2.820164950943927e-15 -1.16925623668236e-06)
(-0.792671792471923 -1.955614104712074e-15 -1.169270588542034e-06)
(-0.792671792473517 -3.616985374137701e-15 -1.169257243987792e-06)
(-0.7926717924719665 8.339566835818971e-16 -1.169268773359931e-06)
(-0.7926717924734525 4.785819301589121e-15 -1.169257965354091e-06)
(-0.7926717924720984 7.908666185495063e-15 -1.169267170501662e-06)
(-0.7926717924736245 6.006559010641552e-15 -1.169258421419816e-06)
(-0.7926717924724728 -1.045119551816037e-14 -1.169265725597423e-06)
(-0.7926717924731492 -1.550868898229897e-15 -1.169258630255645e-06)
(-0.7926717924724245 5.983034661949389e-15 -1.169264383602348e-06)
(-0.792671792473531 1.501417439861122e-14 -1.169258603825637e-06)
(-0.7926717924728123 2.11830574297362e-14 -1.169263090748655e-06)
(-0.7926717924741381 6.549304700534195e-15 -1.169258346869073e-06)
(-0.7926717924734668 5.918311430287118e-15 -1.169261795285427e-06)
(-0.7926717924739872 1.039887607416927e-14 -1.16925785720684e-06)
(-0.7926717924738091 -2.711733068933314e-15 -1.169260448065443e-06)
(-0.7926717924742102 2.909153831157561e-16 -1.169257127278512e-06)
(-0.7926717924738506 9.255571796288799e-15 -1.16925900374514e-06)
(-0.7926717924744749 9.162631497978905e-15 -1.169256147085393e-06)
(-0.7926717924742263 6.613720513131352e-15 -1.16925742341619e-06)
(-0.7926717924747622 5.997139786470779e-15 -1.169254908972745e-06)
(-0.7926717924743064 1.861340391374637e-14 -1.169255679489544e-06)
(-0.7926717924753612 1.52752680573754e-14 -1.16925341504556e-06)
(-0.7926717924751754 1.390307469972743e-14 -1.16925376374544e-06)
(-0.7926717924756941 2.41219066460149e-14 -1.169251688086314e-06)
(-0.7926717924759519 7.839262855699201e-15 -1.169251699294419e-06)
(-0.7926717924762773 1.085606006882071e-14 -1.169249786202938e-06)
(-0.7926717924764519 1.730002285783829e-14 -1.169249556091887e-06)
(-0.7926717924768648 1.661699328966374e-14 -1.169247819976511e-06)
(-0.7926717924771762 2.063265693627862e-14 -1.169247467085582e-06)
(-0.7926717924776532 1.617204704166015e-14 -1.169245966851086e-06)
(-0.7926717924777285 1.772814121377541e-14 -1.169245637001603e-06)
(-0.7926717924781915 7.547430246511408e-15 -1.169244471651691e-06)
(-0.7926717924784976 1.693533529346305e-14 -1.169244329617172e-06)
(-0.7926717924787632 1.786788114604435e-14 -1.169243617800943e-06)
(-0.7926717924790089 1.226931286096363e-14 -1.169243823391081e-06)
(-0.792671792479106 9.001295928106844e-15 -1.169243668689776e-06)
(-0.7926717924790107 1.939392225126535e-15 -1.169244231532959e-06)
(-0.7926717924789068 1.952912265470006e-15 -1.169244724612271e-06)
(-0.7926717924774311 -1.241399101314759e-13 -1.169249463176043e-06)
(-0.7126813034392515 -1.0350202748485e-13 -1.617722827525625e-06)
(-0.7126813034337394 4.270969703587654e-15 -1.617753228184167e-06)
(-0.712681303439082 -1.472387745370094e-13 -1.617701363035383e-06)
(-0.7126813034317097 -5.560269325757716e-14 -1.617757145846322e-06)
(-0.7126813034371479 -5.29839180799836e-14 -1.617698816408945e-06)
(-0.712681303430824 -2.236922325531224e-14 -1.617755948667063e-06)
(-0.7126813034363846 -3.463418452926736e-14 -1.617699501592334e-06)
(-0.7126813034301829 4.133149703379104e-15 -1.61775265826247e-06)
(-0.7126813034358825 -2.292871941320091e-15 -1.617701729879621e-06)
(-0.7126813034311672 -1.96072603784098e-14 -1.617748518277192e-06)
(-0.7126813034351145 2.982867452883151e-15 -1.617704499585881e-06)
(-0.7126813034311545 -6.611413272446965e-15 -1.617744273877998e-06)
(-0.7126813034351158 -7.690670670912045e-15 -1.617707241915998e-06)
(-0.7126813034309183 -1.298693132724289e-15 -1.617740305823637e-06)
(-0.7126813034346438 -4.574751134265538e-15 -1.617709682653686e-06)
(-0.7126813034315143 -2.092656095982897e-14 -1.617736766323632e-06)
(-0.7126813034337125 2.228705950287325e-14 -1.61771171829619e-06)
(-0.7126813034317531 -1.340704123692574e-15 -1.617733681785539e-06)
(-0.7126813034341168 -3.519021728139636e-15 -1.617713332817337e-06)
(-0.7126813034318378 -2.334078694984024e-15 -1.617731016083295e-06)
(-0.7126813034339716 -1.469368397287751e-15 -1.617714548971818e-06)
(-0.7126813034320605 -8.688102684718476e-16 -1.617728705615052e-06)
(-0.7126813034338385 6.333155184916419e-15 -1.617715401844729e-06)
(-0.712681303432099 1.229977515653789e-14 -1.617726677230586e-06)
(-0.7126813034339511 1.631408713464553e-14 -1.617715925369933e-06)
(-0.7126813034327236 -2.31906336052078e-14 -1.617724856551936e-06)
(-0.7126813034332863 -4.939095401553182e-15 -1.617716145915431e-06)
(-0.7126813034324778 1.873934387598788e-14 -1.617723171241743e-06)
(-0.712681303434039 2.319028563847342e-14 -1.617716079624873e-06)
(-0.712681303432779 3.639779142737163e-14 -1.617721551773216e-06)
(-0.7126813034346383 2.485627862715512e-14 -1.617715731856447e-06)
(-0.7126813034340099 1.000242756834908e-15 -1.617719931245142e-06)
(-0.7126813034342554 1.613063455325572e-14 -1.617715097760683e-06)
(-0.7126813034342026 7.122540758377407e-15 -1.617718245201831e-06)
(-0.712681303434905 1.792002488673471e-15 -1.617714163930314e-06)
(-0.7126813034343434 1.488344883660683e-14 -1.617716432170764e-06)
(-0.7126813034351934 1.949410566493618e-14 -1.617712911394654e-06)
(-0.7126813034348869 1.461940331165213e-14 -1.617714435835291e-06)
(-0.7126813034356236 5.921882821861307e-15 -1.617711320484315e-06)
(-0.7126813034347622 3.33209974345013e-14 -1.617712209748065e-06)
(-0.7126813034362233 3.927290532427192e-14 -1.617709378710021e-06)
(-0.7126813034361973 2.062739244794927e-14 -1.617709725873401e-06)
(-0.7126813034365344 4.275209285986579e-14 -1.617707093021377e-06)
(-0.7126813034370245 2.449289551202376e-14 -1.617706988473999e-06)
(-0.712681303437544 2.406232098484339e-14 -1.6177045077199e-06)
(-0.7126813034377695 3.461547909817197e-14 -1.61770405422719e-06)
(-0.7126813034384268 3.536630818896809e-14 -1.617701728450014e-06)
(-0.7126813034387712 4.342513679399062e-14 -1.617701057598272e-06)
(-0.7126813034395859 2.900222072170468e-14 -1.617698948844219e-06)
(-0.7126813034394098 3.149598943352321e-14 -1.617698234756926e-06)
(-0.7126813034401582 3.07913482293074e-14 -1.617696468750767e-06)
(-0.7126813034408822 3.371904777703868e-14 -1.617695929525796e-06)
(-0.7126813034411024 2.817447700821137e-14 -1.617694683186335e-06)
(-0.7126813034414605 2.009136756767946e-14 -1.617694563945523e-06)
(-0.7126813034415163 8.455877524314411e-15 -1.617694037654626e-06)
(-0.7126813034413496 -1.375222321709657e-14 -1.617694496781848e-06)
(-0.7126813034407435 -2.274331779095348e-14 -1.617695065825059e-06)
(-0.7126813034391165 -1.86911891726574e-13 -1.617700889840398e-06)
(-0.6387062776185745 -2.204963914635814e-13 -2.030127384645415e-06)
(-0.6387062776109391 -1.238340092310506e-15 -2.030176347066628e-06)
(-0.6387062776180843 -1.993099809387798e-13 -2.030103597980254e-06)
(-0.6387062776092004 -9.85159479097037e-14 -2.030178465424444e-06)
(-0.6387062776156747 -7.888262768729871e-14 -2.030102776769183e-06)
(-0.6387062776081482 -3.493161998687262e-14 -2.030174762376387e-06)
(-0.6387062776148292 -5.656659490372379e-14 -2.030105332932628e-06)
(-0.6387062776072485 -6.924021865169938e-15 -2.030169236084507e-06)
(-0.6387062776138372 2.31551221317483e-14 -2.030109033529836e-06)
(-0.6387062776088853 -3.397209624744624e-14 -2.030163384666751e-06)
(-0.6387062776130744 -8.072171955765077e-16 -2.030112806074075e-06)
(-0.6387062776086206 -3.361309817913295e-15 -2.030157901749321e-06)
(-0.6387062776132429 -1.780009923295975e-14 -2.030116182408499e-06)
(-0.6387062776082042 -1.298567540881285e-14 -2.030153042775371e-06)
(-0.6387062776124415 1.110300413087896e-14 -2.030119005843058e-06)
(-0.63870627760927 -4.373784910548415e-14 -2.030148849701643e-06)
(-0.6387062776112131 2.482380796300699e-14 -2.030121262568571e-06)
(-0.6387062776091438 1.132337773300349e-14 -2.030145270715155e-06)
(-0.638706277611965 -4.027964371672803e-15 -2.030122996075982e-06)
(-0.6387062776093198 -3.62482075435211e-15 -2.03014221816689e-06)
(-0.638706277611822 7.304640097111271e-15 -2.030124266300086e-06)
(-0.6387062776098413 -2.880574356483293e-15 -2.030139595030468e-06)
(-0.6387062776116674 4.671973680589107e-15 -2.030125130812403e-06)
(-0.6387062776097431 1.478419464471308e-14 -2.030137305972827e-06)
(-0.6387062776116655 3.215149222293033e-14 -2.030125636706996e-06)
(-0.6387062776105324 -3.997029520841765e-14 -2.030135261047947e-06)
(-0.6387062776109228 -1.384605532986314e-14 -2.03012581748509e-06)
(-0.6387062776100579 4.023344973517684e-14 -2.030133376025148e-06)
(-0.6387062776119941 2.828274713406922e-14 -2.030125692255518e-06)
(-0.6387062776102421 4.997535860154879e-14 -2.030131571201257e-06)
(-0.6387062776124376 5.736899714294456e-14 -2.03012526609521e-06)
(-0.6387062776120424 -1.005556437281151e-14 -2.030129769845413e-06)
(-0.6387062776119122 1.688557817543987e-14 -2.030124530878663e-06)
(-0.6387062776119112 2.99453050425084e-14 -2.030127896862362e-06)
(-0.6387062776129629 6.157899898022783e-15 -2.030123466720581e-06)
(-0.6387062776122592 1.840101674635022e-14 -2.030125878157822e-06)
(-0.6387062776132758 3.364249189049207e-14 -2.030122044337334e-06)
(-0.6387062776129637 2.585413864879447e-14 -2.0301236415555e-06)
(-0.6387062776138311 -8.104322200506098e-16 -2.030120228905206e-06)
(-0.6387062776125546 4.648222247421267e-14 -2.030121120074087e-06)
(-0.6387062776142606 7.726342405797285e-14 -2.030117986723478e-06)
(-0.6387062776145482 2.535198051631401e-14 -2.03011825904969e-06)
(-0.6387062776145432 5.871238996015447e-14 -2.030115296447675e-06)
(-0.6387062776151229 5.213967013951342e-14 -2.030115029363762e-06)
(-0.6387062776159208 4.347365281944343e-14 -2.030112167339231e-06)
(-0.6387062776161312 5.775583759758028e-14 -2.030111449222951e-06)
(-0.638706277617085 6.087647540200219e-14 -2.030108667331889e-06)
(-0.638706277617445 7.396155364488329e-14 -2.030107616884668e-06)
(-0.6387062776185501 4.25059112689807e-14 -2.030104961596231e-06)
(-0.6387062776181062 4.534666962279446e-14 -2.030103752115992e-06)
(-0.6387062776190396 7.179700383943543e-14 -2.030101354732805e-06)
(-0.6387062776202872 5.953900713212829e-14 -2.03010023182039e-06)
(-0.6387062776204553 3.837100146994474e-14 -2.030098312222718e-06)
(-0.6387062776209006 3.056694848364796e-14 -2.030097588649848e-06)
(-0.6387062776210088 7.51327733271115e-15 -2.03009643076477e-06)
(-0.6387062776208801 -4.185346660350389e-14 -2.030096382304004e-06)
(-0.6387062776198376 -6.174400116376991e-14 -2.030096435413713e-06)
(-0.6387062776181005 -2.47073632148622e-13 -2.030101834488739e-06)
(-0.5740796958509383 -3.798335459700952e-13 -2.387888620316967e-06)
(-0.5740796958411726 -1.855294683299693e-14 -2.38796062084664e-06)
(-0.5740796958497717 -2.408366858516997e-13 -2.387866377162765e-06)
(-0.5740796958398662 -1.498929029690141e-13 -2.387958833765712e-06)
(-0.5740796958471415 -1.065881940889283e-13 -2.387868570978307e-06)
(-0.5740796958388433 -5.141768988418742e-14 -2.387951861387022e-06)
(-0.5740796958460861 -8.35637402324444e-14 -2.387873384691581e-06)
(-0.5740796958378451 -2.849214884434919e-14 -2.387943976998327e-06)
(-0.5740796958447272 6.090245442977481e-14 -2.387878508708675e-06)
(-0.5740796958397389 -4.684103057018632e-14 -2.387936579573441e-06)
(-0.574079695844066 -8.632592481208433e-15 -2.387883063354408e-06)
(-0.5740796958393526 2.34268653345725e-15 -2.387930121388734e-06)
(-0.5740796958442377 -3.097810263084777e-14 -2.387886811665013e-06)
(-0.5740796958388916 -3.148105422183238e-14 -2.38792464622894e-06)
(-0.5740796958432458 3.605445419365533e-14 -2.38788976994876e-06)
(-0.5740796958401583 -7.172173859171549e-14 -2.387920052464409e-06)
(-0.5740796958419031 1.938623898083301e-14 -2.387892034031365e-06)
(-0.5740796958397786 3.129140873551621e-14 -2.387916200652728e-06)
(-0.5740796958427957 -5.76052688420071e-15 -2.387893711695637e-06)
(-0.5740796958398638 -1.06360692274787e-14 -2.387912952271788e-06)
(-0.5740796958424833 2.439675012204637e-14 -2.387894898956e-06)
(-0.5740796958407235 -7.012396236204176e-16 -2.387910181441076e-06)
(-0.5740796958424897 1.522780344310145e-15 -2.38789567293945e-06)
(-0.5740796958406293 1.554590777002225e-14 -2.387907776538164e-06)
(-0.5740796958424441 4.996916891269721e-14 -2.387896090877214e-06)
(-0.5740796958413561 -5.780010435037569e-14 -2.387905638202271e-06)
(-0.5740796958417513 -2.739458394007935e-14 -2.38789619098823e-06)
(-0.5740796958408013 6.667950029779037e-14 -2.387903676312641e-06)
(-0.5740796958428697 3.145010720839893e-14 -2.387895993791885e-06)
(-0.5740796958409495 6.031067773675389e-14 -2.387901806745792e-06)
(-0.5740796958432245 1.009550228819296e-13 -2.387895503418842e-06)
(-0.5740796958430412 -2.299403767481107e-14 -2.38789994840759e-06)
(-0.5740796958427558 1.123081360689197e-14 -2.387894708594511e-06)
(-0.5740796958426996 6.048004808286763e-14 -2.387898020699831e-06)
(-0.5740796958439188 1.585297946618608e-14 -2.387893583652346e-06)
(-0.5740796958432722 2.339243188240135e-14 -2.387895941562212e-06)
(-0.5740796958443991 4.988270624893396e-14 -2.387892089852296e-06)
(-0.5740796958440531 3.771848836209437e-14 -2.387893626756774e-06)
(-0.574079695844921 -1.370701645464515e-14 -2.387890177572728e-06)
(-0.5740796958434536 5.558164596862245e-14 -2.387890990951363e-06)
(-0.5740796958451955 1.251147999089792e-13 -2.387887790598988e-06)
(-0.5740796958456968 3.087636247142804e-14 -2.387887952073997e-06)
(-0.5740796958455527 6.920757191894325e-14 -2.387884874460203e-06)
(-0.5740796958460282 8.433399174164574e-14 -2.387884441580217e-06)
(-0.57407969584705 6.807408037678443e-14 -2.387881392051269e-06)
(-0.5740796958472165 8.831812213799534e-14 -2.387880424406781e-06)
(-0.5740796958484587 9.336904517965107e-14 -2.38787735160885e-06)
(-0.5740796958488645 1.094375260583701e-13 -2.387875934552174e-06)
(-0.5740796958500259 5.66713846520467e-14 -2.387872852723638e-06)
(-0.5740796958495302 5.744195153967954e-14 -2.387871130613417e-06)
(-0.5740796958504993 1.259256620831479e-13 -2.387868151350765e-06)
(-0.5740796958521073 9.646003160227441e-14 -2.387866364207508e-06)
(-0.5740796958522935 5.117674793180592e-14 -2.387863722597584e-06)
(-0.5740796958527711 4.378320949324746e-14 -2.387862220330148e-06)
(-0.5740796958530175 8.613076161030742e-15 -2.387860256989698e-06)
(-0.5740796958529545 -7.545769243429803e-14 -2.387859390956497e-06)
(-0.5740796958517959 -1.103969934066467e-13 -2.387858491533565e-06)
(-0.57407969584997 -2.973928282490276e-13 -2.387862215523427e-06)
(-0.5203160957807578 -5.791060987037947e-13 -2.682957073111677e-06)
(-0.5203160957691136 -5.500961669622345e-14 -2.683052707079746e-06)
(-0.5203160957787167 -2.722027074231221e-13 -2.682939583958555e-06)
(-0.5203160957681606 -2.046619762213833e-13 -2.683045876331468e-06)
(-0.5203160957760911 -1.308259137228258e-13 -2.682945301511624e-06)
(-0.5203160957673758 -7.545681361732708e-14 -2.683035531500427e-06)
(-0.5203160957746458 -1.103946952688115e-13 -2.682952256745603e-06)
(-0.5203160957664508 -5.606408821374991e-14 -2.683025570718706e-06)
(-0.5203160957732499 9.93410563478925e-14 -2.682958482081307e-06)
(-0.5203160957681275 -5.771630263548999e-14 -2.683016994970386e-06)
(-0.5203160957726524 -1.647527327734506e-14 -2.682963486878281e-06)
(-0.5203160957678469 5.378063023016158e-15 -2.683009897627683e-06)
(-0.5203160957726077 -4.295010473543574e-14 -2.682967327740129e-06)
(-0.5203160957674908 -5.141615349173574e-14 -2.6830040831893e-06)
(-0.5203160957717122 6.203858676825433e-14 -2.682970201614002e-06)
(-0.5203160957685706 -1.009129858117579e-13 -2.682999310119843e-06)
(-0.5203160957704145 1.049736329132658e-14 -2.682972305720943e-06)
(-0.5203160957682715 5.326992988275002e-14 -2.682995362355575e-06)
(-0.5203160957712645 -8.108006540097717e-15 -2.682973801847342e-06)
(-0.5203160957681827 -2.448235873672094e-14 -2.682992061323908e-06)
(-0.5203160957706411 4.513759324743835e-14 -2.682974813547466e-06)
(-0.520316095769133 6.033312182105201e-15 -2.682989261266501e-06)
(-0.5203160957708278 9.95314081057149e-16 -2.682975431245082e-06)
(-0.5203160957692584 1.693829703913142e-14 -2.682986841500571e-06)
(-0.5203160957709133 6.400071489014381e-14 -2.682975718030176e-06)
(-0.5203160957696796 -7.361161364915728e-14 -2.682984699207841e-06)
(-0.5203160957703455 -4.093221145636416e-14 -2.682975714155418e-06)
(-0.5203160957693018 9.043028465131028e-14 -2.682982743480385e-06)
(-0.5203160957711953 3.572126058373468e-14 -2.682975440163805e-06)
(-0.520316095769523 7.089326376767483e-14 -2.682980890402967e-06)
(-0.5203160957716888 1.47442525165679e-13 -2.68297489893356e-06)
(-0.5203160957715091 -3.260463030908099e-14 -2.682979058936155e-06)
(-0.5203160957714243 3.207511423075513e-15 -2.682974076716639e-06)
(-0.5203160957712795 8.785503009394463e-14 -2.682977167380208e-06)
(-0.5203160957723894 2.997270403839916e-14 -2.682972943620047e-06)
(-0.5203160957719839 3.566908654895578e-14 -2.682975130260212e-06)
(-0.52031609577314 6.69267830187637e-14 -2.682971453785046e-06)
(-0.5203160957727109 4.694341682297016e-14 -2.682972855987165e-06)
(-0.5203160957734599 -2.821159627012236e-14 -2.682969545738204e-06)
(-0.5203160957721447 6.290956283473113e-14 -2.682970245593815e-06)
(-0.5203160957737792 1.748335795759369e-13 -2.682967143860621e-06)
(-0.5203160957742378 4.042721602149729e-14 -2.682967193768052e-06)
(-0.5203160957743109 7.785063404180371e-14 -2.682964162868688e-06)
(-0.5203160957746321 1.141754397351339e-13 -2.682963594782202e-06)
(-0.5203160957756476 9.313927484495569e-14 -2.682960518742809e-06)
(-0.5203160957758598 1.259512916645725e-13 -2.682959357825e-06)
(-0.5203160957772892 1.337788779915026e-13 -2.682956152709028e-06)
(-0.5203160957776995 1.447519501464034e-13 -2.682954440344243e-06)
(-0.5203160957787103 7.234248058844341e-14 -2.682951078364092e-06)
(-0.5203160957784385 7.053301262800178e-14 -2.682948910472205e-06)
(-0.5203160957793306 1.825639407872262e-13 -2.682945462346096e-06)
(-0.520316095780922 1.410970439947228e-13 -2.682943043216393e-06)
(-0.5203160957812853 6.977252316012696e-14 -2.682939728824195e-06)
(-0.5203160957818017 5.98013527427529e-14 -2.68293741277637e-06)
(-0.5203160957821463 1.22305780694812e-14 -2.682934603463106e-06)
(-0.5203160957820774 -1.056551653907173e-13 -2.682932793652614e-06)
(-0.52031609578121 -1.602629913783207e-13 -2.682930805512691e-06)
(-0.520316095779332 -3.348260099602564e-13 -2.682932356166507e-06)
(-0.476561324848667 -8.152161372168386e-13 -2.920564994785464e-06)
(-0.4765613248356226 -1.12241890362753e-13 -2.920681208880717e-06)
(-0.4765613248458616 -2.977090146262179e-13 -2.920553594430256e-06)
(-0.4765613248348135 -2.602588841316688e-13 -2.920669222128241e-06)
(-0.4765613248432692 -1.477923693634722e-13 -2.920562682648858e-06)
(-0.476561324834376 -1.111196950680794e-13 -2.920655867982805e-06)
(-0.4765613248413682 -1.336180724514326e-13 -2.920571362075157e-06)
(-0.4765613248336636 -8.277627160318478e-14 -2.920644304384812e-06)
(-0.4765613248401817 1.294064055829145e-13 -2.920578272581631e-06)
(-0.4765613248348078 -6.862641473240632e-14 -2.920634956637168e-06)
(-0.4765613248395563 -2.028603306633941e-14 -2.920583406407699e-06)
(-0.4765613248347671 1.535989731225819e-15 -2.92062752376531e-06)
(-0.4765613248391708 -5.054663174332988e-14 -2.920587114026423e-06)
(-0.4765613248346233 -6.697845105850058e-14 -2.920621587990124e-06)
(-0.4765613248385849 8.124680035889049e-14 -2.920589749438708e-06)
(-0.476561324835248 -1.286182453424778e-13 -2.920616792486258e-06)
(-0.4765613248374292 4.707120805828458e-15 -2.920591588946155e-06)
(-0.4765613248352843 6.906208597214854e-14 -2.92061286428381e-06)
(-0.4765613248380121 -1.247850740478429e-14 -2.920592832354282e-06)
(-0.4765613248350979 -3.996006490864674e-14 -2.920609598449541e-06)
(-0.4765613248373221 6.483803718630999e-14 -2.920593620345815e-06)
(-0.4765613248358352 1.417981578681535e-14 -2.920606838522401e-06)
(-0.4765613248374567 7.621036329670851e-15 -2.920594050167278e-06)
(-0.4765613248362998 2.226200337375537e-14 -2.920604461005854e-06)
(-0.4765613248378037 6.981766591418058e-14 -2.920594186871145e-06)
(-0.4765613248363071 -8.574548961672044e-14 -2.920602364121842e-06)
(-0.4765613248373969 -4.90618873222104e-14 -2.920594070579916e-06)
(-0.4765613248362724 1.053040954850488e-13 -2.92060045968364e-06)