/*--------------------------------*- C++ -*----------------------------------*\
| =========                 |                                                 |
| \\      /  F ield         | OpenFOAM: The Open Source CFD Toolbox           |
|  \\    /   O peration     | Version:  v1812                                 |
|   \\  /    A nd           | Web:      www.OpenFOAM.com                      |
|    \\/     M anipulation  |                                                 |
\*---------------------------------------------------------------------------*/
FoamFile
{
    version     2.0;
    format      ascii;
    class       volScalarField;
    location    "10000";
    object      nut;
}
// * * * * * * * * * * * * * * * * * * * * * * * * * * * * * * * * * * * * * //

dimensions      [0 2 -1 0 0 0 0];


internalField   nonuniform List<scalar> 
3770
(
5.73486331133394e-06
5.734863311319332e-06
5.734863311316979e-06
5.734863311218221e-06
5.734863311159612e-06
5.734863311311908e-06
5.734863311386128e-06
5.734863311287822e-06
5.734863311232232e-06
5.7348633113397e-06
5.734863311423686e-06
5.73486331130404e-06
5.734863311307971e-06
5.734863311307966e-06
5.734863311255685e-06
5.734863311378821e-06
5.734863311417895e-06
5.734863311392312e-06
5.734863311426836e-06
5.73486331131818e-06
5.734863311271317e-06
5.734863311376156e-06
5.734863311448593e-06
5.734863311430147e-06
5.734863311416981e-06
5.734863311312729e-06
5.734863311244834e-06
5.73486331131997e-06
5.73486331133485e-06
5.734863311282978e-06
5.734863311375159e-06
5.734863311356646e-06
5.734863311281517e-06
5.734863311385327e-06
5.734863311361533e-06
5.734863311254812e-06
5.734863311326626e-06
5.734863311338163e-06
5.734863311288596e-06
5.734863311374953e-06
5.734863311357721e-06
5.734863311289611e-06
5.734863311427853e-06
5.734863311400058e-06
5.734863311223085e-06
5.734863311267913e-06
5.734863311324033e-06
5.734863311348366e-06
5.734863311255655e-06
5.734863311190774e-06
5.734863311212414e-06
5.734863311232524e-06
5.734863311326869e-06
5.734863311411791e-06
5.734863311329828e-06
5.734863311258302e-06
5.734863311325117e-06
5.734863311356969e-06
2.181607484578819e-06
2.181607483243486e-06
2.181607483908118e-06
2.181607482643388e-06
2.181607483298275e-06
2.181607483211263e-06
2.18160748426313e-06
2.18160748315375e-06
2.181607483113802e-06
2.181607483260086e-06
2.181607484108388e-06
2.18160748300692e-06
2.181607483291163e-06
2.181607483209452e-06
2.181607482944655e-06
2.181607483385816e-06
2.18160748400599e-06
2.181607483716681e-06
2.181607484126701e-06
2.181607483478362e-06
2.181607483147865e-06
2.181607483648644e-06
2.18160748414783e-06
2.181607483942343e-06
2.181607484095462e-06
2.181607483521669e-06
2.181607482909263e-06
2.181607483308705e-06
2.18160748346013e-06
2.18160748300042e-06
2.181607483764944e-06
2.181607483791839e-06
2.181607483050771e-06
2.181607483869647e-06
2.181607483895184e-06
2.181607483036487e-06
2.181607483472138e-06
2.181607483597861e-06
2.181607483188196e-06
2.181607483856032e-06
2.181607483933908e-06
2.181607483298636e-06
2.181607484291263e-06
2.181607484313979e-06
2.181607483358938e-06
2.181607483813693e-06
2.181607483989648e-06
2.181607484147935e-06
2.181607483790836e-06
2.181607483564551e-06
2.181607483682888e-06
2.181607484090147e-06
2.181607484615145e-06
2.181607485056856e-06
2.181607484701782e-06
2.181607484592005e-06
2.181607484898884e-06
2.181607485302597e-06
1.146746525790612e-05
1.146746524967963e-05
1.146746525417851e-05
1.146746524794221e-05
1.146746525388972e-05
1.146746525074689e-05
1.14674652535187e-05
1.146746525134553e-05
1.146746524909639e-05
1.146746524958704e-05
1.146746525456892e-05
1.146746524767855e-05
1.146746524988986e-05
1.146746525225314e-05
1.146746524790363e-05
1.146746524945868e-05
1.14674652538648e-05
1.146746524877459e-05
1.14674652509599e-05
1.146746525269178e-05
1.146746524809741e-05
1.146746525030888e-05
1.146746525465888e-05
1.146746524967146e-05
1.146746525117181e-05
1.146746525311487e-05
1.14674652479835e-05
1.146746525004303e-05
1.14674652535934e-05
1.146746524850318e-05
1.146746525099912e-05
1.146746525403523e-05
1.146746524874395e-05
1.146746525123165e-05
1.146746525434099e-05
1.146746524871634e-05
1.146746525098118e-05
1.146746525440951e-05
1.146746524944496e-05
1.146746525189539e-05
1.146746525512665e-05
1.146746524999955e-05
1.146746525303882e-05
1.146746525619916e-05
1.146746524992951e-05
1.146746525064205e-05
1.146746525427425e-05
1.146746525411057e-05
1.146746525246918e-05
1.146746525430832e-05
1.14674652546121e-05
1.146746525424925e-05
1.146746525762861e-05
1.146746525933143e-05
1.146746525729132e-05
1.14674652595337e-05
1.14674652589322e-05
1.146746525944147e-05
4.115653201359351e-05
4.115653198393338e-05
4.115653199735202e-05
4.115653198103116e-05
4.115653200527021e-05
4.115653198540431e-05
4.115653197200603e-05
4.115653199318699e-05
4.115653198291543e-05
4.115653197010077e-05
4.115653199821451e-05
4.115653197893185e-05
4.115653196830125e-05
4.115653199580379e-05
4.115653197828482e-05
4.115653196754197e-05
4.115653199729321e-05
4.115653197949806e-05
4.115653196900018e-05
4.115653199586648e-05
4.115653197846584e-05
4.115653196853523e-05
4.115653199862032e-05
4.115653198131993e-05
4.115653197025732e-05
4.115653199747528e-05
4.115653197908469e-05
4.115653196902436e-05
4.115653199798095e-05
4.115653198035342e-05
4.115653197066472e-05
4.115653199887124e-05
4.1156531980715e-05
4.115653197127946e-05
4.115653199970689e-05
4.115653198119676e-05
4.115653197161169e-05
4.115653200039202e-05
4.115653198235823e-05
4.115653197280593e-05
4.115653200123269e-05
4.115653198339011e-05
4.115653197483606e-05
4.115653200389352e-05
4.11565319845134e-05
4.115653197379501e-05
4.115653200321597e-05
4.115653199005539e-05
4.115653197680426e-05
4.115653200413603e-05
4.115653199214334e-05
4.115653198170695e-05
4.115653201116452e-05
4.115653200294045e-05
4.115653199103153e-05
4.115653202308047e-05
4.115653201201934e-05
4.115653200391564e-05
0.0001062964444650877
0.0001062964444017188
0.0001062964444225182
0.0001062964443958346
0.0001062964444476254
0.0001062964443993203
0.0001062964443302963
0.000106296444419171
0.0001062964443813867
0.0001062964443401759
0.0001062964444231106
0.000106296444379484
0.0001062964443265533
0.0001062964444258223
0.0001062964443720537
0.0001062964443271511
0.0001062964444215611
0.0001062964443748639
0.0001062964443258877
0.0001062964444231862
0.0001062964443725414
0.0001062964443272003
0.0001062964444242391
0.0001062964443785372
0.0001062964443306658
0.0001062964444272801
0.0001062964443750481
0.0001062964443288155
0.0001062964444259007
0.0001062964443780647
0.0001062964443314997
0.0001062964444283706
0.0001062964443778496
0.0001062964443326428
0.0001062964444297514
0.0001062964443793876
0.0001062964443334331
0.0001062964444308821
0.0001062964443796883
0.0001062964443334229
0.0001062964444301977
0.0001062964443800631
0.000106296444335503
0.0001062964444336352
0.0001062964443816811
0.0001062964443349308
0.0001062964444324226
0.0001062964443853384
0.0001062964443383782
0.0001062964444365434
0.0001062964443898059
0.0001062964443456187
0.0001062964444449472
0.0001062964444074134
0.0001062964443652466
0.0001062964444760385
0.0001062964444407615
0.0001062964444095473
0.0002199143647003671
0.000219914364637637
0.0002199143646505748
0.000219914364621207
0.0002199143646992941
0.0002199143646112615
0.0002199143644203867
0.0002199143646473705
0.0002199143645483879
0.0002199143644618688
0.0002199143646469091
0.0002199143645600423
0.0002199143644188399
0.0002199143646636602
0.0002199143645350751
0.0002199143644254875
0.0002199143646450199
0.0002199143645440819
0.0002199143644163865
0.0002199143646538419
0.0002199143645361108
0.0002199143644220424
0.0002199143646504001
0.0002199143645504454
0.0002199143644283264
0.0002199143646623005
0.0002199143645419459
0.0002199143644241078
0.0002199143646550805
0.0002199143645483818
0.0002199143644284164
0.0002199143646607709
0.0002199143645454223
0.000219914364429441
0.0002199143646617493
0.0002199143645481091
0.0002199143644296421
0.0002199143646625932
0.0002199143645449439
0.0002199143644250909
0.0002199143646557045
0.0002199143645405584
0.0002199143644242922
0.0002199143646583038
0.000219914364539901
0.0002199143644190731
0.0002199143646498617
0.0002199143645351582
0.0002199143644179836
0.000219914364652882
0.0002199143645372569
0.0002199143644215201
0.0002199143646567715
0.0002199143645589905
0.0002199143644537808
0.0002199143647154219
0.0002199143646338029
0.000219914364552563
0.0003874703348242278
0.000387470334862907
0.0003874703348557995
0.0003874703348237588
0.0003874703349073812
0.0003874703347664086
0.0003874703343984558
0.000387470334827281
0.0003874703346327441
0.0003874703344943473
0.000387470334823053
0.0003874703346709547
0.0003874703344061232
0.0003874703348628886
0.0003874703346184179
0.0003874703344240104
0.0003874703348216742
0.000387470334638246
0.0003874703344018561
0.0003874703348418505
0.0003874703346203206
0.0003874703344145384
0.0003874703348311154
0.0003874703346484174
0.000387470334424998
0.0003874703348570854
0.0003874703346308609
0.0003874703344159423
0.0003874703348394022
0.0003874703346422756
0.0003874703344225011
0.0003874703348498585
0.0003874703346336052
0.0003874703344218057
0.0003874703348484871
0.0003874703346368564
0.0003874703344199245
0.0003874703348481239
0.0003874703346271716
0.0003874703344063894
0.000387470334828779
0.0003874703346120585
0.0003874703343981326
0.0003874703348272026
0.0003874703346044669
0.000387470334380836
0.0003874703348018694
0.0003874703345819517
0.000387470334367338
0.0003874703347965741
0.0003874703345741797
0.0003874703343572849
0.0003874703347861385
0.0003874703345921982
0.0003874703343990592
0.0003874703348726255
0.0003874703347134485
0.0003874703345619935
0.0006079092613834406
0.0006079092615917757
0.0006079092615914556
0.0006079092616102775
0.000607909261658014
0.0006079092614506416
0.0006079092608875407
0.0006079092615489369
0.0006079092612378147
0.0006079092610544658
0.0006079092615465985
0.0006079092613113979
0.000607909260915168
0.0006079092616151406
0.0006079092612266801
0.0006079092609476938
0.0006079092615473588
0.0006079092612596272
0.0006079092609095337
0.0006079092615813259
0.0006079092612298735
0.0006079092609311928
0.0006079092615622497
0.0006079092612755466
0.0006079092609474821
0.0006079092616061352
0.0006079092612462447
0.0006079092609311459
0.0006079092615744174
0.0006079092612634514
0.0006079092609405522
0.000607909261590457
0.0006079092612462578
0.0006079092609359527
0.0006079092615843121
0.0006079092612490876
0.0006079092609309254
0.0006079092615823907
0.0006079092612308061
0.0006079092609044373
0.000607909261544714
0.0006079092611989446
0.000607909260884115
0.0006079092615355407
0.0006079092611801347
0.0006079092608478988
0.0006079092614843231
0.0006079092611307037
0.0006079092608143563
0.0006079092614638106
0.0006079092611058434
0.0006079092607809667
0.000607909261428936
0.0006079092611101888
0.0006079092608242928
0.0006079092615348873
0.0006079092612645412
0.0006079092610248177
0.0008791883230380162
0.000879188323556009
0.0008791883235249195
0.0008791883236354749
0.0008791883236753441
0.0008791883233921151
0.0008791883226504278
0.0008791883235395919
0.000879188323108356
0.0008791883228947276
0.0008791883235487927
0.0008791883232218599
0.0008791883227093484
0.0008791883236475259
0.0008791883231065745
0.0008791883227576694
0.0008791883235540101
0.0008791883231521942
0.0008791883227033134
0.000879188323602148
0.0008791883231116167
0.0008791883227349618
0.0008791883235757695
0.0008791883231766273
0.0008791883227590174
0.000879188323639671
0.0008791883231347782
0.0008791883227332914
0.0008791883235918727
0.0008791883231576478
0.0008791883227461025
0.0008791883236135156
0.0008791883231297231
0.0008791883227351361
0.0008791883236001309
0.0008791883231312278
0.0008791883227269717
0.0008791883235975025
0.0008791883231040223
0.0008791883226848773
0.0008791883235369479
0.0008791883230502927
0.00087918832264884
0.0008791883235177321
0.0008791883230175978
0.0008791883225888806
0.0008791883234339554
0.000879188322934102
0.0008791883225295221
0.0008791883233932974
0.0008791883228870363
0.0008791883224654818
0.0008791883233257873
0.0008791883228681286
0.0008791883224998063
0.0008791883234370276
0.0008791883230275952
0.0008791883226371696
0.001202658417141829
0.00120265841813965
0.001202658418072436
0.001202658418251113
0.001202658418295218
0.001202658417933543
0.001202658417052162
0.001202658418135358
0.001202658417596627
0.001202658417370562
0.001202658418170018
0.001202658417753669
0.0012026584171523
0.00120265841829719
0.001202658417614522
0.001202658417215841
0.001202658418182636
0.001202658417670136
0.001202658417147356
0.001202658418243714
0.001202658417622152
0.00120265841718927
0.001202658418212734
0.001202658417706566
0.001202658417223352
0.00120265841829758
0.001202658417653182
0.001202658417186425
0.001202658418232811
0.001202658417680638
0.001202658417203216
0.001202658418259564
0.001202658417640406
0.001202658417183196
0.001202658418236504
0.001202658417640107
0.001202658417173299
0.001202658418235613
0.001202658417605582
0.001202658417114374
0.001202658418148964
0.001202658417525797
0.001202658417060082
0.001202658418118575
0.001202658417478507
0.001202658416973789
0.001202658417997941
0.001202658417355918
0.001202658416884848
0.001202658417934457
0.00120265841728409
0.001202658416785731
0.001202658417828433
0.001202658417233584
0.001202658416799519
0.001202658417927878
0.00120265841736389
0.001202658416756005
0.001584029515912647
0.001584029517534195
0.001584029517466917
0.001584029517674719
0.001584029517720607
0.001584029517286447
0.001584029516316401
0.001584029517546402
0.001584029516924195
0.001584029516698898
0.001584029517616774
0.001584029517124272
0.001584029516465935
0.001584029517768562
0.001584029516971886
0.001584029516543106
0.001584029517640497
0.001584029517033169
0.001584029516464155
0.001584029517712236
0.001584029516983141
0.001584029516516217
0.001584029517680577
0.001584029517085819
0.001584029516563025
0.001584029517786962
0.00158402951702363
0.001584029516513242
0.001584029517704897
0.001584029517053667
0.00158402951653474
0.001584029517736162
0.001584029517000105
0.001584029516502646
0.001584029517700847
0.001584029516998113
0.001584029516493987
0.001584029517706028
0.00158402951695982
0.001584029516418284
0.001584029517591048
0.001584029516850366
0.00158402951634414
0.001584029517549743
0.001584029516789789
0.001584029516230975
0.001584029517389854
0.001584029516624668
0.001584029516110303
0.001584029517302941
0.001584029516528084
0.001584029515974365
0.001584029517154529
0.00158402951643891
0.001584029515955931
0.001584029517224276
0.001584029516507103
0.001584029515599479
0.002030466083638466
0.002030466086010411
0.002030466086008837
0.002030466086187808
0.002030466086228431
0.002030466085737925
0.002030466084735598
0.002030466086070562
0.002030466085395633
0.002030466085168809
0.002030466086170036
0.002030466085625133
0.002030466084941541
0.002030466086341608
0.002030466085473261
0.002030466085030445
0.002030466086209672
0.00203046608553475
0.002030466084945763
0.002030466086289259
0.002030466085489654
0.002030466085007816
0.002030466086261712
0.002030466085608701
0.002030466085070647
0.002030466086390785
0.002030466085542263
0.002030466085006406
0.002030466086291104
0.002030466085571884
0.002030466085033676
0.002030466086326674
0.002030466085504569
0.002030466084986027
0.002030466086276087
0.002030466085501582
0.002030466084983298
0.002030466086293929
0.002030466085465174
0.002030466084892062
0.002030466086149059
0.002030466085322647
0.002030466084797189
0.002030466086098562
0.002030466085252326
0.002030466084658651
0.002030466085898578
0.002030466085042264
0.002030466084505339
0.002030466085789643
0.002030466084923676
0.002030466084333451
0.002030466085596725
0.002030466084790072
0.002030466084271724
0.002030466085620098
0.002030466084774257
0.002030466083459264
0.002545399166020742
0.002545399169268147
0.00254539916942154
0.002545399169493552
0.002545399169517409
0.002545399168996904
0.002545399168017487
0.002545399169424059
0.002545399168733712
0.002545399168488561
0.002545399169532727
0.002545399168967794
0.002545399168287357
0.002545399169719532
0.00254539916883237
0.002545399168386712
0.00254539916959463
0.002545399168888201
0.002545399168301471
0.002545399169679353
0.002545399168856176
0.002545399168373749
0.002545399169661175
0.002545399168989481
0.002545399168456623
0.002545399169815715
0.002545399168925356
0.002545399168376274
0.002545399169697436
0.002545399168950451
0.002545399168410935
0.00254539916973815
0.002545399168869696
0.002545399168343668
0.002545399169668389
0.00254539916886698
0.002545399168353458
0.002545399169708207
0.002545399168840438
0.002545399168249093
0.002545399169532284
0.00254539916866121
0.002545399168133088
0.002545399169475929
0.002545399168587269
0.00254539916797279
0.002545399169236227
0.002545399168330266
0.002545399167786781
0.0025453991691087
0.00254539916819548
0.002545399167582501
0.002545399168870802
0.002545399168013309
0.002545399167468169
0.00254539916883505
0.002545399167918096
0.002545399166051965
0.003124458017205775
0.003124458021023298
0.003124458021412072
0.003124458021497769
0.003124458021535334
0.003124458021017898
0.003124458020108989
0.003124458021551706
0.003124458020890567
0.003124458020610404
0.003124458021655199
0.003124458021107267
0.003124458020453929
0.003124458021854785
0.003124458021005047
0.003124458020564347
0.003124458021747996
0.003124458021050012
0.003124458020483312
0.003124458021836036
0.003124458021039631
0.003124458020566983
0.003124458021832396
0.00312445802118562
0.003124458020674621
0.003124458022018106
0.003124458021132504
0.003124458020576356
0.003124458021878759
0.003124458021147673
0.003124458020620702
0.003124458021927227
0.003124458021054641
0.003124458020529012
0.003124458021832803
0.003124458021053871
0.003124458020560085
0.003124458021907303
0.003124458021047871
0.003124458020446025
0.003124458021699117
0.003124458020827395
0.003124458020308448
0.003124458021641883
0.003124458020758837
0.003124458020132137
0.003124458021363554
0.003124458020452351
0.003124458019913496
0.003124458021222587
0.003124458020310395
0.003124458019682955
0.003124458020940656
0.003124458020077424
0.003124458019509794
0.003124458020839277
0.00312445801994656
0.00312445801756475
0.003755003265303034
0.003755003269503898
0.003755003270223477
0.00375500327035845
0.003755003270411506
0.003755003269932966
0.003755003269132693
0.003755003270552754
0.003755003269972587
0.003755003269666214
0.003755003270668082
0.003755003270174322
0.003755003269570643
0.003755003270881889
0.003755003270121614
0.003755003269695872
0.00375500327080353
0.00375500327015214
0.003755003269622472
0.003755003270894585
0.003755003270171816
0.003755003269720273
0.003755003270910027
0.003755003270330032
0.003755003269857793
0.003755003271136699
0.003755003270298896
0.003755003269739475
0.00375500327097159
0.003755003270297149
0.003755003269796485
0.003755003271032835
0.00375500327019399
0.003755003269674593
0.003755003270905514
0.003755003270197035
0.003755003269738329
0.003755003271031798
0.003755003270225365
0.003755003269618796
0.003755003270789673
0.003755003269957462
0.003755003269458602
0.003755003270738134
0.003755003269906348
0.003755003269274125
0.00375500327042247
0.003755003269546339
0.003755003269022188
0.003755003270274524
0.00375500326940946
0.003755003268773892
0.003755003269950641
0.003755003269125532
0.00375500326853962
0.003755003269782931
0.003755003268967365
0.003755003266119026
0.004418508762168628
0.004418508766566858
0.004418508767660394
0.004418508767880559
0.004418508767981795
0.004418508767582287
0.004418508766924588
0.00441850876825443
0.004418508767802109
0.004418508767501068
0.004418508768411175
0.004418508768006839
0.004418508767479812
0.004418508768645197
0.004418508768018479
0.004418508767627186
0.004418508768604493
0.004418508768032371
0.004418508767563028
0.004418508768699935
0.004418508768090045
0.004418508767679363
0.004418508768737993
0.004418508768261896
0.004418508767851437
0.004418508769020284
0.004418508768265417
0.00441850876771093
0.004418508768822099
0.004418508768237852
0.004418508767783972
0.004418508768904292
0.004418508768127902
0.004418508767624943
0.004418508768731123
0.004418508768137226
0.00441850876773571
0.004418508768932268
0.004418508768216386
0.004418508767615627
0.004418508768653768
0.004418508767893156
0.004418508767430929
0.004418508768616321
0.004418508767874567
0.004418508767248252
0.004418508768264729
0.004418508767455162
0.004418508766961067
0.004418508768117076
0.004418508767338611
0.004418508766705818
0.004418508767754576
0.004418508767005756
0.004418508766412282
0.004418508767524624
0.004418508766787423
0.004418508763573709
0.005093682537891569
0.005093682542255829
0.005093682543737082
0.005093682544099334
0.005093682544275241
0.00509368254399304
0.005093682543516471
0.005093682544702279
0.005093682544407735
0.005093682544153184
0.005093682544913989
0.005093682544628042
0.00509368254421641
0.005093682545177766
0.005093682544716224
0.00509368254439619
0.005093682545182705
0.005093682544712598
0.005093682544339857
0.005093682545285113
0.005093682544814956
0.005093682544480954
0.005093682545348152
0.005093682545003646
0.005093682544691168
0.00509368254570447
0.005093682545057212
0.005093682544525863
0.005093682545463822
0.005093682544992865
0.005093682544618298
0.005093682545578318
0.005093682544881106
0.005093682544414098
0.005093682545340852
0.005093682544898113
0.005093682544590135
0.005093682545645854
0.005093682545048117
0.005093682544473893
0.005093682545328134
0.005093682544660494
0.005093682544262283
0.005093682545314848
0.005093682544691998
0.0050936825440933
0.005093682544929245
0.005093682544205758
0.005093682543767598
0.005093682544789303
0.005093682544127389
0.005093682543518137
0.005093682544392982
0.005093682543749734
0.005093682543170742
0.005093682544109064
0.005093682543386621
0.005093682539989151
0.005759459962038528
0.005759459966100461
0.005759459967948491
0.005759459968523904
0.005759459968779135
0.005759459968639228
0.005759459968393743
0.005759459969389232
0.005759459969263732
0.005759459969111512
0.005759459969658248
0.005759459969507006
0.005759459969266629
0.005759459969962633
0.005759459969679258
0.005759459969489448
0.005759459970020178
0.005759459969657603
0.00575945996943436
0.005759459970132473
0.005759459969808691
0.005759459969607584
0.005759459970221336
0.005759459970020128
0.00575945996985916
0.005759459970671528
0.00575945997014404
0.005759459969664428
0.005759459970378527
0.005759459970028981
0.005759459969779445
0.005759459970539322
0.005759459969923303
0.005759459969521322
0.005759459970213575
0.005759459969944705
0.005759459969785686
0.00575945997065583
0.005759459970191195
0.005759459969674535
0.005759459970296606
0.005759459969729087
0.005759459969434014
0.00575945997031826
0.005759459969830465
0.005759459969291221
0.005759459969901752
0.005759459969268305
0.005759459968922656
0.005759459969775804
0.005759459969247904
0.005759459968692578
0.005759459969351488
0.005759459968831155
0.005759459968298975
0.005759459969027311
0.00575945996826831
0.005759459964890285
0.006397690445754839
0.006397690449253451
0.006397690451423655
0.006397690452276499
0.006397690452571714
0.006397690452580038
0.006397690452629863
0.006397690453390209
0.006397690453425624
0.006397690453445498
0.006397690453712935
0.006397690453697966
0.006397690453701498
0.006397690454067555
0.006397690453952509
0.006397690453972345
0.006397690454183693
0.006397690453910334
0.006397690453904379
0.006397690454308698
0.006397690454104397
0.006397690454111202
0.006397690454422351
0.006397690454355225
0.006397690454415112
0.006397690454985483
0.006397690454576836
0.006397690454181966
0.006397690454631632
0.00639769045439261
0.006397690454322856
0.006397690454854561
0.006397690454305297
0.006397690454001551
0.006397690454411412
0.006397690454319339
0.006397690454382338
0.00639769045502659
0.006397690454696174
0.006397690454271865
0.006397690454625112
0.006397690454147852
0.006397690454002713
0.006397690454692063
0.006397690454340976
0.006397690453896507
0.006397690454249356
0.006397690453691284
0.006397690453480152
0.006397690454141089
0.006397690453750366
0.006397690453281931
0.006397690453695118
0.006397690453300743
0.00639769045285013
0.006397690453348469
0.006397690452547607
0.006397690449363424
0.006994964393820533
0.006994964396580159
0.006994964398968493
0.006994964400130889
0.00699496440051932
0.006994964400544293
0.006994964400826235
0.006994964401449993
0.006994964401489833
0.006994964401729154
0.006994964401933486
0.006994964401891774
0.006994964402101736
0.006994964402346595
0.006994964402212887
0.006994964402414042
0.006994964402520515
0.006994964402277722
0.006994964402444338
0.006994964402667995
0.006994964402469865
0.006994964402644232
0.006994964402801893
0.006994964402685373
0.006994964402922126
0.006994964403352138
0.006994964403050382
0.006994964402767395
0.006994964402990527
0.006994964402824267
0.006994964402938154
0.006994964403233537
0.006994964402721171
0.006994964402542904
0.006994964402782673
0.006994964402694669
0.006994964402940996
0.006994964403463561
0.00699496440325654
0.006994964402952153
0.006994964403081657
0.006994964402659645
0.00699496440266094
0.006994964403142927
0.006994964402916513
0.006994964402594376
0.006994964402717825
0.006994964402194678
0.006994964402125949
0.006994964402590138
0.006994964402325787
0.006994964401968938
0.006994964402128784
0.006994964401849797
0.006994964401505981
0.006994964401777901
0.006994964400957339
0.006994964398094162
0.007543088796488483
0.007543088798441226
0.007543088800886754
0.00754308880233709
0.007543088802722544
0.007543088802684007
0.00754308880322771
0.007543088803768749
0.007543088803735312
0.007543088804226837
0.007543088804451571
0.007543088804303177
0.007543088804713834
0.007543088804926894
0.007543088804688638
0.007543088805071216
0.007543088805160017
0.007543088804833355
0.007543088805174996
0.007543088805331369
0.007543088805030474
0.007543088805375815
0.007543088805483962
0.007543088805235617
0.007543088805641112
0.007543088805986974
0.007543088805768605
0.007543088805604725
0.007543088805676028
0.007543088805467376
0.007543088805745577
0.007543088805916272
0.007543088805396502
0.007543088805322971
0.00754308880544761
0.00754308880529358
0.007543088805718461
0.007543088806181063
0.007543088806074683
0.007543088805895465
0.007543088805881258
0.007543088805419939
0.007543088805546131
0.007543088805881923
0.007543088805757277
0.007543088805563813
0.007543088805529807
0.007543088804988578
0.007543088805041836
0.007543088805332633
0.007543088805172542
0.007543088804932274
0.007543088804861904
0.007543088804677884
0.007543088804444536
0.007543088804521993
0.007543088803723601
0.007543088801242794
0.008038349179808942
0.008038349180985793
0.008038349183320168
0.008038349184980592
0.008038349185287071
0.008038349185143458
0.008038349185935056
0.008038349186428257
0.008038349186284918
0.008038349187015249
0.008038349187261273
0.008038349186985479
0.008038349187607159
0.008038349187798088
0.008038349187433185
0.008038349188011582
0.008038349188087515
0.008038349187643439
0.008038349188176362
0.008038349188284267
0.008038349187852033
0.008038349188384605
0.008038349188455219
0.008038349188056588
0.00803834918864312
0.008038349188940141
0.008038349188772456
0.008038349188706074
0.008038349188664983
0.008038349188385179
0.008038349188823887
0.008038349188916648
0.00803834918834999
0.008038349188351149
0.008038349188391023
0.008038349188167693
0.00803834918878223
0.008038349189226543
0.00803834918919042
0.008038349189109582
0.008038349188990605
0.008038349188461823
0.008038349188714107
0.008038349188955407
0.008038349188898775
0.008038349188809305
0.00803834918866763
0.008038349188064363
0.008038349188236591
0.008038349188412421
0.008038349188325845
0.008038349188178792
0.008038349187935719
0.00803834918782438
0.008038349187672995
0.008038349187618884
0.008038349186901397
0.008038349184788213
0.008480157412997688
0.008480157413471653
0.008480157415494323
0.008480157417308204
0.00848015741750871
0.008480157417245834
0.008480157418244207
0.008480157418712378
0.008480157418448831
0.008480157419382319
0.008480157419654022
0.008480157419253061
0.008480157420064964
0.008480157420248206
0.008480157419757892
0.008480157420515558
0.008480157420589014
0.008480157420023924
0.008480157420733068
0.008480157420811995
0.008480157420248014
0.008480157420952778
0.008480157421000391
0.008480157420456635
0.008480157421207219
0.008480157421480965
0.008480157421321625
0.00848015742129196
0.008480157421209049
0.008480157420885348
0.008480157421454816
0.008480157421506243
0.008480157420915275
0.008480157420915499
0.008480157420892503
0.008480157420635875
0.008480157421408721
0.008480157421863272
0.008480157421862703
0.008480157421818783
0.008480157421647941
0.008480157421076481
0.008480157421439833
0.008480157421628639
0.008480157421593151
0.008480157421547818
0.008480157421364759
0.008480157420715414
0.008480157420989546
0.008480157421091499
0.008480157421042829
0.008480157420932201
0.008480157420543701
0.008480157420498329
0.008480157420412044
0.008480157420313408
0.008480157419711726
0.008480157417929467
0.008869689117780704
0.008869689117682137
0.008869689119197369
0.008869689121065978
0.008869689121167704
0.008869689120788978
0.008869689121942493
0.008869689122396865
0.008869689122017251
0.008869689123109328
0.008869689123410159
0.00886968912289765
0.008869689123865189
0.008869689124054213
0.008869689123451961
0.008869689124358232
0.008869689124440121
0.008869689123765737
0.008869689124621681
0.008869689124689075
0.008869689124007117
0.00886968912485487
0.008869689124893712
0.00886968912422212
0.008869689125106786
0.008869689125375127
0.008869689125167557
0.008869689125153494
0.008869689125092577
0.008869689124734275
0.008869689125411567
0.008869689125450936
0.008869689124917672
0.008869689124914808