/*--------------------------------*- C++ -*----------------------------------*\
| =========                 |                                                 |
| \\      /  F ield         | OpenFOAM: The Open Source CFD Toolbox           |
|  \\    /   O peration     | Version:  v1812                                 |
|   \\  /    A nd           | Web:      www.OpenFOAM.com                      |
|    \\/     M anipulation  |                                                 |
\*---------------------------------------------------------------------------*/
FoamFile
{
    version     2.0;
    format      ascii;
    class       volScalarField;
    location    "10000";
    object      nuTilda;
}
// * * * * * * * * * * * * * * * * * * * * * * * * * * * * * * * * * * * * * //

dimensions      [0 2 -1 0 0 0 0];


internalField   nonuniform List<scalar> 
3770
(
0.0004959443652321099
0.0004959443652309489
0.000495944365231874
0.00049594436523528
0.0004959443652388039
0.0004959443652292776
0.0004959443652266814
0.0004959443652314322
0.0004959443652348195
0.0004959443652292674
0.0004959443652260457
0.0004959443652308064
0.0004959443652317812
0.0004959443652312807
0.0004959443652342232
0.0004959443652287641
0.0004959443652257865
0.0004959443652261663
0.0004959443652258551
0.0004959443652303028
0.0004959443652328598
0.0004959443652277873
0.0004959443652249631
0.0004959443652257711
0.0004959443652264711
0.0004959443652305769
0.0004959443652338122
0.0004959443652303094
0.0004959443652297075
0.0004959443652320721
0.0004959443652287841
0.0004959443652290527
0.0004959443652321118
0.00049594436522832
0.0004959443652289428
0.0004959443652334222
0.0004959443652301554
0.0004959443652296867
0.0004959443652319818
0.0004959443652277996
0.0004959443652283491
0.0004959443652319433
0.0004959443652272535
0.0004959443652282828
0.0004959443652349619
0.0004959443652340666
0.0004959443652313828
0.0004959443652299385
0.000495944365233819
0.0004959443652370313
0.000495944365236213
0.0004959443652355045
0.0004959443652310435
0.0004959443652281053
0.00049594436523107
0.000495944365234811
0.0004959443652316624
0.0004959443652308102
0.0003889056998938559
0.0003889056998212243
0.0003889056998621447
0.0003889056998639677
0.0003889056999476186
0.000388905699796783
0.0003889056997942974
0.0003889056998276691
0.0003889056998757898
0.000388905699801386
0.0003889056997824342
0.0003889056998110285
0.0003889056998399811
0.0003889056998293501
0.0003889056998619352
0.0003889056998011359
0.0003889056997742337
0.0003889056997671394
0.0003889056997801413
0.0003889056998230159
0.0003889056998475459
0.0003889056997942317
0.0003889056997682577
0.000388905699772285
0.0003889056997894699
0.0003889056998288001
0.0003889056998531247
0.0003889056998174866
0.000388905699812361
0.0003889056998307308
0.0003889056998122537
0.0003889056998177177
0.0003889056998332172
0.000388905699809412
0.0003889056998200726
0.0003889056998523372
0.0003889056998214321
0.000388905699817607
0.0003889056998370862
0.0003889056997984456
0.0003889056998088977
0.00038890569984058
0.0003889056998114674
0.0003889056998284249
0.0003889056998870925
0.0003889056998966307
0.0003889056998637164
0.0003889056998428404
0.0003889056998883881
0.0003889056999288984
0.0003889056999200989
0.0003889056999261293
0.000388905699883115
0.0003889056998523411
0.0003889056998835047
0.000388905699936455
0.0003889056999024959
0.0003889056999047231
0.0005909271214294149
0.0005909271212781108
0.000590927121346166
0.0005909271213066357
0.0005909271214382183
0.0005909271212561105
0.0005909271212531306
0.0005909271213203979
0.0005909271213515833
0.000590927121245291
0.0005909271212587665
0.0005909271212992338
0.0005909271212753039
0.0005909271212778636
0.0005909271213276435
0.0005909271212447225
0.000590927121251666
0.0005909271212461619
0.0005909271212181004
0.0005909271212744882
0.0005909271213181425
0.0005909271212416161
0.0005909271212489278
0.0005909271212777564
0.0005909271212443873
0.0005909271212829999
0.0005909271213277818
0.0005909271212638418
0.0005909271212785691
0.0005909271213177192
0.0005909271212588466
0.0005909271212774172
0.0005909271213209672
0.0005909271212593091
0.0005909271212822501
0.0005909271213331323
0.0005909271212743006
0.0005909271212881034
0.0005909271213281955
0.0005909271212637658
0.0005909271212849803
0.0005909271213334213
0.000590927121270137
0.0005909271213019055
0.0005909271213713932
0.0005909271213746301
0.0005909271213649173
0.0005909271212920746
0.0005909271213563204
0.0005909271214351006
0.0005909271213431472
0.0005909271213870978
0.0005909271214156726
0.0005909271213225652
0.0005909271213450054
0.0005909271214533078
0.0005909271214414101
0.0005909271214681838
0.0008198623799281761
0.000819862379759869
0.0008198623798331786
0.0008198623797650586
0.00081986237990789
0.0008198623797503282
0.0008198623796723405
0.0008198623798189365
0.0008198623797847128
0.0008198623796725207
0.0008198623797936772
0.0008198623797484643
0.0008198623796750782
0.0008198623798003533
0.0008198623797534389
0.0008198623796603151
0.0008198623797929279
0.0008198623797266782
0.0008198623796516355
0.0008198623797946563
0.0008198623797480061
0.0008198623796605436
0.0008198623797962929
0.0008198623797448597
0.0008198623796667409
0.0008198623798043656
0.000819862379756194
0.0008198623796732722
0.0008198623798023366
0.0008198623797554636
0.0008198623796744385
0.0008198623798022558
0.0008198623797562722
0.0008198623796769562
0.0008198623798073564
0.0008198623797643018
0.0008198623796859564
0.0008198623798132143
0.0008198623797643184
0.0008198623796831427
0.0008198623798091367
0.0008198623797662367
0.0008198623796905491
0.0008198623798336834
0.0008198623797975829
0.0008198623797369104
0.0008198623798696481
0.0008198623797759122
0.0008198623797410821
0.0008198623799109056
0.0008198623798080206
0.0008198623797678789
0.0008198623799171127
0.000819862379826794
0.0008198623797850971
0.0008198623799828543
0.0008198623799191508
0.0008198623798827346
0.001053694293377077
0.00105369429320219
0.001053694293259354
0.001053694293193492
0.001053694293337962
0.00105369429319071
0.001053694293005335
0.001053694293257782
0.001053694293155414
0.001053694293030138
0.001053694293246946
0.001053694293147873
0.001053694292999546
0.001053694293260322
0.00105369429313049
0.001053694292997582
0.001053694293243766
0.001053694293127068
0.001053694292989126
0.001053694293251247
0.00105369429312971
0.001053694292996144
0.00105369429324984
0.001053694293139851
0.001053694293004626
0.001053694293262625
0.001053694293138054
0.001053694293003697
0.001053694293257307
0.001053694293143514
0.001053694293008305
0.001053694293262193
0.001053694293142534
0.001053694293011092
0.001053694293266139
0.001053694293148779
0.001053694293015947
0.001053694293270355
0.001053694293147771
0.001053694293013025
0.001053694293265688
0.001053694293147608
0.001053694293017716
0.001053694293278579
0.001053694293160748
0.00105369429303299
0.001053694293287963
0.001053694293153634
0.001053694293039035
0.001053694293311092
0.00105369429317236
0.001053694293058648
0.001053694293323544
0.001053694293207208
0.001053694293101309
0.001053694293408441
0.001053694293311654
0.001053694293229663
0.001289451665973918
0.001289451665865072
0.001289451665888096
0.001289451665841559
0.001289451665974956
0.001289451665822214
0.001289451665503808
0.001289451665893283
0.00128945166571597
0.001289451665566413
0.001289451665879105
0.001289451665738321
0.001289451665499073
0.001289451665908865
0.001289451665697097
0.001289451665509202
0.001289451665875977
0.001289451665708897
0.001289451665492422
0.001289451665891742
0.001289451665698201
0.001289451665502946
0.001289451665884683
0.001289451665720476
0.001289451665513226
0.001289451665905976
0.001289451665708371
0.001289451665507233
0.001289451665893272
0.001289451665718132
0.001289451665513406
0.001289451665901993
0.001289451665712855
0.001289451665514893
0.001289451665903631
0.001289451665718398
0.001289451665516652
0.001289451665906154
0.001289451665712962
0.001289451665508249
0.001289451665893617
0.001289451665705099
0.001289451665506688
0.001289451665899235
0.001289451665706776
0.001289451665502982
0.00128945166588874
0.001289451665693585
0.001289451665500174
0.001289451665897375
0.001289451665699105
0.001289451665506147
0.001289451665900897
0.001289451665731892
0.001289451665557338
0.001289451665999774
0.001289451665862066
0.00128945166572623
0.001525504676951044
0.001525504676990747
0.001525504676984588
0.001525504676950349
0.00152550467705318
0.001525504676881183
0.001525504676437648
0.001525504676966171
0.001525504676713111
0.001525504676543667
0.001525504676948145
0.001525504676764662
0.001525504676442192
0.001525504676996829
0.00152550467670099
0.001525504676463635
0.00152550467694626
0.001525504676724088
0.001525504676436285
0.001525504676971058
0.001525504676703113
0.001525504676451997
0.001525504676957636
0.001525504676736683
0.001525504676464553
0.001525504676989448
0.001525504676715852
0.001525504676453753
0.001525504676967672
0.001525504676729077
0.001525504676461019
0.001525504676979716
0.00152550467671818
0.001525504676459868
0.001525504676977898
0.001525504676722957
0.001525504676458854
0.001525504676978829
0.001525504676711753
0.001525504676442344
0.001525504676954891
0.001525504676693033
0.001525504676432259
0.001525504676953509
0.001525504676684749
0.001525504676412757
0.001525504676923766
0.001525504676655756
0.001525504676395985
0.001525504676918297
0.001525504676646881
0.001525504676383781
0.001525504676904747
0.001525504676667646
0.001525504676433581
0.001525504677009784
0.001525504676816133
0.001525504676632983
0.001763559084020486
0.001763559084204203
0.001763559084208917
0.001763559084243754
0.001763559084291042
0.001763559084089054
0.001763559083543048
0.001763559084197011
0.001763559083873246
0.001763559083693477
0.00176355908418126
0.001763559083951651
0.001763559083564048
0.001763559084248197
0.001763559083868813
0.001763559083595764
0.001763559084181767
0.001763559083900715
0.001763559083558338
0.001763559084215055
0.001763559083871877
0.001763559083579602
0.001763559084196293
0.0017635590839163
0.001763559083595386
0.001763559084239111
0.001763559083887634
0.001763559083579335
0.001763559084207864
0.001763559083903863
0.001763559083587858
0.00176355908422286
0.001763559083886594
0.001763559083582927
0.001763559084216567
0.001763559083890265
0.001763559083579504
0.001763559084216445
0.001763559083873306
0.00176355908355379
0.001763559084179313
0.001763559083841805
0.001763559083533912
0.001763559084170699
0.001763559083823837
0.001763559083498992
0.001763559084120899
0.001763559083774925
0.001763559083465982
0.001763559084101035
0.001763559083750773
0.001763559083433344
0.00176355908406669
0.001763559083754626
0.00176355908347531
0.001763559084170072
0.001763559083905615
0.001763559083671539
0.002009284251552412
0.002009284251985153
0.002009284251961959
0.002009284252061623
0.002009284252095061
0.002009284251855788
0.00200928425123029
0.00200928425199227
0.002009284251605519
0.002009284251424088
0.00200928425198745
0.002009284251709689
0.002009284251273893
0.002009284252071269
0.002009284251611585
0.002009284251314941
0.002009284251991706
0.002009284251650256
0.002009284251268706
0.002009284252032642
0.002009284251615852
0.002009284251295632
0.002009284252010182
0.00200928425167097
0.002009284251315924
0.002009284252064288
0.002009284251635195
0.002009284251293863
0.002009284252023394
0.002009284251654007
0.00200928425130404
0.002009284252041055
0.002009284251629696
0.002009284251294118
0.002009284252029227
0.002009284251632034
0.002009284251289002
0.002009284252029172
0.002009284251610052
0.002009284251253502
0.00200928425197742
0.002009284251564005
0.002009284251222875
0.00200928425196142
0.002009284251536499
0.002009284251172096
0.002009284251890244
0.002009284251465223
0.002009284251121439
0.002009284251855626
0.002009284251425245
0.002009284251067
0.00200928425179816
0.002009284251408974
0.002009284251095935
0.002009284251892456
0.002009284251544276
0.00200928425121256
0.002271957532047895
0.002271957532824509
0.002271957532773821
0.002271957532915907
0.002271957532950779
0.002271957532669806
0.00227195753198476
0.002271957532835527
0.002271957532395256
0.002271957532220235
0.002271957532853479
0.002271957532527718
0.002271957532056767
0.002271957532952986
0.002271957532418604
0.002271957532106491
0.002271957532863256
0.002271957532462095
0.00227195753205287
0.00227195753291107
0.002271957532424575
0.002271957532085687
0.002271957532886797
0.002271957532490528
0.002271957532112192
0.002271957532952952
0.002271957532448455
0.00227195753208303
0.002271957532901934
0.002271957532469275
0.002271957532095426
0.002271957532922112
0.002271957532437088
0.002271957532078951
0.00227195753290339
0.002271957532438079
0.002271957532073393
0.002271957532905307
0.00227195753241236
0.002271957532027582
0.002271957532837183
0.002271957532349511
0.002271957531985106
0.002271957532813751
0.002271957532312744
0.002271957531917646
0.002271957532719265
0.002271957532216533
0.002271957531847793
0.002271957532669409
0.002271957532160284
0.002271957531770187
0.002271957532586372
0.002271957532120593
0.002271957531780768
0.00227195753266392
0.002271957532222236
0.00227195753174648
0.00256395138550256
0.002563951386721393
0.002563951386673546
0.002563951386829549
0.002563951386864216
0.002563951386539926
0.002563951385813379
0.002563951386741515
0.002563951386256394
0.002563951386089005
0.002563951386787531
0.002563951386416596
0.002563951385920205
0.002563951386901951
0.0025639513863015
0.002563951385978337
0.002563951386805377
0.002563951386347668
0.002563951385918833
0.002563951386859439
0.00256395138630999
0.002563951385958067
0.00256395138683556
0.002563951386387241
0.002563951385993153
0.002563951386915446
0.002563951386340051
0.00256395138595534
0.002563951386853232
0.002563951386361982
0.00256395138597078
0.002563951386876043
0.002563951386320813
0.002563951385945558
0.002563951386848478
0.002563951386320693
0.002563951385941595
0.00256395138685542
0.002563951386293242
0.002563951385884851
0.002563951386768456
0.002563951386210364
0.002563951385829022
0.002563951386737718
0.002563951386164958
0.002563951385743792
0.002563951386617123
0.002563951386040257
0.002563951385652579
0.0025639513865514
0.002563951385967417
0.002563951385550103
0.00256395138643952
0.002563951385900064
0.002563951385535996
0.002563951386491756
0.002563951385951041
0.002563951385267087
0.002899233681528403
0.0028992336833095
0.002899233683315551
0.002899233683445901
0.002899233683473259
0.002899233683108032
0.002899233682358611
0.002899233683362408
0.002899233682841818
0.002899233682673485
0.002899233683431594
0.002899233683022358
0.002899233682508356
0.002899233683560602
0.002899233682907936
0.002899233682575126
0.002899233683461386
0.002899233682954161
0.002899233682511495
0.002899233683521197
0.002899233682920269
0.002899233682558113
0.00289923368350047
0.002899233683009603
0.002899233682605134
0.002899233683597174
0.002899233682959334
0.002899233682556537
0.002899233683521853
0.00289923368298088
0.002899233682576292
0.0028992336835479
0.002899233682929405
0.002899233682539201
0.002899233683508597
0.002899233682928681
0.002899233682540074
0.00289923368352542
0.00289923368290274
0.002899233682471756
0.002899233683416227
0.002899233682795265
0.002899233682400541
0.002899233683378703
0.002899233682742665
0.002899233682296462
0.002899233683228289
0.002899233682584513
0.002899233682180931
0.002899233683146146
0.002899233682495312
0.002899233682051716
0.002899233683001138
0.00289923368239476
0.002899233682005105
0.002899233683018356
0.002899233682382417
0.002899233681394189
0.003290410816557245
0.003290410819056782
0.003290410819193482
0.003290410819240866
0.003290410819246464
0.003290410818848942
0.003290410818098388
0.003290410819180811
0.003290410818639363
0.003290410818452544
0.003290410819260286
0.003290410818825848
0.003290410818302055
0.003290410819404097
0.003290410818721389
0.003290410818378458
0.003290410819307939
0.003290410818764417
0.003290410818312913
0.003290410819373125
0.003290410818739719
0.003290410818368473
0.003290410819359108
0.003290410818842163
0.003290410818432048
0.003290410819477727
0.003290410818792489
0.003290410818369901
0.003290410819386286
0.0032904108188111
0.00329041081839589
0.003290410819417056
0.003290410818748049
0.003290410818342623
0.003290410819361735
0.003290410818747593
0.003290410818353395
0.003290410819396066
0.003290410818728485
0.003290410818273216
0.003290410819260381
0.003290410818590271
0.003290410818184085
0.003290410819217478
0.003290410818533623
0.003290410818060769
0.003290410819032918
0.003290410818335574
0.003290410817917296
0.003290410818934461
0.003290410818231751
0.003290410817760072
0.003290410818751401
0.003290410818091447
0.00329041081767188
0.003290410818723542
0.003290410818017674
0.003290410816581782
0.003744814479489213
0.003744814482549867
0.003744814482882233
0.003744814482939768
0.003744814482954027
0.00374481448254163
0.003744814481816462
0.003744814482971321
0.003744814482434782
0.003744814482211843
0.003744814483051044
0.003744814482612649
0.003744814482089593
0.003744814483210851
0.003744814482530695
0.003744814482177962
0.003744814483125356
0.00374481448256682
0.003744814482113198
0.003744814483195802
0.003744814482558393
0.003744814482180065
0.003744814483192855
0.00374481448267511
0.003744814482266032
0.003744814483341219
0.003744814482632291
0.003744814482187078
0.003744814483229254
0.003744814482643775
0.003744814482221978
0.003744814483267678
0.003744814482568453
0.003744814482146923
0.003744814483190135
0.003744814482569542
0.003744814482175257
0.003744814483253574
0.003744814482565818
0.003744814482083899
0.003744814483086636
0.003744814482389137
0.003744814481973973
0.003744814483041312
0.003744814482334498
0.003744814481832878
0.003744814482818443
0.003744814482088903
0.003744814481657516
0.003744814482705241
0.003744814481975141
0.003744814481472957
0.003744814482479607
0.003744814481788575
0.003744814481334166
0.003744814482398132
0.003744814481683338
0.003744814479777028
0.00426107348900555
0.004261073492521399
0.004261073493133626
0.004261073493241702
0.004261073493278316
0.004261073492878787
0.004261073492211102
0.004261073493400395
0.004261073492909904
0.004261073492653531
0.004261073493493403
0.004261073493080413
0.004261073492575414
0.004261073493672307
0.00426107349303635
0.004261073492680238
0.004261073493606783
0.004261073493062047
0.004261073492618953
0.004261073493682905
0.004261073493078418
0.004261073492700673
0.004261073493695785
0.004261073493210582
0.004261073492815503
0.004261073493885141
0.004261073493184273
0.00426107349271626
0.004261073493746611
0.004261073493182211
0.004261073492763461
0.004261073493797707
0.004261073493095209
0.00426107349265978
0.004261073493689001
0.004261073493099452
0.004261073492716647
0.00426107349379837
0.004261073493123902
0.004261073492616356
0.004261073493595543
0.004261073492899705
0.004261073492482619
0.004261073493552933
0.00426107349285715
0.004261073492328312
0.004261073493288822
0.00426107349255575
0.004261073492117204
0.004261073493164658
0.00426107349244108
0.004261073491909476
0.004261073492893789
0.004261073492203518
0.004261073491713347
0.004261073492753198
0.00426107349207079
0.004261073489688309
0.004827914968459532
0.004827914972290437
0.004827914973245917
0.004827914973436199
0.004827914973521814
0.004827914973174107
0.004827914972602547
0.004827914973762107
0.004827914973365049
0.004827914973102472
0.004827914973896117
0.004827914973543933
0.004827914973084927
0.004827914974099997
0.00482791497355419
0.004827914973213424
0.004827914974064607
0.004827914973566371
0.004827914973157607
0.004827914974147676
0.004827914973616521
0.004827914973258904
0.004827914974180776
0.004827914973766096
0.004827914973408567
0.00482791497442641
0.004827914973768943
0.004827914973285967
0.004827914974253409
0.004827914973744401
0.004827914973349201
0.004827914974325115
0.004827914973648158
0.004827914973209038
0.004827914974171971
0.004827914973657846
0.004827914973308985
0.004827914974350642
0.004827914973727213
0.004827914973203871
0.004827914974107808
0.004827914973445719
0.004827914973043345
0.0048279149740757
0.004827914973429687
0.004827914972884228
0.004827914973769461
0.004827914973064199
0.004827914972633756
0.00482791497364043
0.004827914972962481
0.004827914972411417
0.004827914973324805
0.004827914972672566
0.004827914972155635
0.004827914973124257
0.004827914972482061
0.004827914969683265
0.005426127289109699
0.005426127293036482
0.005426127294369853
0.005426127294695365
0.005426127294852538
0.005426127294598746
0.00542612729417092
0.00542612729523886
0.005426127294972252
0.005426127294742894
0.005426127295427945
0.005426127295170746
0.005426127294800309
0.005426127295665349
0.005426127295250088
0.00542612729496215
0.005426127295669868
0.005426127295246679
0.005426127294911354
0.005426127295761935
0.005426127295338554
0.005426127295038312
0.005426127295818624
0.005426127295508623
0.005426127295227423
0.005426127296139048
0.005426127295556657
0.00542612729507851
0.005426127295922152
0.005426127295498274
0.005426127295161378
0.005426127296025532
0.005426127295397506
0.005426127294976143
0.005426127295809541
0.0054261272954141
0.00542612729513776
0.0054261272960871
0.005426127295549272
0.0054261272950325
0.005426127295800953
0.005426127295200662
0.005426127294842507
0.005426127295789501
0.005426127295229072
0.005426127294690401
0.005426127295442551
0.005426127294791395
0.005426127294397006
0.005426127295316179
0.005426127294720639
0.005426127294172509
0.005426127294959705
0.005426127294380851
0.005426127293859825
0.005426127294703975
0.005426127294053833
0.005426127290996979
0.006032954774398141
0.006032954778143162
0.006032954779846864
0.006032954780377072
0.006032954780611277
0.006032954780482847
0.006032954780257574
0.006032954781175655
0.006032954781059323
0.006032954780918942
0.006032954781423281
0.006032954781284405
0.006032954781062606
0.006032954781703979
0.006032954781442714
0.006032954781267721
0.006032954781757089
0.006032954781422267
0.00603295478121654
0.006032954781860523
0.006032954781560684
0.006032954781375804
0.006032954781942461
0.006032954781756935
0.006032954781608482
0.006032954782357407
0.00603295478187109
0.006032954781428834
0.006032954782086926
0.00603295478176454
0.006032954781534612
0.006032954782235722
0.00603295478166718
0.006032954781295342
0.006032954781933165
0.006032954781687758
0.006032954781541866
0.006032954782343641
0.006032954781915206
0.006032954781438752
0.006032954782012183
0.006032954781489489
0.006032954781217488
0.006032954782032623
0.006032954781582863
0.006032954781085689
0.00603295478164863
0.006032954781064412
0.006032954780745553
0.00603295478153204
0.006032954781045332
0.006032954780533379
0.006032954781140996
0.006032954780661151
0.006032954780170387
0.006032954780841812
0.006032954780141919
0.00603295477702741
0.006626908029946041
0.006626908033228996
0.006626908035265134
0.006626908036064741
0.00662690803634032
0.006626908036351176
0.006626908036399113
0.006626908037109832
0.006626908037143017
0.006626908037162498
0.006626908037413597
0.006626908037400809
0.006626908037403896
0.006626908037746406
0.006626908037638442
0.006626908037657059
0.006626908037855364
0.006626908037598203
0.006626908037592744
0.006626908037972601
0.006626908037776803
0.006626908037783937
0.006626908038079268
0.006626908038016294
0.006626908038072454
0.00662690803860763
0.006626908038224263
0.006626908037853693
0.006626908038275312
0.006626908038050897
0.006626908037985583
0.006626908038485096
0.006626908037969297
0.00662690803768306
0.006626908038067271
0.00662690803798275
0.006626908038042546
0.006626908038646835
0.006626908038336748
0.006626908037938506
0.006626908038269882
0.006626908037822821
0.006626908037686606
0.006626908038333131
0.006626908038003678
0.006626908037586598
0.006626908037917757
0.006626908037393905
0.006626908037195591
0.006626908037815691
0.00662690803744905
0.006626908037009546
0.00662690803739745
0.006626908037027259
0.006626908036604286
0.006626908037071826
0.006626908036320223
0.006626908033332241
0.007191100258805371
0.00719110026142758
0.007191100263696936
0.007191100264801214
0.007191100265169727
0.007191100265193913
0.007191100265462344
0.007191100266054854
0.00719110026609266
0.007191100266320158
0.007191100266514369
0.007191100266475061
0.007191100266674517
0.007191100266906961
0.00719110026677991
0.007191100266971052
0.007191100267072241
0.007191100266841274
0.007191100266999626
0.007191100267212322
0.007191100267023244
0.007191100267189111
0.007191100267339561
0.007191100267228841
0.007191100267453778
0.007191100267862367
0.007191100267575875
0.007191100267306971
0.007191100267518776
0.007191100267360577
0.00719110026746876
0.007191100267749948
0.007191100267262994
0.007191100267092414
0.007191100267319904
0.007191100267237576
0.007191100267472198
0.007191100267968781
0.007191100267772129
0.007191100267482829
0.007191100267605774
0.007191100267206336
0.007191100267207459
0.00719110026766431
0.007191100267449193
0.007191100267143088
0.007191100267260406
0.007191100266763156
0.007191100266697682
0.007191100267138662
0.007191100266887459
0.007191100266548451
0.007191100266700613
0.007191100266435374
0.007191100266108503
0.007191100266366801
0.007191100265586984
0.007191100262866283
0.007714405373896375
0.007714405375768581
0.007714405378113266
0.007714405379503755
0.007714405379873134
0.00771440537983622
0.007714405380357686
0.007714405380876483
0.007714405380844399
0.007714405381315649
0.007714405381531135
0.007714405381388924
0.007714405381782652
0.00771440538198691
0.00771440538175848
0.007714405382125286
0.007714405382210439
0.007714405381897175
0.007714405382224732
0.0077144053823747
0.007714405382086048
0.007714405382417193
0.007714405382520998
0.007714405382282885
0.007714405382671643
0.007714405383003268
0.007714405382794338
0.007714405382637205
0.007714405382705448
0.007714405382505067
0.007714405382771601
0.007714405382935502
0.007714405382437511
0.007714405382365864
0.007714405382485086
0.007714405382338279
0.007714405382746017
0.007714405383189729
0.007714405383087984
0.007714405382916108
0.007714405382902341
0.007714405382460406
0.007714405382581435
0.007714405382903133
0.007714405382783678
0.007714405382598214
0.007714405382565601
0.007714405382046571
0.007714405382097496
0.007714405382376206
0.0077144053822227
0.007714405381992415
0.007714405381925391
0.007714405381748747
0.007714405381524824
0.007714405381598973
0.007714405380833373
0.007714405378454753
0.008190871720956698
0.008190871722092334
0.008190871724345015
0.008190871725947332
0.008190871726243044
0.008190871726104451
0.008190871726868408
0.008190871727344397
0.008190871727206067
0.008190871727910829
0.008190871728148251
0.008190871727882128
0.008190871728482069
0.008190871728666331
0.008190871728314199
0.008190871728872359
0.008190871728945642
0.008190871728517093
0.008190871729031367
0.008190871729135497
0.008190871728718354
0.008190871729232298
0.008190871729300463
0.008190871728915772
0.008190871729481769
0.008190871729768463
0.008190871729607191
0.008190871729542984
0.008190871729503484
0.008190871729233135
0.008190871729656076
0.008190871729745721
0.008190871729199849
0.008190871729199564
0.008190871729237761
0.008190871729022955
0.00819087172961607
0.008190871730044924
0.008190871730010596
0.008190871729932511
0.008190871729817552
0.008190871729307395
0.008190871729550854
0.008190871729783661
0.00819087172972888
0.008190871729642649
0.008190871729506057
0.008190871728923818
0.008190871729089881
0.008190871729259461
0.008190871729175963
0.008190871729034099
0.008190871728800288
0.008190871728692527
0.008190871728546201
0.008190871728493724
0.008190871727801183
0.008190871725761844
0.008618290605400879
0.008618290605860401
0.008618290607821594
0.008618290609580366
0.008618290609774778
0.008618290609519892
0.008618290610487953
0.008618290610941921
0.008618290610686382
0.008618290611591499
0.008618290611854951
0.008618290611466187
0.008618290612253436
0.008618290612431126
0.008618290611955712
0.008618290612690363
0.008618290612761587
0.008618290612213668
0.008618290612901265
0.008618290612977787
0.008618290612430933
0.008618290613114287
0.008618290613160457
0.008618290612633214
0.008618290613360988
0.008618290613626518
0.008618290613472317
0.008618290613442523
0.008618290613363007
0.008618290613049537
0.008618290613601004
0.008618290613650957
0.008618290613079792
0.008618290613077903
0.008618290613055283
0.008618290612807519
0.008618290613556373
0.008618290613996903
0.008618290613997203
0.008618290613954331
0.008618290613788569
0.008618290613234774
0.008618290613587012
0.008618290613770244
0.008618290613734968
0.008618290613691201
0.00861829061351436
0.008618290612884695
0.008618290613150342
0.008618290613249115
0.008618290613202344
0.008618290613094999
0.008618290612719473
0.008618290612675324
0.008618290612591213
0.008618290612494703
0.00861829061191099
0.00861829061018292
0.00899669306622636
0.008996693066130398
0.008996693067604792
0.00899669306942307
0.008996693069522067
0.008996693069153551
0.008996693070276009
0.008996693070718154
0.008996693070348765
0.008996693071411422
0.008996693071704153
0.008996693071205463
0.008996693072146955
0.008996693072330902
0.008996693071744876
0.008996693072626741
0.008996693072706428
0.008996693072050208
0.008996693072883097
0.008996693072948671
0.008996693072285077
0.008996693073109997
0.008996693073147792
0.008996693072494285
0.008996693073355121
0.008996693073616358
0.008996693073413119
0.008996693073398126
0.00899669307334164
0.008996693072993778
0.008996693073651725
0.008996693073690091
0.008996693073174139
0.008996693073172352
0.008996693073073238
0.008996693072767396
0.008996693073611117
0.008996693074075458
0.008996693074076093
0.008996693074041532
0.008996693073858929
0.008996693073280392
0.008996693073730189
0.008996693073901146
0.008996693073854941
0.008996693073816762
0.008996693073634137
0.008996693072968433
0.008996693073319892