/*--------------------------------*- C++ -*----------------------------------*\
| =========                 |                                                 |
| \\      /  F ield         | OpenFOAM: The Open Source CFD Toolbox           |
|  \\    /   O peration     | Version:  v1812                                 |
|   \\  /    A nd           | Web:      www.OpenFOAM.com                      |
|    \\/     M anipulation  |                                                 |
\*---------------------------------------------------------------------------*/
FoamFile
{
    version     2.0;
    format      ascii;
    class       volScalarField;
    location    "10000";
    object      nuTilda_0;
}
// * * * * * * * * * * * * * * * * * * * * * * * * * * * * * * * * * * * * * //

dimensions      [0 2 -1 0 0 0 0];


internalField   nonuniform List<scalar> 
3770
(
0.000495944365223303
0.0004959443652232685
0.0004959443652228879
0.0004959443652188592
0.0004959443652159615
0.0004959443652236157
0.0004959443652266557
0.0004959443652221866
0.0004959443652194231
0.0004959443652244296
0.0004959443652279654
0.0004959443652228706
0.0004959443652226565
0.0004959443652228252
0.0004959443652203081
0.0004959443652257402
0.000495944365227884
0.0004959443652270098
0.0004959443652281215
0.0004959443652234528
0.0004959443652212238
0.0004959443652259919
0.0004959443652290569
0.0004959443652282464
0.0004959443652276264
0.0004959443652232014
0.0004959443652201303
0.0004959443652235028
0.0004959443652241398
0.0004959443652218295
0.0004959443652256267
0.0004959443652249962
0.0004959443652217735
0.0004959443652260797
0.0004959443652251757
0.0004959443652205528
0.0004959443652237488
0.0004959443652242433
0.0004959443652220239
0.0004959443652259527
0.0004959443652252649
0.0004959443652220664
0.0004959443652276796
0.0004959443652265219
0.0004959443652191083
0.0004959443652207175
0.0004959443652232593
0.000495944365224456
0.0004959443652204436
0.0004959443652174681
0.0004959443652183752
0.0004959443652192006
0.0004959443652234564
0.0004959443652269239
0.0004959443652235338
0.0004959443652201862
0.0004959443652231966
0.0004959443652244129
0.0003889056986845122
0.0003889056986290637
0.0003889056986550631
0.0003889056985788755
0.0003889056985899687
0.0003889056986353313
0.000388905698699021
0.000388905698621541
0.0003889056986030231
0.0003889056986367058
0.0003889056986937507
0.000388905698618345
0.0003889056986256253
0.0003889056986243061
0.0003889056985975596
0.0003889056986443029
0.0003889056986903807
0.0003889056986754706
0.0003889056986956136
0.0003889056986424987
0.0003889056986145263
0.0003889056986623231
0.0003889056987008599
0.0003889056986872306
0.0003889056986906199
0.0003889056986431477
0.0003889056985983981
0.0003889056986342139
0.0003889056986449809
0.0003889056986113521
0.0003889056986632316
0.0003889056986630072
0.0003889056986135274
0.0003889056986704409
0.0003889056986683934
0.0003889056986062646
0.0003889056986426577
0.0003889056986514527
0.0003889056986204426
0.0003889056986733034
0.0003889056986744534
0.0003889056986258711
0.0003889056986949465
0.0003889056986906196
0.0003889056986138829
0.0003889056986378604
0.0003889056986594083
0.000388905698675865
0.0003889056986392576
0.0003889056986121558
0.000388905698622177
0.0003889056986444922
0.0003889056986902835
0.0003889056987269948
0.00038890569869533
0.0003889056986710204
0.0003889056987007422
0.0003889056987241202
0.0005909271189784503
0.0005909271188857811
0.0005909271189414534
0.0005909271188456504
0.0005909271189051032
0.0005909271189119546
0.000590927118961521
0.0005909271189005877
0.000590927118850589
0.0005909271188953157
0.0005909271189780018
0.0005909271188435481
0.0005909271188904177
0.0005909271189309448
0.0005909271188378334
0.0005909271188932604
0.0005909271189680814
0.0005909271188807879
0.0005909271189286068
0.0005909271189397759
0.0005909271188444576
0.0005909271189092092
0.000590927118982922
0.0005909271188857584
0.000590927118923383
0.0005909271189442936
0.0005909271188391857
0.0005909271188969972
0.0005909271189541822
0.0005909271188517092
0.0005909271189154428
0.0005909271189623133
0.0005909271188548228
0.0005909271189193587
0.0005909271189660264
0.0005909271188502038
0.0005909271189098754
0.000590927118965237
0.0005909271188646451
0.0005909271189294704
0.0005909271189788605
0.0005909271188725834
0.000590927118947334
0.0005909271189918941
0.0005909271188584487
0.0005909271188698298
0.0005909271189367563
0.0005909271189586504
0.0005909271189080594
0.0005909271189134956
0.0005909271189500746
0.0005909271189287784
0.0005909271189782606
0.0005909271190397389
0.0005909271189963744
0.0005909271189988387
0.0005909271189923466
0.0005909271189921662
0.0008198623765017988
0.0008198623763535079
0.0008198623764215916
0.0008198623763313967
0.0008198623764507289
0.0008198623763671397
0.0008198623763008403
0.0008198623763974715
0.0008198623763376724
0.000819862376287457
0.0008198623764414844
0.000819862376322544
0.0008198623762739789
0.0008198623764222877
0.0008198623763162747
0.0008198623762738517
0.0008198623764353064
0.0008198623763341483
0.0008198623762870924
0.0008198623764247254
0.0008198623763194467
0.0008198623762807154
0.0008198623764434034
0.0008198623763405043
0.0008198623762905799
0.0008198623764325652
0.0008198623763208998
0.0008198623762796679
0.0008198623764368125
0.0008198623763300259
0.0008198623762907267
0.000819862376443065
0.00081986237633227
0.0008198623762941408
0.0008198623764471172
0.00081986237633282
0.0008198623762933049
0.0008198623764498512
0.0008198623763409342
0.0008198623763026415
0.0008198623764571594
0.0008198623763474751
0.0008198623763142351
0.000819862376467147
0.0008198623763443272
0.0008198623762906864
0.0008198623764497883
0.0008198623763906775
0.0008198623763102604
0.0008198623764417413
0.0008198623763940061
0.0008198623763351315
0.0008198623764887
0.0008198623764629018
0.0008198623763942784
0.0008198623765489342
0.0008198623764939608
0.000819862376450087
0.00105369428896509
0.001053694288797046
0.001053694288852291
0.001053694288778647
0.001053694288915418
0.001053694288792488
0.00105369428860755
0.001053694288840573
0.001053694288739667
0.001053694288634662
0.001053694288859068
0.001053694288735471
0.00105369428859594
0.001053694288864075
0.001053694288714609
0.001053694288598865
0.001053694288854553
0.001053694288726205
0.001053694288597357
0.001053694288857752
0.00105369428871669
0.001053694288599579
0.001053694288862143
0.001053694288734965
0.00105369428860917
0.001053694288868579
0.001053694288722809
0.001053694288602715
0.001053694288865481
0.001053694288731871
0.001053694288610871
0.001053694288872746
0.001053694288731444
0.001053694288614039
0.001053694288876358
0.00105369428873478
0.001053694288615143
0.00105369428887895
0.001053694288736259
0.001053694288616189
0.001053694288878165
0.001053694288737697
0.001053694288622094
0.001053694288886019
0.001053694288738772
0.001053694288614329
0.001053694288878084
0.00105369428875485
0.001053694288624757
0.001053694288884653
0.001053694288764325
0.001053694288644095
0.001053694288910921
0.001053694288816114
0.001053694288700411
0.001053694288993707
0.001053694288899946
0.001053694288815631
0.001289451660628088
0.001289451660524016
0.00128945166054525
0.001289451660494751
0.001289451660625143
0.00128945166047909
0.001289451660157281
0.001289451660535615
0.001289451660373635
0.001289451660229868
0.001289451660540225
0.001289451660392114
0.001289451660155539
0.001289451660567737
0.00128945166034985
0.001289451660167133
0.001289451660537031
0.001289451660366331
0.001289451660152431
0.001289451660551483
0.001289451660351846
0.001289451660161529
0.00128945166054621
0.001289451660376672
0.001289451660172205
0.001289451660565694
0.001289451660361509
0.001289451660164673
0.001289451660553787
0.001289451660372751
0.001289451660172345
0.001289451660563691
0.001289451660367899
0.001289451660174161
0.001289451660565338
0.001289451660372002
0.001289451660173929
0.001289451660566312
0.001289451660366728
0.001289451660166581
0.001289451660555118
0.001289451660359554
0.001289451660165326
0.001289451660558986
0.001289451660357331
0.001289451660154518
0.001289451660543311
0.001289451660351457
0.001289451660153079
0.001289451660546957
0.001289451660354184
0.001289451660159012
0.001289451660554707
0.001289451660392219
0.001289451660214457
0.001289451660653172
0.00128945166051619
0.00128945166037935
0.001525504670772592
0.001525504670822896
0.001525504670813144
0.001525504670772077
0.001525504670873237
0.001525504670702092
0.001525504670252977
0.001525504670771204
0.00152550467054205
0.001525504670374296
0.00152550467077182
0.001525504670586236
0.001525504670264435
0.001525504670820145
0.001525504670522264
0.001525504670286321
0.001525504670770237
0.001525504670546824
0.001525504670259568
0.001525504670794651
0.001525504670524662
0.001525504670274858
0.001525504670781763
0.00152550467055909
0.001525504670287648
0.001525504670813234
0.001525504670537513
0.001525504670276543
0.001525504670791857
0.001525504670551684
0.001525504670284834
0.001525504670804869
0.0015255046705413
0.001525504670284125
0.001525504670803269
0.001525504670544885
0.001525504670281269
0.001525504670802214
0.001525504670532854
0.001525504670264835
0.001525504670778879
0.001525504670514632
0.001525504670254817
0.001525504670776723
0.001525504670504978
0.001525504670233103
0.001525504670745447
0.001525504670478325
0.001525504670216851
0.001525504670738576
0.001525504670468618
0.001525504670204619
0.001525504670726272
0.001525504670491038
0.001525504670255856
0.001525504670831486
0.001525504670637992
0.00152550467045339
0.001763559077082873
0.001763559077296857
0.001763559077293987
0.001763559077304041
0.001763559077350431
0.001763559077147162
0.001763559076593943
0.001763559077237299
0.001763559076942873
0.001763559076763751
0.001763559077241861
0.001763559077011576
0.00176355907662403
0.001763559077308958
0.001763559076928697
0.001763559076655894
0.001763559077242725
0.001763559076961088
0.001763559076618619
0.001763559077275917
0.00176355907693185
0.001763559076639765
0.00176355907725731
0.001763559076976653
0.001763559076655774
0.001763559077300291
0.001763559076947994
0.001763559076639832
0.00176355907726938
0.00176355907696513
0.001763559076649377
0.001763559077285421
0.001763559076948542
0.001763559076645098
0.001763559077279554
0.00176355907695085
0.001763559076639421
0.001763559077276781
0.001763559076932499
0.001763559076613412
0.00176355907724007
0.001763559076901506
0.001763559076593535
0.001763559077230915
0.001763559076882889
0.001763559076557854
0.001763559077180666
0.001763559076834824
0.001763559076525147
0.0017635590771605
0.001763559076810424
0.001763559076492477
0.001763559077126507
0.001763559076814876
0.001763559076535066
0.00176355907723027
0.001763559076965847
0.00176355907673116
0.002009284243876437
0.002009284244321566
0.002009284244293203
0.002009284244383879
0.002009284244418062
0.002009284244176249
0.002009284243542375
0.002009284244295112
0.002009284243940234
0.002009284243758411
0.002009284244310431
0.002009284244032233
0.002009284243596338
0.002009284244394484
0.002009284243934227
0.002009284243637459
0.002009284244314975
0.002009284243973097
0.002009284243591238
0.002009284244355914
0.002009284243938527
0.002009284243618147
0.002009284244333498
0.002009284243993915
0.002009284243638702
0.002009284244387982
0.002009284243958434
0.002009284243616932
0.002009284244347478
0.002009284243978261
0.002009284243628253
0.002009284244366325
0.002009284243954846
0.00200928424361928
0.002009284244355207
0.002009284243955499
0.002009284243611254
0.002009284244351679
0.002009284243931678
0.002009284243575278
0.002009284244300332
0.002009284243886194
0.002009284243544618
0.002009284244283788
0.002009284243858212
0.002009284243493501
0.002009284244212499
0.002009284243787363
0.002009284243443125
0.002009284244177946
0.002009284243747308
0.002009284243388649
0.002009284244120565
0.002009284243731342
0.002009284243417991
0.002009284244215349
0.002009284243867144
0.002009284243534925
0.002271957523616997
0.002271957524401998
0.002271957524347967
0.002271957524486396
0.002271957524520708
0.002271957524235804
0.002271957523541742
0.002271957524388451
0.002271957523979477
0.002271957523800971
0.00227195752442211
0.002271957524095774
0.002271957523624724
0.002271957524521783
0.002271957523986883
0.002271957523674521
0.002271957524432067
0.002271957524030489
0.002271957523620869
0.002271957524479924
0.002271957523992863
0.002271957523653705
0.002271957524455665
0.002271957524059094
0.002271957523680533
0.002271957524522331
0.002271957524017466
0.00227195752365178
0.002271957524471805
0.002271957524039456
0.002271957523665467
0.002271957524493309
0.002271957524008423
0.002271957523650349
0.002271957524475715
0.002271957524007322
0.002271957523641044
0.002271957524473165
0.002271957523979345
0.002271957523594651
0.002271957524405482
0.002271957523917109
0.002271957523552095
0.00227195752438142
0.002271957523879877
0.002271957523484418
0.002271957524286937
0.002271957523784001
0.002271957523414892
0.002271957524237308
0.002271957523727736
0.002271957523337242
0.002271957524154265
0.002271957523688273
0.002271957523348196
0.002271957524232393
0.002271957523790627
0.00227195752331426
0.002563951376260761
0.002563951377486887
0.00256395137743364
0.002563951377590936
0.00256395137762548
0.002563951377295407
0.002563951376559657
0.00256395137748657
0.002563951377031302
0.00256395137685924
0.002563951377545781
0.002563951377174029
0.002563951376677585
0.002563951377660269
0.002563951377059288
0.002563951376735828
0.002563951377563706
0.002563951377105536
0.002563951376676269
0.002563951377617829
0.002563951377067772
0.002563951376715547
0.002563951377593963
0.002563951377145348
0.002563951376751025
0.002563951377674473
0.002563951377098713
0.002563951376713726
0.002563951377612882
0.002563951377121988
0.002563951376730608
0.002563951377637124
0.00256395137708228
0.002563951376707299
0.002563951377611312
0.002563951377079573
0.002563951376698531
0.002563951377612571
0.002563951377049456
0.002563951376641152
0.002563951377526099
0.002563951376967223
0.002563951376585173
0.002563951377494598
0.002563951376921307
0.002563951376499753
0.00256395137737406
0.002563951376796964
0.002563951376408951
0.002563951377308686
0.002563951376724145
0.002563951376306423
0.00256395137719675
0.002563951376657001
0.002563951376292704
0.002563951377249653
0.002563951376708809
0.00256395137602403
0.002899233671384265
0.00289923367317046
0.00289923367316123
0.002899233673300496
0.002899233673334586
0.002899233672961769
0.002899233672203375
0.002899233673207146
0.002899233672714226
0.002899233672541202
0.002899233673288184
0.002899233672877919
0.002899233672363908
0.002899233673417192
0.002899233672763975
0.002899233672430846
0.002899233673317998
0.002899233672810221
0.002899233672367122
0.002899233673377878
0.002899233672776295
0.002899233672413827
0.00289923367335718
0.002899233672866007
0.002899233672461319
0.00289923367345462
0.0028992336728164
0.002899233672413341
0.002899233673380078
0.002899233672839481
0.00289923367243468
0.0028992336734076
0.002899233672789822
0.002899233672400257
0.002899233673370972
0.002899233672785882
0.002899233672394951
0.002899233673380597
0.002899233672756909
0.002899233672326033
0.002899233673271959
0.002899233672650083
0.00289923367225456
0.002899233673233493
0.002899233672596901
0.00289923367215029
0.002899233673083167
0.002899233672439174
0.002899233672035293
0.002899233673001518
0.002899233672350043
0.002899233671906014
0.002899233672856403
0.002899233672249688
0.002899233671859819
0.002899233672874372
0.002899233672238297
0.002899233671248928
0.003290410805397406
0.003290410807897711
0.003290410807988382
0.003290410808055669
0.003290410808092828
0.003290410807687489
0.003290410806928531
0.003290410808011831
0.00329041080749515
0.003290410807303643
0.003290410808101631
0.003290410807666088
0.003290410807142282
0.003290410808245421
0.003290410807562148
0.003290410807218883
0.003290410808149284
0.003290410807605055
0.003290410807153154
0.003290410808214554
0.003290410807580469
0.003290410807208911
0.003290410808200593
0.003290410807683342
0.003290410807273034
0.003290410808320067
0.003290410807634436
0.003290410807211616
0.003290410808229592
0.003290410807654796
0.003290410807239318
0.003290410808261775
0.003290410807593937
0.003290410807189722
0.003290410808210456
0.003290410807589437
0.003290410807192496
0.003290410808235691
0.003290410807567056
0.003290410807111919
0.003290410808100648
0.003290410807429447
0.003290410807022368
0.003290410808056562
0.003290410807372128
0.003290410806898851
0.003290410807872097
0.003290410807174595
0.00329041080675608
0.003290410807774347
0.003290410807070931
0.00329041080659878
0.003290410807591106
0.003290410806930798
0.00329041080651103
0.003290410807564081
0.003290410806858206
0.003290410805420701
0.003744814467203056
0.003744814470251176
0.003744814470520002
0.003744814470610902
0.00374481447067281
0.003744814470254727
0.003744814469521883
0.003744814470677493
0.003744814470162639
0.003744814469935565
0.00374481447076667
0.003744814470327354
0.003744814469804186
0.003744814470926454
0.003744814470245738
0.003744814469892664
0.00374481447084094
0.003744814470281488
0.003744814469827549
0.003744814470911515
0.00374481447027341
0.003744814469894789
0.003744814470908665
0.003744814470390637
0.003744814469981401
0.003744814471058009
0.003744814470348696
0.003744814469903284
0.003744814470947241
0.003744814470362173
0.003744814469940008
0.003744814470986815
0.003744814470289368
0.003744814469869902
0.003744814470915121
0.003744814470285319
0.003744814469887827
0.003744814470967143
0.00374481447027834
0.003744814469796578
0.003744814470800971
0.003744814470102136
0.003744814469685976
0.00374481447075414
0.003744814470046738
0.003744814469544675
0.003744814470531346
0.003744814469801769
0.003744814469370241
0.003744814470419159
0.003744814469688321
0.00374481446918561
0.003744814470193245
0.00374481446950187
0.003744814469047272
0.003744814470112691
0.003744814469398021
0.003744814467489655
0.004261073475517968
0.004261073479029568
0.004261073479603051
0.004261073479729597
0.00426107347979581
0.004261073479393046
0.004261073478718206
0.004261073479903041
0.004261073479431901
0.00426107347917568
0.004261073480009308
0.004261073479595846
0.004261073479090542
0.004261073480188145
0.004261073479551647
0.004261073479195182
0.004261073480122483
0.00426107347957675
0.004261073479133413
0.004261073480198833
0.004261073479593464
0.004261073479215544
0.004261073480211867
0.004261073479726431
0.004261073479331245
0.004261073480402339
0.004261073479701109
0.004261073479232953
0.004261073480265286
0.004261073479701328
0.004261073479282046
0.004261073480316938
0.00426107347961696
0.004261073479184828
0.004261073480216535
0.004261073479614751
0.004261073479228214
0.004261073480311776
0.004261073479636357
0.004261073479128997
0.004261073480109894
0.004261073479412352
0.004261073478994149
0.004261073480065338
0.004261073479368997
0.00426107347883969
0.004261073479801246
0.004261073479068325
0.0042610734786298
0.004261073479678535
0.004261073478954219
0.00426107347842202
0.004261073479407233
0.004261073478716688
0.004261073478226352
0.004261073479267683
0.004261073478585463
0.00426107347620056
0.00482791495376189
0.004827914957593869
0.00482791495853483
0.004827914958732487
0.00482791495883076
0.004827914958481626
0.004827914957903483
0.004827914959057186
0.004827914958675212
0.004827914958414372
0.004827914959203644
0.00482791495885138
0.004827914958392048
0.004827914959407359
0.004827914958861052
0.004827914958519921
0.00482791495937165
0.00482791495887284
0.004827914958463767
0.004827914959455046
0.004827914958923422
0.00482791495856525
0.004827914959488399
0.004827914959073575
0.004827914958716016
0.004827914959735303
0.004827914959077504
0.004827914958594453
0.004827914959564125
0.004827914959055586
0.004827914958659614
0.00482791495963529
0.004827914958961658
0.004827914958527529
0.004827914959493499
0.004827914958963621
0.004827914958610402
0.004827914959655105
0.004827914959030949
0.00482791495850783
0.004827914959413471
0.004827914958749163
0.004827914958345539
0.004827914959378843
0.004827914958732344
0.004827914958186394
0.00482791495907251
0.00482791495836765
0.004827914957937492
0.004827914958945533
0.004827914958266894
0.004827914957715158
0.004827914958629251
0.00482791495797687
0.004827914957459842
0.004827914958429914
0.004827914957787967
0.004827914954986499
0.005426127273271524
0.005426127277201366
0.005426127278531913
0.005426127278860439
0.005426127279024826
0.005426127278770058
0.005426127278335643
0.005426127279397986
0.005426127279141411
0.005426127278913949
0.005426127279596249
0.005426127279338309
0.005426127278968023
0.005426127279833401
0.005426127279417718
0.005426127279129451
0.005426127279837442
0.005426127279415251
0.005426127279079324
0.005426127279930069
0.005426127279508624
0.005426127279206352
0.005426127279986993
0.005426127279676937
0.005426127279395815
0.005426127280308809
0.00542612727972606
0.005426127279247934
0.005426127280094136
0.005426127279670762
0.005426127279332802
0.005426127280195268
0.005426127279571276
0.005426127279157112
0.005426127279994108
0.005426127279579568
0.005426127279298075
0.00542612728025172
0.00542612727971353
0.005426127279197054
0.005426127279967123
0.005426127279363631
0.005426127279004301
0.00542612727995243
0.005426127279391648
0.005426127278852479
0.005426127279605211
0.005426127278954777
0.005426127278561052
0.005426127279481683
0.005426127278885534
0.005426127278336647
0.005426127279124157
0.005426127278545406
0.005426127278024448
0.005426127278869983
0.005426127278220093
0.005426127275160524
0.006032954757560141
0.006032954761308647
0.006032954763015138
0.006032954763548443
0.00603295476379216
0.006032954763658926
0.006032954763424588
0.006032954764341354
0.006032954764230119
0.006032954764089923
0.006032954764592565
0.006032954764448823
0.006032954764228297
0.006032954764873013
0.006032954764611493
0.00603295476443627
0.006032954764925713
0.006032954764595051
0.006032954764388303
0.006032954765030079
0.00603295476474097
0.006032954764551439
0.006032954765112029
0.006032954764926456
0.006032954764778236
0.006032954765528373
0.006032954765041466
0.006032954764599332
0.006032954765260482
0.006032954764938723
0.006032954764707422
0.006032954765404858
0.006032954764840664
0.006032954764478678
0.006032954765120602
0.006032954764854196
0.006032954764702151
0.006032954765508684
0.00603295476508028
0.006032954764604243
0.006032954765179101
0.00603295476465135
0.006032954764378665
0.006032954765195579
0.006032954764745601
0.006032954764247971
0.00603295476481107
0.006032954764227923
0.006032954763910255
0.006032954764698292
0.006032954764211093
0.006032954763698271
0.006032954764305493
0.006032954763826098
0.006032954763335761
0.006032954764008524
0.006032954763308895
0.006032954760191818
0.006626908012300552
0.006626908015586845
0.006626908017628149
0.006626908018435647
0.006626908018726826
0.006626908018705285
0.006626908018740685
0.006626908019481478
0.006626908019515201
0.006626908019525849
0.006626908019775643
0.006626908019749444
0.006626908019754955
0.006626908020108274
0.006626908020000304
0.0066269080200189
0.00662690802021756
0.006626908019967073
0.006626908019960241
0.006626908020335586
0.006626908020183091
0.006626908020182279
0.006626908020442144
0.006626908020378961
0.006626908020435559
0.006626908020971661
0.006626908020586937
0.006626908020216421
0.006626908020641971
0.006626908020418668
0.006626908020351807
0.006626908020845629
0.006626908020333477
0.006626908020059867
0.006626908020448574
0.006626908020344008
0.006626908020396624
0.006626908021004196
0.006626908020694198
0.006626908020296472
0.006626908020629222
0.006626908020173405
0.006626908020037302
0.006626908020688006
0.006626908020358302
0.006626908019940895
0.006626908020271743
0.006626908019749292
0.006626908019552858
0.006626908020174608
0.006626908019807624
0.006626908019367085
0.006626908019753392
0.006626908019384169
0.006626908018962202
0.006626908019431082
0.00662690801867986
0.00662690801568965
0.007191100240572331
0.007191100243197414
0.007191100245469909
0.007191100246578523
0.007191100246955042
0.007191100246973224
0.007191100247234956
0.007191100247830605
0.007191100247869115
0.007191100248095624
0.007191100248289325
0.007191100248245644
0.007191100248445987
0.007191100248681644
0.007191100248554462
0.007191100248745771
0.007191100248846828
0.007191100248619089
0.007191100248777181
0.007191100248987782
0.007191100248809266
0.007191100248972898
0.00719110024911505
0.00719110024900424
0.007191100249229773
0.007191100249638945
0.007191100249348993
0.00719110024907991
0.007191100249294807
0.007191100249139325
0.007191100249248068
0.007191100249522756
0.007191100249036616
0.007191100248881575
0.007191100249113807
0.007191100249014294
0.007191100249241748
0.007191100249738364
0.007191100249540699
0.007191100249251996
0.007191100249376534
0.007191100248956029
0.007191100248958585
0.007191100249430952
0.007191100249215293
0.007191100248908965
0.007191100249026206
0.007191100248530438
0.007191100248467102
0.007191100248909813
0.007191100248658543
0.007191100248318229
0.007191100248466907
0.007191100248203271
0.007191100247878373
0.00719110024813804
0.00719110024735887
0.007191100244636488
0.007714405355302325
0.007714405357176895
0.007714405359524243
0.00771440536091698
0.007714405361289659
0.007714405361252164
0.007714405361771291
0.007714405362289595
0.007714405362257878
0.007714405362729774
0.00771440536294521
0.007714405362801789
0.007714405363195889
0.007714405363400662
0.007714405363171937
0.007714405363539099
0.007714405363624128
0.007714405363311673
0.007714405363639522
0.007714405363788981
0.007714405363502643
0.00771440536383345
0.007714405363935486
0.007714405363697235
0.007714405364086704
0.007714405364418314
0.007714405364202206
0.007714405364045048
0.007714405364115283
0.007714405363920007
0.00771440536418998
0.007714405364350122
0.007714405363846039
0.007714405363792679
0.007714405363916509
0.007714405363755569
0.007714405364157725
0.007714405364598965
0.007714405364493145
0.007714405364321834
0.00771440536431039
0.007714405363862169
0.007714405363982693
0.007714405364308717
0.007714405364188292
0.007714405364002252
0.007714405363969746
0.007714405363452048
0.007714405363505213
0.007714405363785772
0.007714405363632367
0.007714405363400617
0.007714405363326382
0.007714405363152948
0.007714405362931923
0.007714405363007994
0.007714405362243599
0.007714405359864058
0.008190871702220605
0.00819087170335811
0.008190871705613417
0.008190871707217552
0.008190871707514379
0.008190871707375721
0.008190871708139412
0.008190871708615032
0.008190871708476691
0.00819087170918246
0.008190871709420008
0.00819087170915324
0.008190871709753553
0.008190871709937736
0.008190871709585172
0.008190871710143878
0.008190871710217122
0.008190871709788335
0.008190871710303192
0.008190871710407402
0.008190871709990472
0.008190871710504788
0.00819087171057264
0.008190871710187678
0.008190871710754492
0.008190871711040241
0.008190871710868509
0.008190871710806994
0.008190871710764576
0.008190871710500317
0.008190871710931562
0.008190871711018824
0.0081908717104543
0.008190871710480505
0.008190871710524079
0.008190871710295623
0.008190871710887821
0.008190871711315469
0.008190871711271091
0.008190871711194342
0.008190871711081991
0.008190871710568997
0.008190871710812661
0.008190871711046667
0.008190871710994287
0.008190871710905902
0.008190871710766826
0.008190871710185468
0.008190871710354361
0.008190871710525936
0.008190871710441425
0.008190871710298588
0.00819087171005024
0.008190871709948368
0.008190871709806393
0.008190871709758754
0.008190871709068528
0.008190871707028868
0.008618290586726772
0.00861829058718774
0.008618290589151466
0.008618290590912042
0.008618290591106692
0.008618290590851471
0.00861829059182009
0.008618290592274066
0.008618290592018265
0.008618290592924514
0.008618290593188178
0.008618290592798672
0.008618290593586431
0.008618290593763994
0.008618290593287989
0.008618290594023343
0.008618290594094599
0.008618290593546076
0.008618290594234442
0.008618290594311155
0.008618290593763924
0.008618290594447943
0.008618290594494107
0.00861829059396645
0.008618290594695122
0.008618290594958696
0.008618290594797864
0.008618290594790501
0.008618290594691777
0.008618290594369348
0.008618290594936628
0.008618290594984724
0.008618290594372684
0.008618290594416702
0.008618290594401123
0.008618290594129828
0.00861829059489058
0.008618290595336187
0.008618290595317893
0.008618290595281259
0.008618290595117687
0.008618290594556726
0.008618290594910956
0.008618290595090828
0.008618290595074423
0.008618290595026491
0.008618290594835197
0.008618290594205916
0.008618290594475215
0.008618290594575893
0.008618290594519927
0.00861829059441418
0.008618290594012744
0.008618290593971912
0.008618290593897505
0.008618290593819862
0.008618290593242341
0.008618290591511601
0.008996693047800722
0.008996693047705876
0.008996693049182478
0.008996693051002721
0.008996693051101548
0.008996693050732417
0.008996693051855745
0.008996693052298086
0.008996693051928286
0.008996693052992197
0.008996693053285185
0.008996693052785609
0.008996693053727757
0.00899669305391157
0.008996693053324789
0.008996693054207482
0.008996693054287219
0.008996693053630283
0.008996693054464076
0.008996693054529832
0.008996693053865626
0.008996693054691383
0.008996693054729258
0.008996693054075173
0.008996693054936966
0.008996693055195442
0.008996693055022991
0.008996693055040167
0.008996693054914944
0.008996693054547335
0.008996693055233066
0.008996693055270106
0.008996693054681013
0.008996693054654573
0.008996693054575424
0.008996693054313443
0.008996693055192725
0.008996693055668298
0.008996693055641772
0.008996693055619264
0.008996693055444116
0.008996693054852036
0.00899669305530173
0.00899669305545305
0.008996693055442723
0.008996693055407247
0.008996693055200402
0.008996693054535695
0.008996693054891355