/*--------------------------------*- C++ -*----------------------------------*\
| =========                 |                                                 |
| \\      /  F ield         | OpenFOAM: The Open Source CFD Toolbox           |
|  \\    /   O peration     | Version:  v1812                                 |
|   \\  /    A nd           | Web:      www.OpenFOAM.com                      |
|    \\/     M anipulation  |                                                 |
\*---------------------------------------------------------------------------*/
FoamFile
{
    version     2.0;
    format      ascii;
    class       volScalarField;
    location    "10000";
    object      p;
}
// * * * * * * * * * * * * * * * * * * * * * * * * * * * * * * * * * * * * * //

dimensions      [0 2 -2 0 0 0 0];


internalField   nonuniform List<scalar> 
3770
(
-6.367958611391558e-15
-4.147273666936153e-11
-5.218135327870897e-11
-6.726961406855612e-11
-7.347595705825864e-11
-7.808299859520193e-11
-8.33882271591964e-11
-8.493518526588709e-11
-8.689640632112073e-11
-8.794385823397746e-11
-9.034981473742844e-11
-8.871853992916776e-11
-9.027432197867017e-11
-8.957010032347138e-11
-8.914095948140957e-11
-8.858879110475907e-11
-8.892169265938321e-11
-8.685893267832369e-11
-8.727987283014156e-11
-8.635104134564692e-11
-8.503902554914984e-11
-8.45062934717817e-11
-8.427465223808533e-11
-8.230607781716056e-11
-8.229299245896521e-11
-8.140181674738645e-11
-7.954920850226146e-11
-7.892868244746075e-11
-7.855259313132682e-11
-7.660991301292673e-11
-7.635460544107298e-11
-7.534021414822009e-11
-7.331424691098789e-11
-7.262485316220333e-11
-7.195153441801601e-11
-6.976713560277736e-11
-6.921955231079447e-11
-6.79514546839396e-11
-6.542148139208055e-11
-6.411005822144068e-11
-6.287504123787452e-11
-6.003778429118977e-11
-5.9071253092439e-11
-5.71975737199965e-11
-5.427038521692797e-11
-5.210112997528134e-11
-5.042148333255939e-11
-4.636148252363277e-11
-4.509004172569928e-11
-4.144512597527859e-11
-3.854866004280057e-11
-3.356006315396945e-11
-3.267410174646545e-11
-2.390128351730785e-11
-2.410445841801202e-11
-1.317258934553258e-11
-1.160374350314508e-11
-5.367348962870831e-12
4.708593354040154e-14
-4.146859071522766e-11
-5.218079035565668e-11
-6.72625717247782e-11
-7.347761902998755e-11
-7.807838593970036e-11
-8.338992432869247e-11
-8.493211990758467e-11
-8.689872070361168e-11
-8.794148856780478e-11
-9.034933391307961e-11
-8.871819773986195e-11
-9.027503459091843e-11
-8.956864046771343e-11
-8.914310709978431e-11
-8.858775480258627e-11
-8.892228468551049e-11
-8.685964705739962e-11
-8.728008053792114e-11
-8.635068587221495e-11
-8.50409458485206e-11
-8.450581152667225e-11
-8.427486028844412e-11
-8.230710611569918e-11
-8.229304985165487e-11
-8.140200821561531e-11
-7.955122375859015e-11
-7.892824799698693e-11
-7.855270953979551e-11
-7.661143752764158e-11
-7.635485027404613e-11
-7.534067528824854e-11
-7.331628924479384e-11
-7.262479096704463e-11
-7.195205718786578e-11
-6.976946352601531e-11
-6.922039761746541e-11
-6.79528111181351e-11
-6.542459785207384e-11
-6.411117495559367e-11
-6.287686058500107e-11
-6.004113445326693e-11
-5.907316527382356e-11
-5.72001100320827e-11
-5.427496604197306e-11
-5.210382811700227e-11
-5.042516812269581e-11
-4.636622133980406e-11
-4.509415085959551e-11
-4.144925507337575e-11
-3.855601344124886e-11
-3.356372613312948e-11
-3.268126112083729e-11
-2.390721950251883e-11
-2.411330046553738e-11
-1.317910964079642e-11
-1.160003605256481e-11
-5.351214758791735e-12
1.147887650183679e-13
-4.147835937020133e-11
-5.218545089705553e-11
-6.725673304699499e-11
-7.348229819944665e-11
-7.807169436437719e-11
-8.339412271599029e-11
-8.493011474475298e-11
-8.69016359325712e-11
-8.794040256109332e-11
-9.03484145750931e-11
-8.871714014309597e-11
-9.027716092499032e-11
-8.956726378769977e-11
-8.914447179158433e-11
-8.858801759191587e-11
-8.892317245367505e-11
-8.685941461571325e-11
-8.728136844565557e-11
-8.635038162169446e-11
-8.504198610774808e-11
-8.450657099889356e-11
-8.427521214367617e-11
-8.230717867256773e-11
-8.22943755920384e-11
-8.140241979443891e-11
-7.955231195526265e-11
-7.892891989739412e-11
-7.855293721279427e-11
-7.661216391025787e-11
-7.635649752139817e-11
-7.534139108829913e-11
-7.331744573066854e-11
-7.26259199871991e-11
-7.195276393891584e-11
-6.977124568217346e-11
-6.922288046575197e-11
-6.795473223075452e-11
-6.54271796104049e-11
-6.411380359162394e-11
-6.287920304090667e-11
-6.004405202492351e-11
-5.907687335551728e-11
-5.720349878395872e-11
-5.427942051700604e-11
-5.210829972047261e-11
-5.042983487580937e-11
-4.637120078941752e-11
-4.510070968835899e-11
-4.145505527498137e-11
-3.856415970556829e-11
-3.356991622951361e-11
-3.269102746051594e-11
-2.391449033109541e-11
-2.412520042529307e-11
-1.318439793029618e-11
-1.158191622181584e-11
-5.310101341389002e-12
1.920940454337718e-13
-4.150649313285401e-11
-5.219274288063064e-11
-6.724921900988819e-11
-7.348739366803072e-11
-7.806731367099658e-11
-8.339998572708189e-11
-8.492638371265363e-11
-8.690874579994408e-11
-8.794001361843645e-11
-9.03447477904711e-11
-8.871871718002689e-11
-9.027988597607428e-11
-8.95631771220002e-11
-8.914863854517563e-11
-8.858864421035683e-11
-8.892140158744526e-11
-8.686196907903866e-11
-8.728325262642444e-11
-8.634726721854595e-11
-8.504561305142981e-11
-8.450754225458556e-11
-8.427275892249378e-11
-8.231010102872447e-11
-8.229640449490407e-11
-8.140011235500004e-11
-7.955595839659657e-11
-7.892998976808811e-11
-7.85504640413839e-11
-7.661560160980431e-11
-7.63588616177592e-11
-7.533944876376578e-11
-7.332116892129726e-11
-7.262756380385479e-11
-7.195080964347262e-11
-6.977580371875293e-11
-6.922617245134504e-11
-6.795431409917289e-11
-6.543267698499951e-11
-6.411732267943182e-11
-6.287919024048294e-11
-6.004978177453456e-11
-5.908137766882152e-11
-5.720474788480427e-11
-5.428732130579876e-11
-5.211373737752115e-11
-5.043247220099187e-11
-4.637987831248989e-11
-4.510878842936485e-11
-4.145946593490204e-11
-3.857651925352412e-11
-3.357779345199601e-11
-3.270008091425651e-11
-2.392617044954086e-11
-2.413875211366703e-11
-1.318377401143476e-11
-1.155424175777548e-11
-5.244586633247143e-12
3.017757749969325e-13
-4.154820498531128e-11
-5.219777129390665e-11
-6.722983479822321e-11
-7.34899078339708e-11
-7.807469275027391e-11
-8.340563701057807e-11
-8.491276323668258e-11
-8.692831903701478e-11
-8.793488197947928e-11
-9.033325245687376e-11
-8.873252122361181e-11
-9.027940698715214e-11
-8.954966084537519e-11
-8.916670914935536e-11
-8.858517460565214e-11
-8.891093207574675e-11
-8.687755531272156e-11
-8.728193806291736e-11
-8.633509504564812e-11
-8.506289592316263e-11
-8.450460869405856e-11
-8.426124428062934e-11
-8.232603548021418e-11
-8.229497125968501e-11
-8.138912037687349e-11
-7.957351021069243e-11
-7.892737200249139e-11
-7.853905859351462e-11
-7.663233734465535e-11
-7.635784519055134e-11
-7.532889360817215e-11
-7.3338574143274e-11
-7.26255717306168e-11
-7.194030046373382e-11
-6.979431877926294e-11
-6.922634044724181e-11
-6.794590960529566e-11
-6.545277044713849e-11
-6.41181763911713e-11
-6.287148058194091e-11
-6.00700959326286e-11
-5.908337525271653e-11
-5.719882781330047e-11
-5.431085551527811e-11
-5.211763326507067e-11
-5.042866329901774e-11
-4.640441037346684e-11
-4.51157819849578e-11
-4.145799196116763e-11
-3.860615169623473e-11
-3.358545129395507e-11
-3.270406033886103e-11
-2.395429548310239e-11
-2.41520605314818e-11
-1.317315335733358e-11
-1.153151737328088e-11
-5.154779305530055e-12
4.80735706099773e-13
-4.158867233042464e-11
-5.219993247362365e-11
-6.719143740751923e-11
-7.349033028214533e-11
-7.810308382880716e-11
-8.340858513882165e-11
-8.488213550106559e-11
-8.696858814999438e-11
-8.791893908641443e-11
-9.030927441835937e-11
-8.876830791664109e-11
-9.027084875945561e-11
-8.95209146148425e-11
-8.921021524520704e-11
-8.857218946238084e-11
-8.888672072969488e-11
-8.69167602771212e-11
-8.727227080656778e-11
-8.630835846334917e-11
-8.510529981761958e-11
-8.449269042614019e-11
-8.423516707649775e-11
-8.236521942156789e-11
-8.228464576920762e-11
-8.136443386038235e-11
-7.961688820402753e-11
-7.891592528607397e-11
-7.85131954804763e-11
-7.667329490318417e-11
-7.634831004504066e-11
-7.530472297181686e-11
-7.338131339207535e-11
-7.261470404426034e-11
-7.191616271299132e-11
-6.983840021856124e-11
-6.921838058759359e-11
-6.792489815998973e-11
-6.549989977452867e-11
-6.41119018770172e-11
-6.285179693769118e-11
-6.011754076567961e-11
-5.907869553108928e-11
-5.71818949373891e-11
-5.436309814473147e-11
-5.211653764514751e-11
-5.041527890570905e-11
-4.645811393408378e-11
-4.511841569794588e-11
-4.144780390286357e-11
-3.866737989315581e-11
-3.359050405228343e-11
-3.270058053119819e-11
-2.401248697840847e-11
-2.416236055396541e-11
-1.314943766074027e-11
-1.152928226742182e-11
-5.041089062002545e-12
7.608910435452797e-13
-4.160130442824454e-11
-5.220092542458591e-11
-6.713540639178802e-11
-7.34942030463963e-11
-7.815520191709192e-11
-8.340446580364862e-11
-8.48324748429125e-11
-8.703185977085949e-11
-8.788732991208073e-11
-9.027326152024408e-11
-8.882941473408454e-11
-9.025004985058461e-11
-8.947739821616284e-11
-8.928312387126884e-11
-8.854523446803375e-11
-8.884947578493134e-11
-8.698339860094248e-11
-8.725008923077375e-11
-8.626762964277001e-11
-8.517680081196999e-11
-8.446736247174495e-11
-8.419493015669514e-11
-8.243130422236882e-11
-8.226121948662521e-11
-8.132701386013243e-11
-7.969053419391115e-11
-7.889151151581822e-11
-7.847344399097196e-11
-7.674226864206444e-11
-7.632613682649217e-11
-7.526797142880574e-11
-7.345371152036294e-11
-7.259089011683815e-11
-7.18794320979216e-11
-6.991234715988169e-11
-6.919827549278154e-11
-6.789259740658201e-11
-6.55788962325628e-11
-6.409504936277063e-11
-6.282180046655618e-11
-6.019691682578942e-11
-5.906370180714995e-11
-5.715573182153404e-11
-5.444960792927529e-11
-5.210762019695148e-11
-5.039471173158576e-11
-4.65467204505737e-11
-4.511396598042663e-11
-4.143167505663318e-11
-3.876677412068583e-11
-3.359101778060098e-11
-3.26931130416118e-11
-2.410765441941686e-11
-2.416859261948676e-11
-1.311799453069952e-11
-1.155833549932567e-11
-4.907441569409243e-12
1.147021310110061e-12
-4.15646991491416e-11
-5.219242159277266e-11
-6.706427214973898e-11
-7.350956124171916e-11
-7.822526423390736e-11
-8.338651015983387e-11
-8.476785096775141e-11
-8.711488597264095e-11
-8.783911953241446e-11
-9.022972890567636e-11
-8.891109289568843e-11
-9.021437292095709e-11
-8.942599946737855e-11
-8.938040668636072e-11
-8.850199135418784e-11
-8.880591365425225e-11
-8.707298068870602e-11
-8.721293540573076e-11
-8.621983089275771e-11
-8.527260433107715e-11
-8.442622699118627e-11
-8.414730475085826e-11
-8.251984477766975e-11
-8.222244797479869e-11
-8.128394767733727e-11
-7.978994106396179e-11
-7.885186385733194e-11
-7.842667407206439e-11
-7.683473476340708e-11
-7.628913262852871e-11
-7.522581442687238e-11
-7.355142848616296e-11
-7.255209568125044e-11
-7.183719869068157e-11
-7.001152161601644e-11
-6.916374362127113e-11
-6.785614010624774e-11
-6.568544268174881e-11
-6.406572777108756e-11
-6.278883148617971e-11
-6.030398091793891e-11
-5.903640892736253e-11
-5.712770254652002e-11
-5.456633697391988e-11
-5.208918737111766e-11
-5.037448149559808e-11
-4.666623704075934e-11
-4.510072082625956e-11
-4.141742654629055e-11
-3.890064373290842e-11
-3.358575134734293e-11
-3.269000189685089e-11
-2.423757865274575e-11
-2.417169283606852e-11
-1.30921898095353e-11
-1.162313410044056e-11
-4.759200348840154e-12
1.629408362209582e-12
-4.147175172488036e-11
-5.216614202984158e-11
-6.697269007889446e-11
-7.353725730665538e-11
-7.830555569529125e-11
-8.334940842130004e-11
-8.469339610314581e-11
-8.721088430149391e-11
-8.777452690829684e-11
-9.018440017491238e-11
-8.900611109849098e-11
-9.016289306646242e-11
-8.937472893331731e-11
-8.949385446925421e-11
-8.84421597499822e-11
-8.876361107200814e-11
-8.717811550111648e-11
-8.716010673998753e-11
-8.617285909690279e-11
-8.538478900769768e-11
-8.436880238433269e-11
-8.410008750996876e-11
-8.262355081267737e-11
-8.216794558091286e-11
-8.124318784201497e-11
-7.990732186026957e-11
-7.879652551405723e-11
-7.838073191982169e-11
-7.69432513486584e-11
-7.623693276810929e-11
-7.518625386534175e-11
-7.366694284069055e-11
-7.249817412724304e-11
-7.17974992041498e-11
-7.012833328844611e-11
-6.911432826187804e-11
-6.782339355006214e-11
-6.581183283537724e-11
-6.402364323570889e-11
-6.276080331336684e-11
-6.043106165894105e-11
-5.899649530827057e-11
-5.710575160114148e-11
-5.47055678476177e-11
-5.206090017872747e-11
-5.036236272245564e-11
-4.680890905291348e-11
-4.507822489369462e-11
-4.14130831929538e-11
-3.906117802768746e-11
-3.35745646046379e-11
-3.269950578919116e-11
-2.439638383617706e-11
-2.41739852741076e-11
-1.308650353962562e-11
-1.172920898670943e-11
-4.601067787238681e-12
2.209378723671259e-12
-4.131857234607013e-11
-5.212588145626213e-11
-6.68574945113878e-11
-7.357152128474645e-11
-7.83896074848299e-11
-8.329019154162249e-11
-8.461302826581907e-11
-8.731319756825043e-11
-8.769554037888432e-11
-9.014045404478855e-11
-8.910816931365624e-11
-9.009569402333608e-11
-8.932921561892194e-11
-8.96163255614602e-11
-8.836672555833587e-11
-8.872776793290214e-11
-8.729254516108004e-11
-8.709206687298327e-11
-8.613232397005884e-11
-8.55065056967917e-11
-8.429588347856106e-11
-8.405869651188266e-11
-8.273623192662836e-11
-8.209849974049202e-11
-8.121037305125918e-11
-8.003601786022938e-11
-7.872627466651024e-11
-7.834109601636685e-11
-7.70615263439761e-11
-7.617043199169642e-11
-7.515504674202182e-11
-7.37939065402697e-11
-7.243017985494308e-11
-7.176592022176678e-11
-7.025615388109055e-11
-6.905082231908339e-11
-6.779992285320526e-11
-6.595155087887152e-11
-6.396979864367497e-11
-6.274332535302993e-11
-6.057170709020402e-11
-5.894487440247082e-11
-5.709553979333952e-11
-5.486077864558278e-11
-5.202374280035544e-11
-5.036382934203878e-11
-4.696825185353912e-11
-4.504732503574255e-11
-4.142446485707992e-11
-3.924175590598553e-11
-3.35588516894054e-11
-3.272763958403332e-11
-2.457969330831547e-11
-2.417923976455044e-11
-1.311302339008977e-11
-1.188491944542744e-11
-4.431261403625703e-12
2.893731160561688e-12
-4.109795290150179e-11
-5.207429387492473e-11
-6.672434014300057e-11
-7.360913713110893e-11
-7.847261986189001e-11
-8.320820705529812e-11
-8.452830025167623e-11
-8.741268828043612e-11
-8.760367062181224e-11
-9.010084571773744e-11
-8.921238976719523e-11
-9.001361858674241e-11
-8.929316089768019e-11
-8.974170442560899e-11
-8.827768825828631e-11
-8.870156328157369e-11
-8.741113547003869e-11
-8.701015734722038e-11
-8.610182160918342e-11
-8.563196864867701e-11
-8.420922625983802e-11
-8.402650422401224e-11
-8.285270528297957e-11
-8.201573978220236e-11
-8.118916807824808e-11
-8.017051142280842e-11
-7.864285285380474e-11
-7.831123729932667e-11
-7.718440358841055e-11
-7.609147574782814e-11
-7.513601401047643e-11
-7.392713599911691e-11
-7.23501549969235e-11
-7.174621657787977e-11
-7.038981164099429e-11
-6.897509885929659e-11
-6.77894468444814e-11
-6.609939315726057e-11
-6.390632688566606e-11
-6.274019630278629e-11
-6.072070422440366e-11
-5.888351467263673e-11
-5.710095201854937e-11
-5.502686470723491e-11
-5.197997322802518e-11
-5.038271554152171e-11
-4.713928471118482e-11
-4.501009164195913e-11
-4.145588091912692e-11
-3.943742425485326e-11
-3.354168853864595e-11
-3.277907957843561e-11
-2.478526685071455e-11
-2.419317751604123e-11
-1.318264817872673e-11
-1.209990784860938e-11
-4.237773761422623e-12
3.687432556073123e-12
-4.080241946250547e-11
-5.201009437826409e-11
-6.658438061160638e-11
-7.364692027007378e-11
-7.854854552830029e-11
-8.310226263549107e-11
-8.444075965900654e-11
-8.750032799768488e-11
-8.750375963784577e-11
-9.00667534931242e-11
-8.931281011024881e-11
-8.991886024621845e-11
-8.926939177547391e-11
-8.986252525185865e-11
-8.817904295969107e-11
-8.868711901717279e-11
-8.752782390651731e-11
-8.691737393547444e-11
-8.608413220528299e-11
-8.575420483954377e-11
-8.41125381176402e-11
-8.400591942339589e-11
-8.296679746751039e-11
-8.192300994142555e-11
-8.118237087700703e-11
-8.030424244739414e-11
-7.854993152933608e-11
-7.82937327147849e-11
-7.730576555032986e-11
-7.60037365682088e-11
-7.513220757843894e-11
-7.406049976145016e-11
-7.22619923047715e-11
-7.174105312863593e-11
-7.052283104502619e-11
-6.889077211004519e-11
-6.779474833072751e-11
-6.624915749558009e-11
-6.383727986715655e-11
-6.275430974276961e-11
-6.087187246458474e-11
-5.881616320256142e-11
-5.712490305591886e-11
-5.519766292147938e-11
-5.193371698973936e-11
-5.042188880718395e-11
-4.731605289053365e-11
-4.497037972822618e-11
-4.151072197455062e-11
-3.964215544202616e-11
-3.352829266093232e-11
-3.285778349311366e-11
-2.501050352090232e-11
-2.422417115512293e-11
-1.330539058612176e-11
-1.238636903699621e-11
-4.003088211024814e-12
4.57622848556121e-12
-4.04344157842244e-11
-5.192744538804013e-11
-6.645197432549362e-11
-7.367776759445908e-11
-7.860930272834545e-11
-8.297052145115967e-11
-8.435158728659732e-11
-8.756718111450193e-11
-8.740395856390639e-11
-9.003818922275283e-11
-8.940170395375269e-11
-8.981659499291494e-11
-8.925981492882332e-11
-8.996857496649635e-11
-8.807837384938282e-11
-8.868521616297895e-11
-8.763427842871934e-11
-8.681984571841635e-11
-8.608087757451705e-11
-8.586365050568436e-11
-8.401299836673659e-11
-8.399820723233896e-11
-8.306997673147993e-11
-8.182679820764881e-11
-8.119150218471573e-11
-8.042808219913164e-11
-7.845463714767439e-11
-7.829009013373663e-11
-7.74170975549885e-11
-7.591404339394942e-11
-7.51453490263691e-11
-7.41852761242744e-11
-7.217286877324662e-11
-7.175179371495484e-11
-7.064627190531436e-11
-6.880460102111452e-11
-6.781707761108953e-11
-6.639185354604585e-11
-6.376973299285787e-11
-6.278696743464469e-11
-6.101610974252121e-11
-5.874945496822394e-11
-5.716848209909805e-11
-5.536389190887395e-11
-5.189177153107485e-11
-5.048228490560251e-11
-4.7489361637014e-11
-4.493454310147062e-11
-4.159011639610265e-11
-3.984646337048366e-11
-3.352624552088631e-11
-3.296563505271974e-11
-2.524928953637565e-11
-2.428312718431624e-11
-1.348590085332611e-11
-1.27557746773322e-11
-3.70946350860915e-12
5.496485292871574e-12
-4.003359178635254e-11
-5.18096755760277e-11
-6.633838439922702e-11
-7.368726107578732e-11
-7.864376709111707e-11
-8.281148103524076e-11
-8.426245167947714e-11
-8.760793543853024e-11
-8.731735300155164e-11
-9.001160283023723e-11
-8.947021394654981e-11
-8.971515823938518e-11
-8.926381403149917e-11
-9.004817611471481e-11
-8.798692578285513e-11
-8.869393229299671e-11
-8.772099911287828e-11
-8.672702890039207e-11
-8.609114555494078e-11
-8.59494054500759e-11
-8.392143660146438e-11
-8.400208625630307e-11
-8.315249148016457e-11
-8.173684747719436e-11
-8.121533298231844e-11
-8.053158281215048e-11
-7.836773952422024e-11
-7.829935424222349e-11
-7.750856238373808e-11
-7.583237889253304e-11
-7.517434503828309e-11
-7.429129490785982e-11
-7.20931681368663e-11
-7.177666683736079e-11
-7.074928633689202e-11
-6.872627033960387e-11
-6.785445960843298e-11
-6.651662703983218e-11
-6.371354600971928e-11
-6.28361471100273e-11
-6.114239402092993e-11
-5.869268728585086e-11
-5.722901197424498e-11
-5.551388275716437e-11
-5.186309587419496e-11
-5.056094698434494e-11
-4.764736210638176e-11
-4.491099392525247e-11
-4.169048642898763e-11
-4.003783752708436e-11
-3.354426167687437e-11
-3.310001019710997e-11
-2.549075905413081e-11
-2.43811944260428e-11
-1.371510595894318e-11
-1.320145857757099e-11
-3.335278667340236e-12
6.339178870125477e-12
-3.967852006961947e-11
-5.163260295489705e-11
-6.625096650590641e-11
-7.365756538857376e-11
-7.864349636770395e-11
-8.262932538064424e-11
-8.41764398035893e-11
-8.761810229155472e-11
-8.725434746856583e-11
-8.998057162149143e-11
-8.95115937399952e-11
-8.962439513273194e-11
-8.927720055398122e-11
-9.009190284939215e-11
-8.791709889249889e-11
-8.870799374711405e-11
-8.778036523530419e-11
-8.664968322401699e-11
-8.611042142636812e-11
-8.600272142138965e-11
-8.384992901467138e-11
-8.401286989480131e-11
-8.320638791526532e-11
-8.166388190478035e-11
-8.124889414452538e-11
-8.060641786957889e-11
-7.830128475170578e-11
-7.831722174586765e-11
-7.757215793265509e-11
-7.576949614992736e-11
-7.521414596246608e-11
-7.437016695853307e-11
-7.203409439135841e-11
-7.181003506907106e-11
-7.082271346352557e-11
-6.866617754088914e-11
-6.790074556890332e-11
-6.661403533283423e-11
-6.36788780185278e-11
-6.289563005738256e-11
-6.124095196759607e-11
-5.865537848280229e-11
-5.729902209079089e-11
-5.563693039598966e-11
-5.185630102531304e-11
-5.065023896716869e-11
-4.777868569639919e-11
-4.490779126384484e-11
-4.180228809236296e-11
-4.020417009745646e-11
-3.35889526927323e-11
-3.325251378038117e-11
-2.572043548540803e-11
-2.452545623947096e-11
-1.396858350197954e-11
-1.369595219119989e-11
-2.857315862304658e-12
6.993977701087501e-12
-3.946091385339985e-11
-5.137796742117388e-11
-6.619635221354955e-11
-7.357299486498117e-11
-7.860737949129516e-11
-8.243461361149455e-11
-8.409737358034329e-11
-8.759358326972526e-11
-8.721989185310165e-11
-8.993785736681124e-11
-8.952283778124861e-11
-8.955241372212051e-11
-8.929294314913487e-11
-9.009549457146296e-11
-8.787856007830939e-11
-8.872014130310054e-11
-8.780901552938304e-11
-8.659652829756393e-11
-8.613169136892708e-11
-8.601981190848567e-11
-8.380808112065601e-11
-8.40235588803881e-11
-8.322795948185252e-11
-8.161610393403763e-11
-8.128471405580068e-11
-8.06493414647288e-11
-7.826481793825682e-11
-7.833713161149536e-11
-7.760434017523158e-11
-7.573325730530225e-11
-7.525703128523969e-11
-7.441822305520905e-11
-7.200407597304341e-11
-7.184346205047194e-11
-7.086143202755949e-11
-6.86318043773425e-11
-6.794704394606106e-11
-6.66790538383203e-11
-6.367269048081999e-11
-6.295651400514005e-11
-6.130635703562172e-11
-5.864379526512057e-11
-5.736779979163756e-11
-5.572654098574927e-11
-5.187637148135578e-11
-5.073962177644754e-11
-4.787574335638825e-11
-4.492946045569249e-11
-4.191174549720933e-11
-4.033719138387293e-11
-3.366130387958863e-11
-3.341042657477226e-11
-2.592256396333271e-11
-2.471483797025018e-11
-1.421342081155499e-11
-1.420973086945285e-11
-2.262350886611226e-12
7.365065621332475e-12
-3.948262790429493e-11
-5.103756044912876e-11
-6.617604479407908e-11
-7.342131447754549e-11
-7.853854061384919e-11
-8.223864039061407e-11
-8.402704288824834e-11
-8.753288319571499e-11
-8.721341534639772e-11
-8.987863734060189e-11
-8.950419397930274e-11
-8.950342223518023e-11
-8.930406550545673e-11
-9.005973306330822e-11
-8.787555505498258e-11
-8.87244218714316e-11
-8.780757589873147e-11
-8.657177666343993e-11
-8.614833504177948e-11
-8.600168257998848e-11
-8.380036400352955e-11
-8.402786619585758e-11
-8.321745225481994e-11
-8.159665903380573e-11
-8.131590782572421e-11
-8.066228069800321e-11
-7.826261867643822e-11
-7.835312472541185e-11
-7.760609419249613e-11
-7.572608094882321e-11
-7.529555487102605e-11
-7.443676087397896e-11
-7.200647039359378e-11
-7.186890570272113e-11
-7.086441099255085e-11
-6.862533671682961e-11
-6.79851307155888e-11
-6.671151329535966e-11
-6.369653741463482e-11
-6.301058246027122e-11
-6.133787970740979e-11
-5.865863553515709e-11
-5.742492719024413e-11
-5.578119555800414e-11
-5.192274739875791e-11
-5.081933823698652e-11
-4.793562419071762e-11
-4.497501723073063e-11
-4.20049245828825e-11
-4.043342050271723e-11
-3.375516086933513e-11
-3.356024333651195e-11
-2.608201663296988e-11
-2.493878995193173e-11
-1.441637778755729e-11
-1.47152838188505e-11
-1.542671563020948e-12
7.387858916432603e-12
-3.984356494293983e-11
-5.061480457776619e-11
-6.618644645097503e-11
-7.319803023998155e-11
-7.844126763636503e-11
-8.204907168542343e-11
-8.396519649591123e-11
-8.743759674029349e-11
-8.723166687055438e-11
-8.980288272939699e-11
-8.945626325635696e-11
-8.947726581964632e-11
-8.930693914523977e-11
-8.998737669486619e-11
-8.790659327896192e-11
-8.871978330843071e-11
-8.777823833627288e-11
-8.657456961099458e-11
-8.615720525377994e-11
-8.595126866399502e-11
-8.382577314282694e-11
-8.402352621115832e-11
-8.317636639414843e-11
-8.160314032716081e-11
-8.133940253563926e-11
-8.065024549079927e-11
-7.829331322828946e-11
-7.836251300589509e-11
-7.758089587481514e-11
-7.574470232252705e-11
-7.532557408727985e-11
-7.443014866329119e-11
-7.203953008517112e-11
-7.188182997649702e-11
-7.083226744056125e-11
-6.864306038863569e-11
-6.801066840273942e-11
-6.671445917679474e-11
-6.374678601254725e-11
-6.305344489750233e-11
-6.133776907561205e-11
-5.869494775179173e-11
-5.746360949747526e-11
-5.580297513023785e-11
-5.198987226734454e-11
-5.088378968714927e-11
-4.795888762209169e-11
-4.503827509120425e-11
-4.207167929776772e-11
-4.049304498994165e-11
-3.385861480241679e-11
-3.369148328445527e-11
-2.618573787977472e-11
-2.517996275656186e-11
-1.454840610156907e-11
-1.518929996543438e-11
-6.941619256351167e-13
7.044019713711741e-12
-4.062029254840286e-11
-5.012338940488589e-11
-6.622440756306676e-11
-7.290967887513029e-11
-7.832015153512398e-11
-8.186873829001227e-11
-8.390976458908278e-11
-8.731028090905176e-11
-8.726913139484704e-11
-8.971590507513436e-11
-8.93792743302486e-11
-8.946984190756566e-11
-8.930257823390882e-11
-8.988200223094515e-11
-8.796478615688626e-11
-8.871025486053529e-11
-8.772350751920483e-11
-8.659969063170068e-11
-8.615968644017841e-11
-8.587216869057364e-11
-8.387839772116064e-11
-8.401346815958699e-11
-8.310679980793342e-11
-8.162871890764325e-11
-8.135636554615304e-11
-8.061915269439137e-11
-7.835104534561777e-11
-7.836644580323629e-11
-7.75328464325181e-11
-7.578208690881815e-11
-7.534751390095605e-11
-7.44037178291258e-11
-7.209705466190047e-11
-7.18826948755026e-11
-7.076688660496162e-11
-6.867667587534001e-11
-6.802359815822557e-11
-6.669230085797345e-11
-6.381614113456863e-11
-6.308543931473539e-11
-6.130973790420791e-11
-5.874412283009032e-11
-5.748191974323796e-11
-5.579600627580856e-11
-5.206912480028058e-11
-5.093273875923504e-11
-4.79482870246172e-11
-4.511008660680654e-11
-4.210735798678999e-11
-4.051895973194666e-11
-3.395707947233309e-11
-3.379920517712927e-11
-2.622408639337862e-11
-2.541996239162175e-11
-1.458465896869749e-11
-1.561650449742411e-11
2.782763006089479e-13
6.349663850746932e-12
-4.184134772300211e-11
-4.959217023471049e-11
-6.628716465581231e-11
-7.257458172344944e-11
-7.818808468204014e-11
-8.169480147125405e-11
-8.386011647398056e-11
-8.715854597733123e-11
-8.730651725527245e-11
-8.961796430554006e-11
-8.928488339636578e-11
-8.94685480879475e-11
-8.929201741213896e-11
-8.975946950985247e-11
-8.803331504432549e-11
-8.869191155956139e-11
-8.765373838491785e-11
-8.663694598974081e-11
-8.61586149987591e-11
-8.577898603140556e-11
-8.394416898325928e-11
-8.400006553922413e-11
-8.30242839486446e-11
-8.166415512463148e-11
-8.136402296616408e-11
-8.057373908037079e-11
-7.842566018159199e-11
-7.836634272321992e-11
-7.746856695942046e-11
-7.583138147536136e-11
-7.536417157814911e-11
-7.436288020915499e-11
-7.216549675412206e-11
-7.187514925276198e-11
-7.068172825222856e-11
-6.871674175810879e-11
-6.802173667303347e-11
-6.664902994470796e-11
-6.38935086076439e-11
-6.310762177750148e-11
-6.126109568091078e-11
-5.879924129212659e-11
-5.748136592679329e-11
-5.576461178543342e-11
-5.214987949320485e-11
-5.09676139332111e-11
-4.791021481432961e-11
-4.518253632044878e-11
-4.211240324383586e-11
-4.051415868669263e-11
-3.403884191997776e-11
-3.388082511787995e-11
-2.619452869085372e-11
-2.564076697954184e-11
-1.451148769122248e-11
-1.598653736277958e-11
1.363977036148679e-12
5.356966706559365e-12
-4.349242764328484e-11
-4.906170665575188e-11
-6.637772837679946e-11
-7.221863772647023e-11
-7.805952690401152e-11
-8.151988998933125e-11
-8.381481516842895e-11
-8.699263240311423e-11
-8.732058512635659e-11
-8.950658697302454e-11
-8.918977165267221e-11
-8.945838528560495e-11
-8.927432599371151e-11
-8.963992675851001e-11
-8.80936789806346e-11
-8.865985997037467e-11
-8.758451839478885e-11
-8.667281110516165e-11
-8.615451884214066e-11
-8.569073712169681e-11
-8.400659048541026e-11
-8.398319046437298e-11
-8.294884567474188e-11
-8.170045284837593e-11
-8.135753715680415e-11
-8.051817960634168e-11
-7.850399639461275e-11
-7.836488067979073e-11
-7.740101208712652e-11
-7.588357952426686e-11
-7.537466560529442e-11
-7.43150998415839e-11
-7.223079479324377e-11
-7.186381667747156e-11
-7.059574934956451e-11
-6.87537164775386e-11
-6.80007058184641e-11
-6.658910562282831e-11
-6.396566352964903e-11
-6.312043019721844e-11
-6.120353805149775e-11
-5.885570815505949e-11
-5.746385480971929e-11
-5.571374037453768e-11
-5.222042941212524e-11
-5.098926096151816e-11
-4.785492930229322e-11
-4.525082427241574e-11
-4.208962217511719e-11
-4.048279945674959e-11
-3.409548227683726e-11
-3.3935627047962e-11
-2.610096807745169e-11
-2.582934118945445e-11
-1.432643228591611e-11
-1.629590758269663e-11
2.547550775822911e-12
4.141553249642985e-12
-4.553135333825785e-11
-4.857446832655134e-11
-6.650637333227369e-11
-7.186503305391936e-11
-7.793907732021843e-11
-8.133818741821971e-11
-8.376987385165589e-11
-8.681804617972268e-11
-8.730633354210734e-11
-8.93852844268766e-11
-8.909783274418394e-11
-8.943332652416948e-11
-8.925066549071869e-11
-8.952836233610271e-11
-8.813907095258366e-11
-8.861962599386616e-11
-8.752224066993024e-11
-8.669876669658333e-11
-8.61480060391345e-11
-8.561276118240354e-11
-8.405831073686141e-11
-8.39645770058672e-11
-8.28847037812494e-11
-8.173082020555935e-11
-8.133812882297306e-11
-8.045749187039918e-11
-7.857772502388406e-11
-7.836543465099212e-11
-7.734005441115891e-11
-7.593015357378467e-11
-7.537821493544942e-11
-7.426815731646812e-11
-7.228757552123555e-11
-7.185103303342899e-11
-7.051444854721039e-11
-6.877891069344466e-11
-6.796068954490574e-11
-6.651904753657741e-11
-6.402543309237756e-11
-6.312606297250042e-11
-6.114549266943127e-11
-5.890720203651347e-11
-5.743020080965785e-11
-5.564981497619273e-11
-5.227411573305023e-11
-5.099982393772416e-11
-4.779092026865594e-11
-4.530980740788714e-11
-4.204153168089091e-11
-4.043113524824555e-11
-3.412195147071356e-11
-3.396375943670142e-11
-2.595182786160155e-11