/*--------------------------------*- C++ -*----------------------------------*\
| =========                 |                                                 |
| \\      /  F ield         | OpenFOAM: The Open Source CFD Toolbox           |
|  \\    /   O peration     | Version:  v1812                                 |
|   \\  /    A nd           | Web:      www.OpenFOAM.com                      |
|    \\/     M anipulation  |                                                 |
\*---------------------------------------------------------------------------*/
FoamFile
{
    version     2.0;
    format      ascii;
    class       surfaceScalarField;
    location    "10000";
    object      phi;
}
// * * * * * * * * * * * * * * * * * * * * * * * * * * * * * * * * * * * * * //

dimensions      [0 3 -1 0 0 0 0];
oriented        oriented;


internalField   nonuniform List<scalar> 
7417
(
-0.0008931114763416949
4.732954812009573e-15
-0.0008931114763558053
1.410448415795099e-14
-0.0008931114763576512
1.835975726765261e-15
-0.0008931114763637818
6.132373583999722e-15
-0.0008931114763655604
1.78850765248956e-15
-0.0008931114763671037
1.550899895977403e-15
-0.0008931114763682147
1.110934485018442e-15
-0.0008931114763695076
1.267313470997953e-15
-0.0008931114763691872
-3.461690063578409e-16
-0.000893111476370009
7.667533136928725e-16
-0.000893111476371494
1.544855933777815e-15
-0.0008931114763706822
-8.085258713097983e-16
-0.0008931114763710667
3.859422558296239e-16
-0.0008931114763719254
8.614724389815551e-16
-0.0008931114763710044
-9.199724775985273e-16
-0.0008931114763711178
1.140194310126504e-16
-0.0008931114763719605
8.428605069780865e-16
-0.0008931114763707534
-1.206901730923093e-15
-0.0008931114763709273
1.731913279416605e-16
-0.0008931114763715087
5.758638233033182e-16
-0.0008931114763703843
-1.118045574264378e-15
-0.000893111476370427
4.305657111079138e-17
-0.0008931114763711871
7.602340266130391e-16
-0.0008931114763700119
-1.174420553990426e-15
-0.0008931114763701389
1.273399504279545e-16
-0.0008931114763707303
5.922250584650975e-16
-0.0008931114763694383
-1.291633457945847e-15
-0.0008931114763693808
-5.706433998252098e-17
-0.0008931114763701178
7.365869020392626e-16
-0.0008931114763688928
-1.224629521957595e-15
-0.0008931114763689508
5.571101142803756e-17
-0.0008931114763694356
4.816126499761407e-16
-0.000893111476368079
-1.35617776144127e-15
-0.0008931114763679239
-1.536310931694521e-16
-0.0008931114763684922
5.72520319289485e-16
-0.0008931114763670751
-1.366239244655048e-15
-0.0008931114763669654
-1.532132970947229e-16
-0.0008931114763672214
2.578272380491813e-16
-0.0008931114763655443
-1.676579699304456e-15
-0.0008931114763649554
-5.890397016732838e-16
-0.00089311147636512
1.629908775335066e-16
-0.0008931114763631727
-1.956010838424632e-15
-0.0008931114763626989
-4.665539108910732e-16
-0.0008931114763624502
-2.480827740253914e-16
-0.0008931114763603915
-2.058251123581983e-15
-0.0008931114763591529
-1.238436501071043e-15
-0.0008931114763589584
-1.946232011407411e-16
-0.0008931114763561491
-2.81935575996667e-15
-0.0008931114763553833
-7.582839586642968e-16
-0.0008931114763540149
-1.369194604470847e-15
-0.0008931114763520285
-1.986031532383383e-15
-0.000893111476349223
-2.805787911638592e-15
-0.0008931114763498494
6.253803306838909e-16
-0.0008931114763447098
-5.140481229439084e-15
-0.0008931114763451864
4.764518716643003e-16
-0.0008931114763395055
-5.680153520541534e-15
-0.0008931114763368989
-2.602505854593942e-15
9.512380525082156e-16
-0.0007860738412770607
3.751937119471901e-14
-0.0007860738412965158
3.354821579388705e-14
-0.0007860738413052284
1.053552768130228e-14
-0.0007860738413173785
1.828767541789572e-14
-0.0007860738413217647
6.193464612963271e-15
-0.0007860738413270272
6.828227395818439e-15
-0.0007860738413268469
9.333353884673753e-16
-0.0007860738413310799
5.459277797320909e-15
-0.0007860738413299862
-1.480039571912056e-15
-0.0007860738413322915
3.02406264610197e-15
-0.0007860738413344912
3.80648287518837e-15
-0.0007860738413343646
-9.293941616756734e-16
-0.0007860738413333975
-5.795060373261743e-16
-0.0007860738413363647
3.83291160483404e-15
-0.0007860738413341277
-3.155649320378897e-15
-0.0007860738413340001
-1.339102541716875e-17
-0.000786073841335507
2.350650275336788e-15
-0.0007860738413338832
-2.830274523644912e-15
-0.000786073841332758
-9.52328253428764e-16
-0.0007860738413346262
2.438498658210944e-15
-0.0007860738413322569
-3.480916738988058e-15
-0.0007860738413315683
-6.457210316712567e-16
-0.0007860738413331493
2.34168803824003e-15
-0.0007860738413313185
-3.004486057699625e-15
-0.0007860738413303374
-8.53448179356131e-16
-0.000786073841331946
2.201772681876875e-15
-0.0007860738413293926
-3.844569462652707e-15
-0.0007860738413284257
-1.024032758308013e-15
-0.0007860738413300282
2.338841814437142e-15
-0.0007860738413278708
-3.381773474238475e-15
-0.000786073841326726
-1.092559285583814e-15
-0.0007860738413279814
1.732922501878835e-15
-0.0007860738413252907
-4.046927901930022e-15
-0.0007860738413239712
-1.471239995832743e-15
-0.0007860738413251557
1.763568914367063e-15
-0.0007860738413223609
-4.110227629835778e-15
-0.0007860738413206947
-1.85869084647336e-15
-0.0007860738413211748
7.404205116921749e-16
-0.0007860738413175186
-5.331881029258946e-15
-0.0007860738413149848
-3.123899808216677e-15
-0.0007860738413149408
1.172681115057519e-16
-0.0007860738413107615
-6.143824392095981e-15
-0.0007860738413079216
-3.300076801454836e-15
-0.0007860738413070489
-1.119573740706016e-15
-0.0007860738413020394
-7.066658396554763e-15
-0.0007860738412977703
-5.507310344882116e-15
-0.0007860738412961906
-1.773935428240692e-15
-0.0007860738412900298
-8.989616530858941e-15
-0.0007860738412854446
-5.336717496444673e-15
-0.0007860738412822152
-4.599359112950644e-15
-0.0007860738412756064
-8.593972559426278e-15
-0.0007860738412685614
-9.851199241946617e-15
-0.000786073841265966
-1.97178432725293e-15
-0.0007860738412563931
-1.471484182770647e-14
-0.0007860738412509282
-4.988164157372099e-15
-0.0007860738412425171
-1.408985699319641e-14
-0.0007860738412380693
-7.044264843890175e-15
7.183116698893438e-15
-0.0006804104118092246
9.591545850034612e-14
-0.0006804104118328787
5.719874757652175e-14
-0.0006804104118458027
2.345121650593742e-14
-0.000680410411863186
3.567007486142e-14
-0.0006804104118702078
1.322095642891275e-14
-0.0006804104118807391
1.73613785693873e-14
-0.0006804104118774096
-2.397513203479547e-15
-0.0006804104118832807
1.131641368659719e-14
-0.0006804104118828239
-1.95590194253828e-15
-0.0006804104118849347
5.084133961520313e-15
-0.0006804104118881493
7.070130115098546e-15
-0.0006804104118898948
8.183044752299902e-16
-0.000680410411885946
-4.526804274352438e-15
-0.0006804104118910689
8.957755092541179e-15
-0.0006804104118894045
-4.819017085621546e-15
-0.000680410411886882
-2.53536191108033e-15
-0.0006804104118894367
4.905328294992943e-15
-0.0006804104118889685
-3.29860296527647e-15
-0.0006804104118847689
-5.152737384048667e-15
-0.0006804104118881701
5.83508606632943e-15
-0.0006804104118863263
-5.319382538363684e-15
-0.0006804104118827925
-4.17892834873832e-15
-0.0006804104118854376
4.986752151308802e-15
-0.0006804104118845803
-3.861054530276212e-15
-0.0006804104118806609
-4.772472240179621e-15
-0.0006804104118836622
5.203941877341063e-15
-0.000680410411881669
-5.837558645766462e-15
-0.0006804104118777634
-4.929002345526631e-15
-0.0006804104118805174
5.092334171016296e-15
-0.0006804104118790847
-4.814071373356745e-15
-0.0006804104118748413
-5.337793302436564e-15
-0.0006804104118772292
4.118607141833629e-15
-0.0006804104118749785
-6.29723641509446e-15
-0.0006804104118705597
-5.888797407188612e-15
-0.0006804104118727798
3.98674747547053e-15
-0.0006804104118703345
-6.512511848091718e-15
-0.0006804104118652257
-7.005762265155846e-15
-0.0006804104118664314
1.947774689735519e-15
-0.0006804104118627147
-9.048100423781803e-15
-0.0006804104118564466
-9.391883330649359e-15
-0.0006804104118567257
3.946497399567515e-16
-0.0006804104118521389
-1.073787512253511e-14
-0.0006804104118451354
-1.029726462245469e-14
-0.0006804104118442414
-2.013066159794072e-15
-0.0006804104118383502
-1.295775731774919e-14
-0.0006804104118294025
-1.445513626169732e-14
-0.0006804104118270612
-4.115492909636923e-15
-0.0006804104118193882
-1.667156491636222e-14
-0.0006804104118093269
-1.539141697997595e-14
-0.0006804104118047126
-9.214447352428228e-15
-0.0006804104117955167
-1.778980265905534e-14
-0.000680410411782222
-2.314606353265317e-14
-0.0006804104117767801
-7.414222120803996e-15
-0.0006804104117641642
-2.733142394711985e-14
-0.000680410411751615
-1.753778975694072e-14
-0.0006804104117421497
-2.355488299961451e-14
-0.0006804104117393833
-9.807142649945729e-15
1.861814388375992e-14
-0.0005814889442647387
1.75070632255438e-13
-0.0005814889442955411
8.798882424377907e-14
-0.0005814889443106436
3.854033069973215e-14
-0.0005814889443333849
5.841671003611911e-14
-0.0005814889443431133
2.296995694441433e-14
-0.0005814889443602157
3.447961304065257e-14
-0.0005814889443538006
-8.809721661042657e-15
-0.0005814889443597149
1.718705260686373e-14
-0.0005814889443611655
-5.489739700574267e-16
-0.0005814889443619048
5.785101636087868e-15
-0.0005814889443658309
1.105022580054821e-14
-0.0005814889443708089
5.802048978849632e-15
-0.0005814889443631351
-1.219855260344989e-14
-0.0005814889443695365
1.536361741159943e-14
-0.0005814889443704912
-3.862629177653059e-15
-0.0005814889443644099
-8.616386968165155e-15
-0.0005814889443675072
8.003294713114472e-15
-0.0005814889443698266
-9.786723170831676e-16
-0.0005814889443616504
-1.332917839669965e-14
-0.0005814889443659204
1.010026573885423e-14
-0.0005814889443665507
-4.683596624210871e-15
-0.0005814889443590985
-1.163133651618938e-14
-0.0005814889443621477
8.036332422798955e-15
-0.000581488944363888
-2.120135590581196e-15
-0.0005814889443560699
-1.259004460491078e-14
-0.000581488944359956
9.090734826048453e-15
-0.0005814889443605021
-5.290915092672263e-15
-0.0005814889443525629
-1.286836501252684e-14
-0.0005814889443558453
8.374578588023855e-15
-0.000581488944356946
-3.713113717596436e-15
-0.0005814889443486431
-1.364415468574367e-14
-0.0005814889443516545
7.125801080967327e-15
-0.0005814889443517714
-6.180473733767445e-15
-0.0005814889443432204
-1.443788014197302e-14
-0.000581488944346004
6.777198386146374e-15
-0.0005814889443458986
-6.574072192987141e-15
-0.000581488944336469
-1.646694259244718e-14
-0.0005814889443380811
3.562342237336555e-15
-0.0005814889443364682
-1.066013175653259e-14
-0.0005814889443256616
-2.019931571102867e-14
-0.0005814889443260161
7.472173741470396e-16
-0.0005814889443232448
-1.351652792922748e-14
-0.0005814889443114173
-2.211960018530866e-14
-0.0005814889443104245
-3.004830214343711e-15
-0.0005814889443060481
-1.733323408578415e-14
-0.000581488944291999
-2.85039125312746e-14
-0.0005814889442889174
-7.196592780547212e-15
-0.0005814889442821229
-2.347419986382184e-14
-0.0005814889442662252
-3.128378236397914e-14
-0.0005814889442603699
-1.507047907831429e-14
-0.000581488944251167
-2.699173097456797e-14
-0.0005814889442313538
-4.295967410597031e-14
-0.0005814889442230482
-1.572145383344981e-14
-0.0005814889442096552
-4.072584886189382e-14
-0.0005814889441894213
-3.777177264960921e-14
-0.000581488944178187
-3.478797664874668e-14
-0.0005814889441764766
-1.151095766687009e-14
2.77473608659549e-14
-0.0004958188815853889
2.68140307430017e-13
-0.0004958188816259517
1.28552512442109e-13
-0.0004958188816421165
5.470011462346366e-14
-0.0004958188816703995
8.669674718612081e-14
-0.0004958188816821444
3.471375075996961e-14
-0.0004958188817041434
5.647506936316945e-14
-0.0004958188816970054
-1.595085141226236e-14
-0.0004958188817022983
2.247804554678053e-14
-0.0004958188817052405
2.386820791628189e-15
-0.0004958188817053923
5.900421807384357e-15
-0.0004958188817093195
1.500689902817806e-14
-0.0004958188817168097
1.329290950984241e-14
-0.0004958188817071405
-2.186659375844052e-14
-0.0004958188817135347
2.17588451876239e-14
-0.0004958188817168655
-5.311510560665681e-16
-0.0004958188817087947
-1.668662898498343e-14
-0.0004958188817115202
1.072846286546141e-14
-0.0004958188817161457
3.646702500556152e-15
-0.0004958188817056835
-2.379227135924339e-14
-0.0004958188817096941
1.41081578192873e-14
-0.0004958188817125266
-1.847752593985616e-15
-0.0004958188817028314
-2.132586705382731e-14
-0.0004958188817052992
1.050393554566042e-14
-0.0004958188817091534
1.734880542685404e-15
-0.0004958188816990882
-2.265504881938012e-14
-0.0004958188817028035
1.280696271966031e-14
-0.0004958188817056153
-2.479054331588489e-15
-0.0004958188816953313
-2.315171534313103e-14
-0.0004958188816981443
1.118707862853902e-14
-0.0004958188817014232
-4.335835012917972e-16
-0.0004958188816907867
-2.428169176907846e-14
-0.0004958188816934393
9.777652815643148e-15
-0.0004958188816956398
-3.979611597752079e-15
-0.0004958188816846477
-2.542923234304686e-14
-0.0004958188816870226
9.153314734261667e-15
-0.0004958188816890263
-4.543087627478146e-15
-0.0004958188816770965
-2.842270414463209e-14
-0.0004958188816782695
4.736409406560773e-15
-0.0004958188816786827
-1.024679122914783e-14
-0.0004958188816652693
-3.361232323234035e-14
-0.000495818881664967
4.437942527915406e-16
-0.0004958188816640201
-1.446802869965784e-14
-0.000495818881649388
-3.674750999087907e-14
-0.0004958188816476709
-4.721783432583687e-15
-0.0004958188816449703
-2.003395314900255e-14
-0.000495818881628016
-4.545845247372003e-14
-0.0004958188816238124
-1.140065529533536e-14
-0.0004958188816182966
-2.899593848989395e-14
-0.0004958188815989188
-5.065725444133059e-14
-0.0004958188815917241
-2.226577775857029e-14
-0.0004958188815831666
-3.554953757257908e-14
-0.0004958188815595268
-6.659940406178335e-14
-0.0004958188815485335
-2.671485996358453e-14
-0.0004958188815351555
-5.410411867945485e-14
-0.0004958188815094431
-6.348463194759712e-14
-0.000495818881495322
-4.890918953237654e-14
-0.0004958188814919476
-1.488334829690508e-14
2.810367898278895e-14
-0.0004281686209932071
3.70545691299628e-13
-0.0004281686210443644
1.796995985449363e-13
-0.0004281686210610932
7.141720302483963e-14
-0.0004281686210943337
1.199418140038437e-13
-0.0004281686211068753
4.727360861843411e-14
-0.0004281686211297684
7.93824191033136e-14
-0.0004281686211245439
-2.117356124335428e-14
-0.0004281686211301077
2.800285028850642e-14
-0.0004281686211328688
5.110552364217982e-15
-0.0004281686211343263
7.335765041305166e-15
-0.0004281686211378821
1.859884679812423e-14
-0.0004281686211452831
2.06984678520978e-14
-0.0004281686211365733
-3.057421932149172e-14
-0.0004281686211424331
2.762246361403488e-14
-0.000428168621145562
2.599424288944498e-15
-0.0004281686211384881
-2.376001617417857e-14
-0.0004281686211405493
1.279017989767067e-14
-0.0004281686211449337
8.031544816503495e-15
-0.0004281686211352623
-3.346356658848605e-14
-0.0004281686211386239
1.746624386486837e-14
-0.0004281686211411459
6.780176035077611e-16
-0.0004281686211322939
-3.017799206053349e-14
-0.0004281686211339828
1.219314959426749e-14
-0.000428168621137482
5.234478166328655e-15
-0.0004281686211282065
-3.19300497439822e-14
-0.0004281686211312919
1.589268361785585e-14
-0.0004281686211338072
3.665231726518085e-17
-0.0004281686211243224
-3.263644761714552e-14
-0.0004281686211264207
1.328511231103623e-14
-0.0004281686211293811
2.527129386728442e-15
-0.0004281686211195003
-3.41650222242831e-14
-0.0004281686211214447
1.171854656347026e-14
-0.0004281686211232284
-2.196516365061957e-15
-0.0004281686211129156
-3.574014256547458e-14
-0.0004281686211145136
1.075719285890362e-14
-0.0004281686211161218
-2.905721463716959e-15
-0.000428168621104856
-3.970668366769113e-14
-0.0004281686211052582
5.140553157332452e-15
-0.0004281686211052278
-1.027648764046587e-14
-0.000428168621092441
-4.63996571232486e-14
-0.0004281686210912585
-7.402739061271108e-16
-0.0004281686210897649
-1.596675851689485e-14
-0.0004281686210755866
-5.092271499170682e-14
-0.0004281686210729189
-7.388927785843274e-15
-0.000428168621069569
-2.338327970531022e-14
-0.0004281686210530458
-6.19811752295486e-14
-0.0004281686210476883
-1.675764321664244e-14
-0.0004281686210414033
-3.528628119047117e-14
-0.0004281686210220792
-6.997855755689091e-14
-0.000428168621013685
-3.066042499026228e-14
-0.0004281686210038924
-4.53409724981723e-14
-0.0004281686209802736
-9.021884543822182e-14
-0.0004281686209672236
-3.976591104472997e-14
-0.0004281686209524606
-6.8868452573884e-14
-0.0004281686209252139
-9.073211833755144e-14
-0.0004281686209084681
-6.565398135879258e-14
-0.0004281686209007038
-2.264192272832848e-14
1.822118027808603e-14
-0.0003793622604738798
4.811548405867666e-13
-0.0003793622605367116
2.425346194636521e-13
-0.0003793622605537431
8.844686049883043e-14
-0.0003793622605904428
1.566369618009248e-13
-0.0003793622606026637
5.948906549290075e-14
-0.0003793622606233612
1.000711320274501e-13
-0.0003793622606213701
-2.31682738817043e-14
-0.0003793622606284397
3.508327017275725e-14
-0.0003793622606299715
6.64543417593926e-15
-0.0003793622606341249
1.146708030360894e-14
-0.0003793622606372579
2.174210431572898e-14
-0.000379362260642456
2.589601518221365e-14
-0.0003793622606367262
-3.630356028726166e-14
-0.0003793622606420935
3.298970110176419e-14
-0.0003793622606427694
3.275593268802771e-15
-0.0003793622606387789
-2.775006456881673e-14
-0.000379362260640325
1.43359080114284e-14
-0.0003793622606423028
1.000900996944599e-14
-0.0003793622606355442
-4.022296339497644e-14
-0.0003793622606383641
2.028548781187305e-14
-0.000379362260638398
7.131434952086322e-16
-0.0003793622606325621
-3.601310475486825e-14
-0.000379362260633744
1.337469635334276e-14
-0.0003793622606347915
6.28262281945244e-15
-0.0003793622606284032
-3.831819864187499e-14
-0.0003793622606308689
1.835905149298621e-14
-0.0003793622606308325
3.156410909598918e-19
-0.0003793622606243194
-3.914893930128451e-14
-0.0003793622606259114
1.487675927525647e-14
-0.0003793622606264157
3.031981697348511e-15
-0.00037936226061941
-4.117117406789376e-14
-0.0003793622606207237
1.30329515282141e-14
-0.0003793622606199048
-3.015014300529887e-15
-0.000379362260612425
-4.321963769004154e-14
-0.0003793622606133068
1.163840855838695e-14
-0.0003793622606123065
-3.894447695985839e-15
-0.0003793622606038469
-4.818021758380092e-14
-0.0003793622606035056
4.799847816231676e-15
-0.0003793622606007826
-1.299950440234356e-14
-0.0003793622605907548
-5.642700736748669e-14
-0.0003793622605887632
-2.73264795757562e-15
-0.0003793622605845546
-2.017713752997793e-14
-0.0003793622605730274
-6.244784507492882e-14
-0.0003793622605694617
-1.09546184181416e-14
-0.0003793622605632211
-2.962426279482838e-14
-0.0003793622605492647
-7.593803253007664e-14
-0.0003793622605428631
-2.31597147283145e-14
-0.0003793622605337128
-4.443944485838961e-14
-0.000379362260516737
-8.695206441881946e-14
-0.0003793622605072837
-4.011417439722866e-14
-0.0003793622604942005
-5.842476850289632e-14
-0.0003793622604729724
-1.114469109613862e-13
-0.0003793622604583498
-5.438837779763951e-14
-0.0003793622604404422
-8.677595931685633e-14
-0.0003793622604143268
-1.168479325985911e-13
-0.0003793622603953376
-8.464348298493661e-14
-0.000379362260381809
-3.616974878788076e-14
-3.346520646359687e-16
-0.0003480555349848922
5.999214514203633e-13
-0.0003480555350610795
3.18715649024595e-13
-0.0003480555350799534
1.073112351263184e-13
-0.0003480555351193159
1.960020403185044e-13
-0.0003480555351304214
7.060805513051182e-14
-0.0003480555351481827
1.17843178071745e-13
-0.0003480555351497551
-2.159608156142796e-14
-0.00034805553515902
4.431764640791226e-14
-0.000348055535159513
7.111189590443451e-15
-0.000348055535166803
1.874532158828598e-14
-0.0003480555351694139
2.437430993656035e-14
-0.0003480555351718686
2.835395638829022e-14
-0.0003480555351697709
-3.839915710408825e-14
-0.0003480555351746329
3.785478103168876e-14
-0.0003480555351722002
8.444357525870369e-16
-0.0003480555351719481
-2.800158989739258e-14
-0.0003480555351729721
1.536030913909658e-14
-0.0003480555351719151
8.952276833531809e-15
-0.0003480555351687308
-4.34070223358878e-14
-0.0003480555351709937
2.254620752049029e-14
-0.0003480555351678954
-2.383037604620911e-15
-0.0003480555351657539
-3.815443509554739e-14
-0.0003480555351664772
1.409820915716938e-14
-0.0003480555351644756
4.281125038862566e-15
-0.0003480555351616169
-4.1176299553452e-14
-0.0003480555351633843
2.012653619733242e-14
-0.0003480555351600959
-3.287753114131487e-15
-0.000348055535157219
-4.202565919623473e-14
-0.0003480555351583198
1.597729548173495e-14
-0.0003480555351557363
4.489279848442003e-16
-0.0003480555351522396
-4.466944554653085e-14
-0.0003480555351528497
1.364026193745069e-14
-0.0003480555351487458
-7.119613469214783e-15
-0.0003480555351447334
-4.723057678238735e-14
-0.0003480555351448114
1.172111869894973e-14
-0.0003480555351404974
-8.190932325645692e-15
-0.0003480555351354645
-5.322154922905818e-14
-0.0003480555351342586
3.595055921654641e-15
-0.0003480555351280876
-1.916995100717428e-14
-0.0003480555351213842
-6.313062456396511e-14
-0.0003480555351184516
-5.666452444921765e-15
-0.0003480555351107925
-2.783956347714034e-14
-0.0003480555351025135
-7.072523465064772e-14
-0.0003480555350978831
-1.558493266593035e-14
-0.0003480555350879416
-3.956540965420595e-14
-0.0003480555350770506
-8.68287062946983e-14
-0.0003480555350694122
-3.079754961104927e-14
-0.0003480555350565936
-5.726137836197681e-14
-0.0003480555350425332
-1.010113298853665e-13
-0.0003480555350317576
-5.089000378453302e-14
-0.000348055535014549
-7.563230026236646e-14
-0.0003480555349961618
-1.298347362864635e-13
-0.0003480555349798069
-7.074400056976799e-14
-0.0003480555349578336
-1.087504155132151e-13
-0.0003480555349333783
-1.413041946565461e-13
-0.0003480555349114964
-1.06524586817016e-13
-0.0003480555348918433
-5.581844986970402e-14
-2.603560589004457e-14
-0.0003330151573942201
7.280100076160646e-13
-0.000333015157486457
4.1095682039316e-13
-0.0003330151575094134
1.302679899448207e-13
-0.0003330151575525503
2.391343774658061e-13
-0.0003330151575628162
8.086552840351201e-14
-0.000333015157578397
1.334148226887485e-13
-0.0003330151575836564
-1.634037821037865e-14
-0.0003330151575954881
5.616226997875929e-14
-0.0003330151575957385
7.370880774613361e-15
-0.0003330151576062218
2.921550206476706e-14
-0.0003330151576081898
2.634379992804211e-14
-0.0003330151576082648
2.842753484567755e-14
-0.0003330151576097789
-3.688495447853114e-14
-0.0003330151576140194
4.209459947365948e-14
-0.0003330151576087426
-4.432365899028418e-15
-0.0003330151576121743
-2.456945845206568e-14
-0.0003330151576124976
1.568326642523619e-14
-0.0003330151576086544
5.108785390796853e-15
-0.000333015157608961
-4.310143675656852e-14
-0.0003330151576104819
2.406753800994223e-14
-0.0003330151576044803
-8.384369169035552e-15
-0.0003330151576059502
-3.668394207170649e-14
-0.0003330151576060291
1.417684619802291e-14
-0.0003330151576012094
-5.378527101076986e-16
-0.0003330151576017811
-4.060454839781693e-14
-0.0003330151576026322
2.097844474653203e-14
-0.000333015157596281
-9.638770788439389e-15
-0.0003330151575969278
-4.137833855758212e-14
-0.0003330151575973462
1.639546921612394e-14
-0.0003330151575918873
-5.009538679472118e-15
-0.0003330151575917693
-4.478762256619676e-14
-0.0003330151575914224
1.329452834922185e-14
-0.0003330151575841924
-1.434924407977044e-14
-0.0003330151575834866
-4.793640431007765e-14
-0.0003330151575824907
1.07234500940116e-14
-0.0003330151575750045
-1.567328677970004e-14
-0.0003330151575732209
-5.50124523827799e-14
-0.0003330151575708418
1.216421159105778e-15
-0.0003330151575613084
-2.87033536024203e-14
-0.000333015157557674
-6.676459967383091e-14
-0.0003330151575534409
-9.900175236009414e-15
-0.0003330151575423818
-3.889905240152146e-14
-0.0003330151575370864
-7.601956082735879e-14
-0.0003330151575309792
-2.169217863267368e-14
-0.0003330151575173124
-5.323265193022005e-14
-0.0003330151575091027
-9.50389255879903e-14
-0.0003330151574997396
-4.016114992127293e-14
-0.0003330151574831428
-7.385953107027537e-14
-0.0003330151574715883
-1.12564641961294e-13
-0.0003330151574588658
-6.361286509812445e-14
-0.0003330151574373292
-9.71697361322912e-14
-0.0003330151574211416
-1.460219469509211e-13
-0.0003330151574023396
-8.954587790685723e-14
-0.0003330151573757366
-1.353532150175618e-13
-0.0003330151573520964
-1.649445085198117e-13
-0.0003330151573256671
-1.329543917438191e-13
-0.0003330151572990743
-8.241104544671274e-14
-5.899279384149348e-14
-0.0003334009876104052
8.68796251593897e-13
-0.0003334009877238175
5.24366710631448e-13
-0.0003334009877530857
1.595282757846123e-13
-0.0003334009878023463
2.883953094574748e-13
-0.0003334009878129682
9.149562991876746e-14
-0.0003334009878277479
1.482002360926448e-13
-0.0003334009878371588
-6.932332845309606e-15
-0.0003334009878520483
7.103083083441567e-14
-0.0003334009878530356
8.340136232377787e-15
-0.0003334009878668576
4.302915035750023e-14
-0.0003334009878681067
2.760487448552421e-14
-0.0003334009878663991
2.672217048916688e-14
-0.0003334009878714632
-3.181873939567843e-14
-0.0003334009878749311
4.556499856657593e-14
-0.0003334009878672697
-1.209228696639813e-14
-0.0003334009878742662
-1.757220468199906e-14
-0.0003334009878736309
1.5048205559052e-14
-0.0003334009878674155
-1.106420941972822e-15
-0.0003334009878710304
-3.948637969481962e-14
-0.0003334009878715391
2.457482093425757e-14
-0.0003334009878630166
-1.690568612962763e-14
-0.0003334009878679106
-3.178959376563942e-14
-0.0003334009878670449
1.331136543583925e-14
-0.000333400987859779
-7.803573546252445e-15
-0.0003334009878635686
-3.681435228838575e-14
-0.0003334009878632008
2.061073787036748e-14
-0.0003334009878541275
-1.871181522451055e-14
-0.0003334009878580686
-3.743703810096633e-14
-0.0003334009878575025
1.582923333407017e-14
-0.00033340098784952
-1.299143086594559e-14
-0.0003334009878525254
-4.178310144027102e-14
-0.0003334009878508572
1.162432779321069e-14
-0.0003334009878407765
-2.443067803085081e-14
-0.0003334009878430642
-4.564744437181148e-14
-0.0003334009878405996
8.262538055415054e-15
-0.0003334009878301988
-2.606317980402936e-14
-0.0003334009878313305
-5.388459982683362e-14
-0.0003334009878273341
-2.779286303873462e-15
-0.0003334009878146175
-4.141970015834304e-14
-0.0003334009878136065
-6.777555349022204e-14
-0.000333400987807544
-1.596368393200255e-14
-0.0003334009877931952
-5.324999606950462e-14
-0.0003334009877903982
-7.881587906683023e-14
-0.0003334009877822014
-2.988892241219799e-14
-0.000333400987764816
-7.061792503652198e-14
-0.0003334009877586434
-1.01211434824081e-13
-0.0003334009877468195
-5.198460360824302e-14
-0.000333400987726304
-9.437727324450842e-14
-0.0003334009877165175
-1.223508628461366e-13
-0.0003334009877009133
-7.921721001794613e-14
-0.0003334009876747394
-1.233428730904497e-13
-0.0003334009876596763
-1.610855399910558e-13
-0.0003334009876372566
-1.119661501371986e-13
-0.0003334009876051472
-1.674635999685677e-13
-0.0003334009875807664
-1.89326266356032e-13
-0.0003334009875471899
-1.665302767331777e-13
-0.0003334009875117288
-1.178686221678742e-13
-1.010889392108314e-13
-0.0003474953626053147
1.026248286387143e-12
-0.000347495362748145
6.672005773639636e-13
-0.0003474953627868703
1.982538980367281e-13
-0.0003474953628452226
3.467427305291323e-13
-0.0003474953628579284
1.041933611353085e-13
-0.0003474953628736549
1.639177342174889e-13
-0.0003474953628882652
7.674190509636744e-15
-0.0003474953629069623
8.974128344742029e-14
-0.0003474953629098801
1.126694551762642e-14
-0.0003474953629274368
6.057721020643199e-14
-0.0003474953629279899
2.815579602498397e-14
-0.0003474953629251399
2.387060703828703e-14
-0.000347495362933881
-2.307793469508157e-14
-0.0003474953629363782
4.806169693003761e-14
-0.0003474953629268146
-2.165600066773133e-14
-0.0003474953629373844
-7.002009411337795e-15
-0.0003474953629354795
1.314301916435579e-14
-0.0003474953629272847
-9.301454057123474e-15
-0.0003474953629341393
-3.263282980226157e-14
-0.0003474953629332788
2.371510614920281e-14
-0.0003474953629225963
-2.758820044261812e-14
-0.00034749536293083
-2.355531024292236e-14
-0.0003474953629286347
1.111580570387538e-14
-0.0003474953629192461
-1.719145083711046e-14
-0.0003474953629261379
-2.992251098209102e-14
-0.0003474953629241534
1.862701315684601e-14
-0.0003474953629126575
-3.02075069414391e-14
-0.0003474953629197422
-3.035178055446728e-14
-0.0003474953629178006
1.388734917056518e-14
-0.0003474953629076025
-2.318902290925007e-14
-0.0003474953629135565
-3.582957282174097e-14
-0.0003474953629100881
8.157509290345245e-15
-0.0003474953628973628
-3.715541243963343e-14
-0.0003474953629023787
-4.063157173521876e-14
-0.0003474953628979218
3.803752109623051e-15
-0.0003474953628847869
-3.91977383813407e-14
-0.000347495362888548
-5.012822256969756e-14
-0.000347495362882348
-8.978698312480544e-15
-0.0003474953628665278
-5.723973625827073e-14
-0.0003474953628677047
-6.659835605375418e-14
-0.0003474953628591167
-2.45523368371367e-14
-0.0003474953628414667
-7.089957565253279e-14
-0.0003474953628406799
-7.960210341524083e-14
-0.000347495362829586
-4.098285413851404e-14
-0.0003474953628083375
-9.186681709899864e-14
-0.0003474953628035025
-1.06047040336753e-13
-0.00034749536278825
-6.723769733834941e-14
-0.0003474953627634748
-1.191529908837737e-13
-0.0003474953627546312
-1.311937749995614e-13
-0.000347495362734911
-9.893781793506295e-14
-0.0003474953627035307
-1.547240944477179e-13
-0.0003474953626883035
-1.763123167252321e-13
-0.0003474953626606959
-1.395737489210801e-13
-0.0003474953626216992
-2.064599776006315e-13
-0.0003474953625945457
-2.164800341601073e-13
-0.0003474953625501274
-2.109487882600633e-13
-0.0003474953625026352
-1.653600994961991e-13
-1.558740553389478e-13
-0.0003710501183752305
1.202369094822991e-12
-0.0003710501185582366
8.502072455995404e-13
-0.0003710501186111226
2.511340440350283e-13
-0.0003710501186818524
4.174704375001759e-13
-0.000371050118699147
1.214901079105017e-13
-0.0003710501187180591
1.828292444103298e-13
-0.0003710501187395535
2.916335514419226e-14
-0.0003710501187629995
1.131775645380786e-13
-0.0003710501187693903
1.764826616514589e-14