/*--------------------------------*- C++ -*----------------------------------*\
| =========                 |                                                 |
| \\      /  F ield         | OpenFOAM: The Open Source CFD Toolbox           |
|  \\    /   O peration     | Version:  v1812                                 |
|   \\  /    A nd           | Web:      www.OpenFOAM.com                      |
|    \\/     M anipulation  |                                                 |
\*---------------------------------------------------------------------------*/
FoamFile
{
    version     2.0;
    format      ascii;
    class       volVectorField;
    location    "10000";
    object      U;
}
// * * * * * * * * * * * * * * * * * * * * * * * * * * * * * * * * * * * * * //

dimensions      [0 1 -1 0 0 0 0];


internalField   nonuniform List<vector> 
3770
(
(-0.9426079716068422 -1.290712899197942e-13 -3.906617737366273e-07)
(-0.9426079716321379 2.847043622311179e-13 -3.906684253453558e-07)
(-0.9426079716191897 -3.493358408699775e-14 -3.906549804680462e-07)
(-0.9426079716435598 8.593121472395565e-14 -3.90668304919137e-07)
(-0.9426079716289657 1.489310659816372e-14 -3.906540160593508e-07)
(-0.942607971648062 3.021179499599377e-15 -3.906671809445393e-07)
(-0.9426079716331686 2.745204474835556e-14 -3.906541235354935e-07)
(-0.9426079716489304 2.13121452331722e-15 -3.906654201949056e-07)
(-0.9426079716370674 3.675361546609396e-15 -3.906546987293235e-07)
(-0.9426079716478172 -3.51121529054733e-15 -3.906635952635834e-07)
(-0.9426079716398028 3.003917836443447e-14 -3.906552935338618e-07)
(-0.9426079716488514 -2.061684186418168e-14 -3.906619828092858e-07)
(-0.9426079716401981 1.633619456142443e-14 -3.906557453047476e-07)
(-0.9426079716484169 2.898859934908663e-15 -3.90660650450401e-07)
(-0.9426079716424371 -7.272267798449081e-15 -3.906560342175578e-07)
(-0.942607971646275 -5.764683919415839e-16 -3.906595812652611e-07)
(-0.9426079716433416 1.599664252272349e-14 -3.906561905027047e-07)
(-0.9426079716467801 -2.188342876733063e-14 -3.906587353897856e-07)
(-0.9426079716421464 1.120515181317866e-14 -3.906562547343846e-07)
(-0.9426079716464079 4.319783713703179e-15 -3.906580734892685e-07)
(-0.9426079716433396 -1.256207077702708e-14 -3.90656264155471e-07)
(-0.9426079716442852 1.572941722271032e-15 -3.906575635823644e-07)
(-0.9426079716436777 1.216549052972853e-14 -3.906562494022563e-07)
(-0.9426079716449993 -1.8363460188771e-14 -3.90657181841548e-07)
(-0.9426079716422088 8.743766648593279e-15 -3.906562346607451e-07)
(-0.9426079716448494 7.494650722597102e-15 -3.906569115366807e-07)
(-0.9426079716430954 -1.586165950059774e-14 -3.906562388555143e-07)
(-0.9426079716426072 1.524918492860837e-15 -3.906567414277208e-07)
(-0.9426079716431091 1.150548253546894e-14 -3.906562769036763e-07)
(-0.9426079716433734 -1.775533296578549e-14 -3.906566643249378e-07)
(-0.9426079716414012 6.581675330907997e-15 -3.906563605249218e-07)
(-0.9426079716431682 6.641955016710919e-15 -3.906566758238957e-07)
(-0.9426079716420179 -1.662013815709697e-14 -3.90656498701062e-07)
(-0.9426079716408715 2.080567047181363e-15 -3.906567729175976e-07)
(-0.9426079716417491 1.093858147151384e-14 -3.906566976812347e-07)
(-0.9426079716413183 -1.698819144602338e-14 -3.906569524852605e-07)
(-0.942607971639598 4.890114113315214e-15 -3.906569601327901e-07)
(-0.9426079716408212 6.622570471675076e-15 -3.906572093129895e-07)
(-0.9426079716396697 -1.839181637074157e-14 -3.906572833651565e-07)
(-0.9426079716378395 -1.117622870143504e-15 -3.906575329375327e-07)
(-0.9426079716385177 8.22081112163655e-15 -3.906576560503948e-07)
(-0.9426079716373866 -2.286735883594404e-14 -3.906579027963646e-07)
(-0.9426079716353774 5.110673858559476e-15 -3.906580524154785e-07)
(-0.9426079716359836 3.013932084343549e-15 -3.906582807065166e-07)
(-0.9426079716345419 -1.812923803985144e-14 -3.906584232075809e-07)
(-0.9426079716319613 -6.813012520308391e-15 -3.90658599689758e-07)
(-0.942607971632332 9.786325878160079e-15 -3.906586833347492e-07)
(-0.9426079716303059 -3.210703920645446e-14 -3.90658750804093e-07)
(-0.9426079716280035 1.152092972416049e-14 -3.906587005077934e-07)
(-0.9426079716274057 -1.288520998549365e-14 -3.906585782294798e-07)
(-0.9426079716260415 -2.99277886246614e-15 -3.906583053131457e-07)
(-0.9426079716218164 -3.298232411264235e-14 -3.906579181650353e-07)
(-0.9426079716229249 4.261812273952795e-14 -3.906573798553027e-07)
(-0.9426079716186672 -7.574337173031583e-14 -3.906567628632609e-07)
(-0.942607971617813 5.992770952699024e-14 -3.906561208423705e-07)
(-0.9426079716133819 -9.727705726406157e-14 -3.906554972905551e-07)
(-0.942607971611189 -3.296019738804405e-14 -3.906547670280589e-07)
(-0.9426079716048366 -3.468352499440506e-14 -3.906552582217065e-07)
(-0.8295362326685759 6.838627568201658e-13 -1.161847503434086e-06)
(-0.8295362327362661 1.088621859389859e-12 -1.161866498942299e-06)
(-0.8295362326929154 2.289227561405912e-13 -1.161827927105707e-06)
(-0.8295362327618624 5.106522905302335e-13 -1.161867545588018e-06)
(-0.8295362327155368 1.5274697329417e-13 -1.161825151914152e-06)
(-0.8295362327718273 1.416809439113273e-13 -1.161863620563385e-06)
(-0.8295362327275565 7.636922986893274e-14 -1.161825862309098e-06)
(-0.8295362327700259 1.358374252027147e-13 -1.161858084795898e-06)
(-0.829536232737617 -3.632505899040551e-14 -1.161827622088568e-06)
(-0.8295362327672952 6.502791084348478e-14 -1.161852635769817e-06)
(-0.8295362327434417 1.162955499696267e-13 -1.16182926687387e-06)
(-0.8295362327699259 -4.355161095955435e-14 -1.161847921617553e-06)
(-0.8295362327451958 1.960220513115271e-14 -1.161830442390324e-06)
(-0.8295362327666891 8.396922420301962e-14 -1.161844054580019e-06)
(-0.8295362327518702 -9.085002347340562e-14 -1.161831142482999e-06)
(-0.8295362327617744 1.683530038442217e-14 -1.161840952879606e-06)
(-0.8295362327522401 6.239393787666249e-14 -1.161831471661077e-06)
(-0.8295362327637348 -9.622461966902807e-14 -1.161838491187239e-06)
(-0.8295362327501079 9.388468016312021e-15 -1.161831550570116e-06)
(-0.8295362327606516 5.428163017778763e-14 -1.161836554305385e-06)
(-0.8295362327540203 -1.03233796819908e-13 -1.161831485647965e-06)
(-0.8295362327558884 4.199920474503327e-15 -1.16183505100153e-06)
(-0.8295362327528061 5.878252676072677e-14 -1.161831363127781e-06)
(-0.8295362327583725 -9.573284747941961e-14 -1.161833914258194e-06)
(-0.82953623274991 9.093805713523373e-15 -1.161831250661133e-06)
(-0.8295362327559018 5.119699282219714e-14 -1.161833097466872e-06)
(-0.8295362327529601 -1.148924233424077e-13 -1.161831201217335e-06)
(-0.829536232750975 -4.059683282044433e-15 -1.161832569601002e-06)
(-0.8295362327510499 5.859106415018607e-14 -1.161831256721649e-06)
(-0.8295362327536018 -1.044448322497948e-13 -1.161832311201231e-06)
(-0.8295362327473361 -2.536841623967399e-16 -1.16183145034426e-06)
(-0.8295362327508721 3.922850498560734e-14 -1.161832310830407e-06)
(-0.8295362327495974 -1.193050404158567e-13 -1.161831807975717e-06)
(-0.8295362327457338 -1.303990036784104e-14 -1.161832561213548e-06)
(-0.8295362327468697 4.556983829922199e-14 -1.161832348306592e-06)
(-0.8295362327475141 -1.201117824346789e-13 -1.161833055285329e-06)
(-0.8295362327417741 -1.893296160486683e-14 -1.161833080608429e-06)
(-0.8295362327437432 1.668787209968372e-14 -1.161833780878177e-06)
(-0.8295362327423398 -1.503032737564331e-13 -1.161834000188174e-06)
(-0.8295362327365595 -5.413601289869538e-14 -1.161834712270141e-06)
(-0.8295362327370795 4.674441620068961e-15 -1.161835079702072e-06)
(-0.8295362327357012 -1.723599280701807e-13 -1.161835797353506e-06)
(-0.8295362327291865 -5.06430522190944e-14 -1.161836253553047e-06)
(-0.8295362327293221 -2.65662327204864e-14 -1.161836937280707e-06)
(-0.8295362327270487 -1.874036671844782e-13 -1.161837393318086e-06)
(-0.8295362327190569 -1.134721733287004e-13 -1.161837955311391e-06)
(-0.8295362327184267 -3.702590472722717e-14 -1.161838272238839e-06)
(-0.8295362327145308 -2.426307797514128e-13 -1.161838557022549e-06)
(-0.8295362327069564 -8.46512169614685e-14 -1.161838526253989e-06)
(-0.8295362327036243 -1.225194287815098e-13 -1.161838302244443e-06)
(-0.8295362327010298 -2.040963273142525e-13 -1.161837656440216e-06)
(-0.8295362326883354 -2.308829844746907e-13 -1.16183667136307e-06)
(-0.8295362326888511 -4.682645616297464e-15 -1.161835215627443e-06)
(-0.829536232678572 -4.133107153337935e-13 -1.161833451364006e-06)
(-0.8295362326741431 -2.932706474446713e-14 -1.161831478512657e-06)
(-0.8295362326610127 -4.527655305194093e-13 -1.161829578431356e-06)
(-0.8295362326615293 -2.453197113564714e-13 -1.161828179555594e-06)
(-0.8295362326487161 8.231107353319599e-14 -1.161830937649091e-06)
(-0.7177359329744919 2.75708500871644e-12 -1.924353157629553e-06)
(-0.7177359330812617 2.034652793350787e-12 -1.924390074568516e-06)
(-0.7177359330072054 7.448104430729655e-13 -1.924322562255008e-06)
(-0.7177359331159294 1.169380256818206e-12 -1.924389766491532e-06)
(-0.7177359330407893 4.039172406199705e-13 -1.924320033129497e-06)
(-0.7177359331314567 4.882318514714745e-13 -1.924381264690767e-06)
(-0.717735933063955 8.095698222496391e-15 -1.924322224749902e-06)
(-0.7177359331229647 3.775088140983756e-13 -1.924371399146336e-06)
(-0.7177359330775049 -8.0808284125105e-14 -1.924325135558582e-06)
(-0.7177359331215641 1.643338695775953e-13 -1.92436240259765e-06)
(-0.7177359330829397 2.387541114911409e-13 -1.924327442158658e-06)
(-0.7177359331262834 -7.999613318009706e-15 -1.924354855069883e-06)
(-0.7177359330886991 -8.310823627171725e-14 -1.924328890752633e-06)
(-0.7177359331167215 2.66603379159731e-13 -1.924348723654771e-06)
(-0.7177359330999334 -1.936744006476456e-13 -1.92432959474032e-06)
(-0.7177359331130092 -3.199666618839339e-14 -1.924343801445177e-06)
(-0.7177359330952676 1.49499667685998e-13 -1.924329756676134e-06)
(-0.7177359331171477 -1.52987043333737e-13 -1.924339868880551e-06)
(-0.7177359330956089 -9.777739427896842e-14 -1.924329571744652e-06)
(-0.717735933107559 1.736140766136317e-13 -1.92433674265893e-06)
(-0.717735933102756 -2.109692803310166e-13 -1.924329202489286e-06)
(-0.7177359331039117 -8.023469813536802e-14 -1.924334283298643e-06)
(-0.7177359330955454 1.523901470091414e-13 -1.924328777507387e-06)
(-0.7177359331086184 -1.652526200690438e-13 -1.924332390692319e-06)
(-0.7177359330947292 -8.989470856070361e-14 -1.924328396731629e-06)
(-0.7177359330999376 1.535058511209217e-13 -1.924330996318953e-06)
(-0.7177359331007095 -2.296207051032774e-13 -1.924328138617521e-06)
(-0.7177359330962056 -1.027790445491747e-13 -1.924330055325654e-06)
(-0.7177359330926024 1.550248221912828e-13 -1.924328065733727e-06)
(-0.7177359331012427 -1.96722472008756e-13 -1.92432954069296e-06)
(-0.717735933090441 -1.125121807469619e-13 -1.92432822824771e-06)
(-0.717735933091967 1.190892146966175e-13 -1.924329437860167e-06)
(-0.717735933095082 -2.417589039125638e-13 -1.924328666626484e-06)
(-0.7177359330877735 -1.31745601175504e-13 -1.924329739154264e-06)
(-0.7177359330858167 1.197072924544899e-13 -1.924329411853221e-06)
(-0.7177359330917208 -2.48666123232646e-13 -1.924330438678984e-06)
(-0.7177359330814812 -1.648260042419059e-13 -1.924330482582473e-06)
(-0.7177359330806806 4.959316619055909e-14 -1.924331524977741e-06)
(-0.7177359330835683 -3.313597401797103e-13 -1.924331879608516e-06)
(-0.717735933073385 -2.451338283105288e-13 -1.924332969587114e-06)
(-0.7177359330704336 5.028243364279205e-15 -1.924333574230569e-06)
(-0.7177359330731897 -3.849148999587414e-13 -1.924334710106185e-06)
(-0.7177359330617082 -2.655677817417527e-13 -1.924335487065795e-06)
(-0.7177359330580171 -7.24149307671314e-14 -1.924336622057651e-06)
(-0.717735933059521 -4.488491381177613e-13 -1.924337454041315e-06)
(-0.717735933045904 -4.039324097999739e-13 -1.924338473945665e-06)
(-0.717735933041042 -1.350344568157267e-13 -1.924339172716203e-06)
(-0.7177359330397408 -5.721802620638338e-13 -1.924339863037179e-06)
(-0.7177359330264268 -4.027558621757606e-13 -1.924340129573856e-06)
(-0.7177359330172531 -3.1574064109069e-13 -1.924340141724849e-06)
(-0.7177359330176054 -5.794457889223058e-13 -1.924339543204965e-06)
(-0.7177359329964745 -6.783262996271791e-13 -1.924338410008078e-06)
(-0.7177359329923211 -1.999761679799861e-13 -1.92433647431812e-06)
(-0.717735932980593 -9.343898766878172e-13 -1.924333860777238e-06)
(-0.7177359329713472 -4.156515914191361e-13 -1.924330585536213e-06)
(-0.7177359329479378 -8.643502219602901e-13 -1.924327069633247e-06)
(-0.7177359329566445 -3.994985005684203e-13 -1.924324299329898e-06)
(-0.7177359329391202 5.695297187369464e-13 -1.924327893568682e-06)
(-0.6126244148668162 5.981778355579857e-12 -2.64029698191148e-06)
(-0.6126244150153309 3.230247736125481e-12 -2.64036290593511e-06)
(-0.6126244149148578 1.416394247060951e-12 -2.640262085757845e-06)
(-0.6126244150544082 2.094605193797898e-12 -2.640355949965585e-06)
(-0.6126244149597652 8.006376984118765e-13 -2.640262826404891e-06)
(-0.6126244150755892 1.127001521090995e-12 -2.640341103542538e-06)
(-0.6126244149967385 -2.3449240520433e-13 -2.640267047918676e-06)
(-0.6126244150606255 6.608071484421169e-13 -2.640326806548995e-06)
(-0.6126244150103525 -6.666637335693886e-14 -2.640270697027677e-06)
(-0.6126244150632477 2.276945133681684e-13 -2.640314705976127e-06)
(-0.6126244150128667 4.140260279522078e-13 -2.640273016825431e-06)
(-0.6126244150695087 1.453023443262645e-13 -2.640304846629004e-06)
(-0.6126244150253878 -3.601693807383943e-13 -2.640274119725304e-06)
(-0.6126244150521276 5.47073240438575e-13 -2.640296895237768e-06)
(-0.6126244150393034 -2.192316956433296e-13 -2.640274310048037e-06)
(-0.6126244150539369 -2.348384165465793e-13 -2.640290486205999e-06)
(-0.6126244150271303 2.904858424473892e-13 -2.640273889669081e-06)
(-0.6126244150592433 -1.16146690666905e-13 -2.64028531315e-06)
(-0.6126244150333156 -3.923266528962824e-13 -2.640273109065704e-06)
(-0.6126244150412998 3.6198193339846e-13 -2.640281142106661e-06)
(-0.6126244150422924 -2.468485989503996e-13 -2.640272165012803e-06)
(-0.6126244150428595 -3.380974738430795e-13 -2.640277802427616e-06)
(-0.6126244150268263 2.958972650656669e-13 -2.64027120925268e-06)
(-0.6126244150484351 -1.521875566347307e-13 -2.640275174889911e-06)
(-0.6126244150314629 -3.692854880860472e-13 -2.640270358618702e-06)
(-0.6126244150315558 3.229046562565096e-13 -2.640273179458439e-06)
(-0.6126244150393138 -2.71500246184426e-13 -2.640269705348955e-06)
(-0.612624415033165 -3.825708503156628e-13 -2.640271764994634e-06)
(-0.6126244150227127 3.048281604296933e-13 -2.640269323835835e-06)
(-0.612624415039331 -2.114037650006922e-13 -2.640270902550241e-06)
(-0.6126244150258714 -4.097622277094255e-13 -2.64026927492269e-06)
(-0.6126244150215168 2.534472721470521e-13 -2.640270578788345e-06)
(-0.6126244150318352 -2.983638782726762e-13 -2.640269609809928e-06)
(-0.612624415022302 -4.37550580876657e-13 -2.640270789766586e-06)
(-0.6126244150138702 2.447211814210825e-13 -2.640270370412144e-06)
(-0.6126244150274536 -3.143224631495655e-13 -2.640271536017414e-06)
(-0.6126244150144499 -5.104264510709907e-13 -2.640271586803564e-06)
(-0.6126244150073253 1.227911663746355e-13 -2.640272814695887e-06)
(-0.6126244150174049 -4.645650824861224e-13 -2.640273272543137e-06)
(-0.6126244150044584 -6.496747181291891e-13 -2.640274607920969e-06)
(-0.612624414994719 2.599877901117866e-14 -2.640275412929636e-06)
(-0.6126244150044443 -5.649555013018095e-13 -2.640276866181416e-06)
(-0.6126244149898072 -7.092071929188736e-13 -2.640277943452686e-06)
(-0.6126244149791314 -1.104382585387742e-13 -2.640279478812583e-06)
(-0.6126244149874269 -6.996825575545208e-13 -2.640280714377777e-06)
(-0.6126244149702132 -9.469345567236484e-13 -2.640282224774116e-06)
(-0.6126244149582122 -2.563499410738858e-13 -2.640283428815242e-06)
(-0.6126244149625294 -9.225392059654022e-13 -2.640284693891361e-06)
(-0.6126244149454302 -1.015250957718221e-12 -2.640285542373349e-06)
(-0.6126244149277977 -5.559067114916776e-13 -2.640286163458898e-06)
(-0.612624414933991 -1.023132595789932e-12 -2.640286120929838e-06)
(-0.6126244149070521 -1.457523976446573e-12 -2.640285446483132e-06)
(-0.6126244148949498 -5.158356191666018e-13 -2.640283722130855e-06)
(-0.6126244148852469 -1.552970816038911e-12 -2.640280908542545e-06)
(-0.6126244148722474 -1.18318719067446e-12 -2.640276765770746e-06)
(-0.6126244148365696 -1.325491572275843e-12 -2.640271542304672e-06)
(-0.6126244148537244 -4.689825222502249e-13 -2.640266230894696e-06)
(-0.6126244148300445 1.149269897978749e-12 -2.640267264949905e-06)
(-0.5205773134105469 1.004284693046532e-11 -3.265691010217805e-06)
(-0.5205773135978108 4.834953477544047e-12 -3.265794411871802e-06)
(-0.5205773134802495 2.152975324868271e-12 -3.265661392555744e-06)
(-0.5205773136384028 3.293044978886076e-12 -3.265776101880521e-06)
(-0.5205773135369046 1.32535507745462e-12 -3.265667207956818e-06)
(-0.5205773136636795 2.06937443115339e-12 -3.265754539627773e-06)
(-0.5205773135839566 -5.816618539751318e-13 -3.265673081062449e-06)
(-0.5205773136473599 9.076401416898468e-13 -3.265736497446355e-06)
(-0.5205773135961468 3.122537107518598e-14 -3.265676698448112e-06)
(-0.5205773136531181 2.426672696997464e-13 -3.265722077718179e-06)
(-0.5205773135973416 6.138098153141872e-13 -3.265678324212369e-06)
(-0.5205773136595432 4.439034417670485e-13 -3.265710566769652e-06)
(-0.5205773136149097 -7.910170673142039e-13 -3.265678519412841e-06)
(-0.5205773136381328 8.633900293440735e-13 -3.265701301964469e-06)
(-0.5205773136287469 -1.092615878441076e-13 -3.265677768572215e-06)
(-0.5205773136449194 -5.899236751262542e-13 -3.265693777399115e-06)
(-0.5205773136123901 4.41434035371851e-13 -3.265676442928921e-06)
(-0.5205773136495424 5.604032177811291e-14 -3.265687625783667e-06)
(-0.5205773136232702 -8.556788031308935e-13 -3.2656748188995e-06)
(-0.5205773136269207 5.698682923596483e-13 -3.265682585412173e-06)
(-0.5205773136316921 -1.566236876145786e-13 -3.26567310312194e-06)
(-0.5205773136330607 -7.64602745430325e-13 -3.265678472405509e-06)
(-0.5205773136115516 4.390996549512231e-13 -3.265671451420436e-06)
(-0.5205773136374835 -1.19028764362382e-14 -3.26567516149913e-06)
(-0.520577313620512 -8.134541315142387e-13 -3.265669983064223e-06)
(-0.5205773136159781 5.152509034201006e-13 -3.265672570325668e-06)
(-0.5205773136280238 -1.844664355878422e-13 -3.265668792990955e-06)
(-0.520577313622282 -8.339158102178702e-13 -3.265670647867879e-06)
(-0.5205773136065479 4.617985198994746e-13 -3.265667958964194e-06)
(-0.5205773136275194 -1.004835440998632e-13 -3.265669367521523e-06)
(-0.5205773136141819 -8.782791906801895e-13 -3.265667546276943e-06)
(-0.5205773136048938 3.999899524385271e-13 -3.265668720125983e-06)
(-0.5205773136194203 -2.357648173957091e-13 -3.265667612375689e-06)
(-0.5205773136099877 -9.193433988309116e-13 -3.26566870802962e-06)
(-0.5205773135963897 3.806698732093528e-13 -3.265668207483429e-06)
(-0.5205773136143396 -2.596632227985115e-13 -3.265669341060301e-06)
(-0.5205773136013099 -1.035914776293588e-12 -3.265669372983383e-06)
(-0.5205773135890536 2.036060818813131e-13 -3.26567062946934e-06)
(-0.5205773136033877 -4.846848996410848e-13 -3.265671138553724e-06)
(-0.5205773135903865 -1.242195216274489e-12 -3.265672574168994e-06)
(-0.5205773135753003 4.091471977405433e-14 -3.265673512553506e-06)
(-0.5205773135890741 -6.452869055336566e-13 -3.265675153461697e-06)
(-0.5205773135741398 -1.354893890447758e-12 -3.265676464193309e-06)
(-0.5205773135579927 -1.618493907824896e-13 -3.265678297534934e-06)
(-0.5205773135702891 -8.594747382552791e-13 -3.265679893301146e-06)
(-0.5205773135525793 -1.700749714509958e-12 -3.265681844107753e-06)
(-0.5205773135350449 -4.130015526236445e-13 -3.265683571648542e-06)
(-0.5205773135426799 -1.206331809116352e-12 -3.265685459602977e-06)
(-0.5205773135248452 -1.874249318855799e-12 -3.26568703308732e-06)
(-0.5205773135008663 -8.467640337747837e-13 -3.265688486773127e-06)
(-0.5205773135105736 -1.433872972115491e-12 -3.265689365731778e-06)
(-0.5205773134816373 -2.509194549142112e-12 -3.265689658173e-06)
(-0.5205773134634152 -9.542794508437345e-13 -3.265688837584829e-06)
(-0.520577313454631 -2.175685181264929e-12 -3.265686660758867e-06)
(-0.520577313440348 -2.293246728196862e-12 -3.265682538307389e-06)
(-0.5205773133951234 -1.894225023596886e-12 -3.265676238223183e-06)
(-0.5205773134154085 -5.514365617870507e-13 -3.265668099305475e-06)
(-0.5205773133853463 1.427218352667355e-12 -3.265663737726449e-06)
(-0.445711183171203 1.464316912170395e-11 -3.772445325442156e-06)
(-0.4457111833893901 6.948809832473478e-12 -3.772586042704702e-06)
(-0.4457111832643491 2.913489096881629e-12 -3.77242856108441e-06)
(-0.4457111834299399 4.747800346904231e-12 -3.772555012478006e-06)
(-0.4457111833312287 1.913481490755838e-12 -3.772439052592522e-06)
(-0.4457111834565725 3.151813577692284e-12 -3.77252792194461e-06)
(-0.4457111833796147 -8.848930537682451e-13 -3.77244553199952e-06)
(-0.4457111834445491 1.131082239604511e-12 -3.772507290692255e-06)
(-0.445711183392158 1.507670466310089e-13 -3.772448345336277e-06)
(-0.4457111834498891 2.809785019915593e-13 -3.772491398891998e-06)
(-0.4457111833959634 8.034434070045315e-13 -3.772448777054483e-06)
(-0.4457111834557523 8.000519278528043e-13 -3.772478842611278e-06)
(-0.4457111834129179 -1.241910422139555e-12 -3.772447745882685e-06)
(-0.4457111834366728 1.158695478544865e-12 -3.772468705090559e-06)
(-0.4457111834255036 5.681835916995949e-14 -3.772445849787172e-06)
(-0.4457111834429634 -9.649101821632927e-13 -3.77246038980935e-06)
(-0.4457111834112978 5.614150117103812e-13 -3.772443486843206e-06)
(-0.4457111834463383 2.800087117267124e-13 -3.772453499616863e-06)
(-0.4457111834213892 -1.350183318300298e-12 -3.772440931928589e-06)
(-0.4457111834256546 7.491294804585495e-13 -3.772447765073941e-06)
(-0.4457111834284163 -1.696560500590558e-14 -3.772438382658519e-06)
(-0.4457111834310268 -1.220025499553185e-12 -3.772443002373367e-06)
(-0.4457111834101898 5.430658732518213e-13 -3.772435985588907e-06)
(-0.4457111834339185 1.72893890951318e-13 -3.77243908880412e-06)
(-0.4457111834181769 -1.288078691155828e-12 -3.772433852755669e-06)
(-0.4457111834143047 6.820812912248922e-13 -3.772435945319209e-06)
(-0.4457111834243799 -4.606098039256981e-14 -3.772432074239418e-06)
(-0.4457111834198406 -1.31799302034788e-12 -3.772433524687832e-06)
(-0.4457111834047492 5.836966225136012e-13 -3.772430725315429e-06)
(-0.4457111834236637 5.85279537730501e-14 -3.772431804560537e-06)
(-0.4457111834115132 -1.37987564613627e-12 -3.772429871185048e-06)
(-0.4457111834028561 5.146485256178462e-13 -3.772430780903933e-06)
(-0.4457111834153064 -1.293905079443315e-13 -3.772429571626256e-06)
(-0.4457111834069327 -1.438915968700318e-12 -3.772430462813259e-06)
(-0.4457111833938928 4.825223003876492e-13 -3.77242988212347e-06)
(-0.4457111834097444 -1.591830582017977e-13 -3.772430869375727e-06)
(-0.4457111833978104 -1.5997058911577e-12 -3.772430853364237e-06)
(-0.4457111833861023 2.500386920271649e-13 -3.772432024270172e-06)
(-0.4457111833983446 -4.614294791867763e-13 -3.772432530153381e-06)
(-0.4457111833863965 -1.876476566372659e-12 -3.7724339487463e-06)
(-0.4457111833718062 1.396583849425495e-14 -3.772434945093304e-06)
(-0.4457111833833797 -6.890677761009242e-13 -3.772436652629379e-06)
(-0.4457111833693645 -2.049979755392669e-12 -3.772438106272218e-06)
(-0.4457111833535715 -2.568948255796587e-13 -3.772440115727816e-06)
(-0.445711183363628 -9.881816093560358e-13 -3.772441975343753e-06)
(-0.4457111833467745 -2.506404876709706e-12 -3.772444253732729e-06)
(-0.4457111833295501 -6.273413896761313e-13 -3.772446420314482e-06)
(-0.4457111833347278 -1.470139504717341e-12 -3.77244885097775e-06)
(-0.4457111833176091 -2.806603798746911e-12 -3.772451114766958e-06)
(-0.4457111832935463 -1.200415417190801e-12 -3.772453408116538e-06)
(-0.4457111833008801 -1.849669529340596e-12 -3.772455307673639e-06)
(-0.445711183272034 -3.641984695864795e-12 -3.772456784363533e-06)
(-0.4457111832538532 -1.507847360023055e-12 -3.772457276284114e-06)
(-0.445711183241525 -2.82173425290349e-12 -3.772456390006791e-06)
(-0.4457111832273897 -3.56284823179258e-12 -3.772453232841746e-06)
(-0.4457111831800814 -2.603061873794521e-12 -3.772446993399987e-06)
(-0.4457111831965925 -7.988298889317901e-13 -3.77243699530264e-06)
(-0.4457111831615667 1.201756823939376e-12 -3.772426756217132e-06)
(-0.3873458261382223 1.962226971730909e-11 -4.165406238276598e-06)
(-0.3873458263805509 9.601390631718939e-12 -4.165576502713564e-06)
(-0.3873458262552725 3.676564078957204e-12 -4.165404631704713e-06)
(-0.3873458264201191 6.381246698369524e-12 -4.165534356532225e-06)
(-0.3873458263283043 2.498173594587803e-12 -4.165418117665728e-06)
(-0.3873458264455066 4.188328397397186e-12 -4.165503491384834e-06)
(-0.3873458263711539 -1.048744234146556e-12 -4.165424154387346e-06)
(-0.3873458264404857 1.395532176641465e-12 -4.165481342326627e-06)
(-0.3873458263864377 2.341853653949201e-13 -4.165425665480641e-06)
(-0.3873458264432054 4.197989943096258e-13 -4.165464626691632e-06)
(-0.3873458263955922 9.659043382997019e-13 -4.165424690464915e-06)
(-0.3873458264483481 1.097731778505873e-12 -4.165451451187169e-06)
(-0.3873458264074481 -1.58510252205297e-12 -4.165422357559299e-06)
(-0.3873458264358721 1.417918567232401e-12 -4.165440745804784e-06)
(-0.3873458264187729 1.558872030136113e-13 -4.165419307116375e-06)
(-0.3873458264370011 -1.229208109230387e-12 -4.165431871424832e-06)
(-0.3873458264110888 6.433858538652849e-13 -4.165415929723522e-06)
(-0.3873458264394236 4.373893599077706e-13 -4.16542442451214e-06)
(-0.3873458264158767 -1.74087882081761e-12 -4.165412480970802e-06)
(-0.3873458264251823 8.900628722527502e-13 -4.165418140281604e-06)
(-0.3873458264217012 5.275642743076138e-14 -4.165409139096845e-06)
(-0.3873458264252903 -1.569022843600691e-12 -4.165412842019769e-06)
(-0.3873458264099771 6.067995083814472e-13 -4.165406034822013e-06)
(-0.3873458264272165 2.875640275366561e-13 -4.165408413476591e-06)
(-0.3873458264126475 -1.660143441853098e-12 -4.165403268408994e-06)
(-0.3873458264139377 8.091657255601065e-13 -4.165404781184783e-06)
(-0.3873458264175366 2.165199763315799e-14 -4.165400921425932e-06)
(-0.3873458264140523 -1.697448641474052e-12 -4.165401902884982e-06)
(-0.3873458264043587 6.668568831672117e-13 -4.165399063696508e-06)
(-0.3873458264168821 1.485298283092065e-13 -4.16539976064338e-06)
(-0.3873458264058323 -1.780032311416609e-12 -4.165397757787508e-06)
(-0.3873458264023997 5.879876472649538e-13 -4.165398355152441e-06)
(-0.3873458264083382 -9.749919872752311e-14 -4.165397063206652e-06)
(-0.3873458264009718 -1.859967065374539e-12 -4.165397701376294e-06)
(-0.3873458263931359 5.391382332377831e-13 -4.165397038162942e-06)
(-0.3873458264023771 -1.330544777360883e-13 -4.165397826074815e-06)
(-0.3873458263915084 -2.065479085527742e-12 -4.165397740053716e-06)
(-0.3873458263849696 2.507495441897565e-13 -4.165398764325168e-06)
(-0.3873458263905959 -5.14697264433808e-13 -4.16539922573914e-06)
(-0.3873458263796461 -2.413881742409638e-12 -4.165400555211867e-06)
(-0.3873458263702103 -6.153044055544701e-14 -4.165401548683091e-06)
(-0.387345826375153 -8.116015233769782e-13 -4.165403236810967e-06)
(-0.3873458263621151 -2.654670469433954e-12 -4.165404752202688e-06)
(-0.3873458263513931 -4.033379324787393e-13 -4.165406835082045e-06)
(-0.387345826354718 -1.200836194979023e-12 -4.165408856226955e-06)
(-0.3873458263387377 -3.222286998352057e-12 -4.165411341525611e-06)
(-0.3873458263265114 -9.01441562722619e-13 -4.165413824846557e-06)
(-0.387345826324954 -1.818845259724065e-12 -4.165416663174459e-06)
(-0.3873458263087222 -3.660213440386581e-12 -4.165419485839879e-06)
(-0.3873458262895185 -1.614519652848474e-12 -4.165422491356565e-06)
(-0.3873458262900788 -2.370859428908997e-12 -4.165425315238243e-06)
(-0.3873458262617989 -4.693749509926129e-12 -4.165427938158081e-06)
(-0.3873458262485499 -2.152218838291816e-12 -4.165429826995121e-06)
(-0.3873458262291805 -3.570546518827165e-12 -4.165430524702387e-06)
(-0.3873458262154963 -4.816687276095477e-12 -4.165428960269749e-06)
(-0.3873458261719293 -3.432873396687962e-12 -4.165423837244183e-06)
(-0.3873458261801511 -1.292047856180569e-12 -4.165413455015086e-06)
(-0.3873458261422853 5.151291196632693e-13 -4.165398810263326e-06)
(-0.3417746844387942 2.493768546383464e-11 -4.469968436266751e-06)
(-0.3417746846978735 1.282283337267588e-11 -4.47015785922603e-06)
(-0.3417746845787068 4.504636188818115e-12 -4.469980228506728e-06)
(-0.3417746847390314 8.146990273289309e-12 -4.470107254343033e-06)
(-0.3417746846544126 3.033799218798014e-12 -4.469994909599624e-06)
(-0.3417746847612043 5.087749237644064e-12 -4.470074128700002e-06)
(-0.3417746846897693 -1.050627172507733e-12 -4.469999763456314e-06)
(-0.3417746847634848 1.756028405759902e-12 -4.470051206801723e-06)
(-0.3417746847087326 2.682141666431321e-13 -4.46999973824865e-06)
(-0.3417746847640259 6.938212251681104e-13 -4.470034067762407e-06)
(-0.3417746847236655 1.100827183795842e-12 -4.469997327890161e-06)
(-0.3417746847681122 1.273941005388391e-12 -4.470020523345542e-06)
(-0.3417746847294849 -1.764665196817919e-12 -4.469993743586145e-06)
(-0.3417746847633541 1.650692714029768e-12 -4.470009430398116e-06)
(-0.341774684739388 1.173999237833544e-13 -4.469989616812502e-06)
(-0.3417746847582875 -1.324960667339787e-12 -4.470000140012028e-06)
(-0.3417746847393261 6.988437114740609e-13 -4.469985309684048e-06)
(-0.3417746847597041 4.607019856047279e-13 -4.469992255930676e-06)
(-0.3417746847378259 -1.969607535613837e-12 -4.469981049592583e-06)
(-0.3417746847531032 1.003233687530678e-12 -4.469985523912651e-06)
(-0.3417746847423649 -1.591900927634082e-14 -4.469976991246214e-06)
(-0.3417746847469817 -1.751386475461862e-12 -4.4699797769624e-06)
(-0.3417746847383571 6.463040198142558e-13 -4.469973247323463e-06)
(-0.3417746847480214 2.670602750292581e-13 -4.469974906360218e-06)
(-0.3417746847348123 -1.872305453463028e-12 -4.469969904902977e-06)
(-0.3417746847422395 9.031485656575467e-13 -4.469970844533075e-06)
(-0.3417746847381961 -5.310737089578644e-14 -4.469967035854278e-06)