/*--------------------------------*- C++ -*----------------------------------*\
| =========                 |                                                 |
| \\      /  F ield         | OpenFOAM: The Open Source CFD Toolbox           |
|  \\    /   O peration     | Version:  v1812                                 |
|   \\  /    A nd           | Web:      www.OpenFOAM.com                      |
|    \\/     M anipulation  |                                                 |
\*---------------------------------------------------------------------------*/
FoamFile
{
    version     2.0;
    format      ascii;
    class       volVectorField;
    location    "10000";
    object      wallShearStress;
}
// * * * * * * * * * * * * * * * * * * * * * * * * * * * * * * * * * * * * * //

dimensions      [0 2 -2 0 0 0 0];


internalField   uniform (0 0 0);

boundaryField
{
    inlet
    {
        type            cyclic;
    }
    outlet
    {
        type            cyclic;
    }
    bottomWall
    {
        type            calculated;
        value           nonuniform List<vector> 
58
(
(-0.003728047192200538 -1.746882345580086e-15 2.537644285199122e-08)
(-0.003728047190556951 -3.050406679796905e-14 2.537687492438577e-08)
(-0.003728047191397967 -2.382215934072104e-15 2.537600157771286e-08)
(-0.003728047189814861 -1.207095280362564e-14 2.537686710178937e-08)
(-0.003728047190762923 -3.421362731686957e-15 2.537593893205857e-08)
(-0.003728047189522335 -2.251427282642556e-15 2.537679409112083e-08)
(-0.003728047190489926 -2.788788805900287e-15 2.537594591344823e-08)
(-0.003728047189465889 -2.030577919947e-15 2.537667971708813e-08)
(-0.003728047190236618 2.087935696324583e-16 2.537598327664633e-08)
(-0.003728047189538248 -9.909933145197931e-16 2.53765611739685e-08)
(-0.003728047190058899 -3.091262313993296e-15 2.537602191370866e-08)
(-0.003728047189471032 1.598502910448338e-15 2.537645643284175e-08)
(-0.00372804719003325 -1.209227405526886e-15 2.537605125965142e-08)
(-0.003728047189499248 -1.311294987589448e-15 2.537636988603487e-08)
(-0.003728047189887758 1.644042210335974e-15 2.537607002672782e-08)
(-0.003728047189638441 -3.781863207477029e-16 2.537630043435733e-08)
(-0.003728047189828982 -1.62469660973606e-15 2.537608017863246e-08)
(-0.003728047189605603 2.461248609381792e-15 2.537624548833465e-08)
(-0.003728047189906671 -7.942990025614795e-16 2.537608435096694e-08)
(-0.003728047189629775 -9.390843040174344e-16 2.537620249287985e-08)
(-0.003728047189829126 2.092967165248578e-15 2.537608496293782e-08)
(-0.003728047189767712 -2.962685671498515e-16 2.537616937056223e-08)
(-0.00372804718980715 -1.391712682321898e-15 2.537608400460468e-08)
(-0.0037280471897213 2.285864414986656e-15 2.537614457360312e-08)
(-0.003728047189902617 -6.863279781078271e-16 2.537608304703192e-08)
(-0.003728047189731022 -1.068868173352688e-15 2.537612701525348e-08)
(-0.003728047189844993 2.435397477530139e-15 2.537608331951391e-08)
(-0.003728047189876731 -1.385744710101977e-16 2.537611596538752e-08)
(-0.003728047189844095 -1.359253579059582e-15 2.537608579103037e-08)
(-0.003728047189826931 2.346313951930564e-15 2.537611095697737e-08)
(-0.003728047189955083 -4.728323219246199e-16 2.537609122286412e-08)
(-0.003728047189840249 -8.671607365056891e-16 2.537611170392186e-08)
(-0.003728047189914995 2.526784334078865e-15 2.537610019845156e-08)
(-0.003728047189989499 -5.290003115931287e-17 2.53761180108938e-08)
(-0.003728047189932446 -1.159111515783284e-15 2.537611312372177e-08)
(-0.003728047189960448 2.4899662931719e-15 2.537612967517431e-08)
(-0.003728047190072235 -1.88301080070499e-16 2.537613017193945e-08)
(-0.00372804718999273 -6.07480187338304e-16 2.537614635808174e-08)
(-0.003728047190067554 3.004527137833453e-15 2.537615116833128e-08)
(-0.003728047190186483 6.423498077740131e-16 2.537616737994864e-08)
(-0.003728047190142385 -4.976850349487219e-16 2.5376175377062e-08)
(-0.003728047190215885 3.46735063490265e-15 2.537619140508281e-08)
(-0.003728047190346443 2.215618276909547e-16 2.537620112397829e-08)
(-0.003728047190307019 1.34540703596547e-16 2.537621595321128e-08)
(-0.003728047190400695 3.47457014581447e-15 2.537622520973547e-08)
(-0.00372804719056838 1.636182845976939e-15 2.537623667359054e-08)
(-0.003728047190544257 -6.372920385383373e-17 2.537624210696659e-08)
(-0.003728047190675914 4.830087152813975e-15 2.537624648961195e-08)
(-0.003728047190825508 3.752845563239094e-16 2.537624322248628e-08)
(-0.003728047190864317 2.044891174192794e-15 2.537623527958316e-08)
(-0.003728047190952947 2.9054860488763e-15 2.537621755159906e-08)
(-0.00372804719122749 4.332217033956461e-15 2.537619240339558e-08)
(-0.003728047191155412 -2.20020486035156e-15 2.537615743609876e-08)
(-0.003728047191432071 8.980291869675749e-15 2.537611735779005e-08)
(-0.00372804719148754 -2.688063862349633e-15 2.53760756536677e-08)
(-0.003728047191775366 1.156131671573393e-14 2.537603514925201e-08)
(-0.003728047191917946 6.900518682764408e-15 2.537598771316871e-08)
(-0.003728047192330543 5.061873471936469e-15 2.537601961991913e-08)
)
;
    }
    topWall
    {
        type            calculated;
        value           nonuniform List<vector> 
58
(
(0.001828103094031346 -7.836789233409424e-14 2.132919280321949e-08)
(0.001828103092327492 4.639948794983066e-14 2.132911664550862e-08)
(0.001828103093649401 -7.966682885932004e-15 2.13291409339012e-08)
(0.001828103093389378 1.10334037828003e-14 2.132913631545357e-08)
(0.001828103093713011 1.231988172723584e-16 2.132918320509735e-08)
(0.001828103093705532 2.914651842659274e-15 2.132917622274392e-08)
(0.001828103093807239 -1.105105637988709e-15 2.132922319322394e-08)
(0.001828103093755586 2.689088346110588e-15 2.132920609568801e-08)
(0.001828103093906251 1.002229305637617e-15 2.132925284518749e-08)
(0.001828103093852455 -5.128990346931286e-16 2.132922586054792e-08)
(0.001828103093924712 2.511629367005407e-15 2.132927478051943e-08)
(0.001828103093948804 8.079657013788325e-16 2.132923856171765e-08)
(0.001828103094018352 -5.088231194068892e-16 2.132929198880964e-08)
(0.001828103093951403 2.110075360977109e-15 2.132924660912152e-08)
(0.001828103094110071 8.129088076891494e-16 2.132930655723981e-08)
(0.00182810309401893 -9.913101362085086e-16 2.132925148926085e-08)
(0.001828103094106829 2.093148222589103e-15 2.132931977535304e-08)
(0.001828103094080186 2.731604832275335e-16 2.132925400723788e-08)
(0.001828103094166904 -9.779915289722228e-16 2.132933240360625e-08)
(0.001828103094045739 1.649972341066213e-15 2.13292545327092e-08)
(0.001828103094228717 3.573734213857604e-16 2.132934488229187e-08)
(0.00182810309407841 -1.382907785169326e-15 2.132925317385206e-08)
(0.001828103094198646 1.785919520147461e-15 2.132935746398669e-08)
(0.001828103094111398 -8.789027591153235e-17 2.13292498856114e-08)
(0.001828103094239092 -1.177144511815573e-15 2.132937029504252e-08)
(0.001828103094054626 1.388664856271182e-15 2.132924454104661e-08)
(0.001828103094287719 1.739278204725051e-16 2.1329383458175e-08)
(0.001828103094069049 -1.49018506075489e-15 2.132923698246875e-08)
(0.00182810309425206 1.773149345111971e-15 2.132939699262836e-08)
(0.00182810309409277 -2.670354655765243e-16 2.132922706114686e-08)
(0.001828103094293041 -1.065975007806021e-15 2.132941089620275e-08)
(0.001828103094031392 1.298216801122618e-15 2.132921467581587e-08)
(0.001828103094348473 3.799794942183297e-16 2.13294251078502e-08)
(0.001828103094044156 -1.615321924668891e-15 2.132919981707008e-08)
(0.001828103094318549 2.037248589903307e-15 2.132943947291327e-08)
(0.001828103094072828 -2.870821937701724e-16 2.132918261931481e-08)
(0.0018281030943744 -7.250699019279595e-16 2.132945369153217e-08)
(0.001828103094016224 1.016867680894533e-15 2.132916342708232e-08)
(0.001828103094439382 1.053776420033308e-15 2.132946724578657e-08)
(0.00182810309403846 -1.763226538808882e-15 2.132914287527735e-08)
(0.001828103094435745 2.203268380791916e-15 2.132947931402053e-08)
(0.001828103094062194 -6.319186966905464e-16 2.132912197621176e-08)
(0.001828103094490792 1.767992074708175e-16 2.132948868499249e-08)
(0.001828103094019439 2.536993399805249e-16 2.132910219400269e-08)
(0.001828103094587315 2.350361085185032e-15 2.132949369281377e-08)
(0.001828103094074864 -1.43858390150105e-15 2.132908548101784e-08)
(0.001828103094649981 3.052204857695796e-15 2.132949221391451e-08)
(0.001828103094086194 -2.779179271761343e-15 2.132907423361619e-08)
(0.001828103094685996 4.529838912687868e-15 2.13294817540322e-08)
(0.001828103094155148 -2.488074655851005e-15 2.132907115870882e-08)
(0.001828103094801814 6.130316466737667e-15 2.132945961037026e-08)
(0.001828103094254709 -6.88588254882785e-15 2.132907910401542e-08)
(0.001828103094836042 1.198614159153566e-14 2.132942293230408e-08)
(0.001828103094417281 -1.182047683597088e-14 2.132910127646412e-08)
(0.001828103094871973 1.723895330539555e-14 2.13293747710841e-08)
(0.001828103094599883 -2.422817869760941e-14 2.132913731409389e-08)
(0.001828103094504755 3.012001716420374e-14 2.132925432122961e-08)
(0.001828103095317506 -1.316773383295123e-14 2.132931918704907e-08)
)
;
    }
    left
    {
        type            cyclic;
    }
    right
    {
        type            cyclic;
    }
}


// ************************************************************************* //
