/*--------------------------------*- C++ -*----------------------------------*\
| =========                 |                                                 |
| \\      /  F ield         | OpenFOAM: The Open Source CFD Toolbox           |
|  \\    /   O peration     | Version:  v1812                                 |
|   \\  /    A nd           | Web:      www.OpenFOAM.com                      |
|    \\/     M anipulation  |                                                 |
\*---------------------------------------------------------------------------*/
FoamFile
{
    version     2.0;
    format      ascii;
    class       volScalarField;
    location    "0";
    object      p;
}
// * * * * * * * * * * * * * * * * * * * * * * * * * * * * * * * * * * * * * //

dimensions      [0 2 -2 0 0 0 0];


internalField   nonuniform List<scalar> 
3770
(
-1.575844479128992
-2.039606548582593
-2.11237220260432
-2.143573737848491
-2.158016172372208
-2.162989794784834
-2.158950105131817
-2.16654095950592
-2.17231480748454
-2.163810419571201
-2.17963653934402
-2.174592121596805
-2.178625113537934
-2.185652585260154
-2.186764999905638
-2.19465901602692
-2.1942944101985
-2.188276932825418
-2.181341849128625
-2.193593920346932
-2.199956486259893
-2.193955384003115
-2.185405968427959
-2.175770113896612
-2.189472670766253
-2.19366246316394
-2.189887353259143
-2.203544884304171
-2.189397446507678
-2.196685350553016
-2.19255599225184
-2.198725571524531
-2.195679462455199
-2.196458647134804
-2.190858516847003
-2.1718393834316
-2.173102485105997
-2.184693968281979
-2.183900684786741
-2.183990844204819
-2.174724979324815
-2.176309196222273
-2.177990100111695
-2.177153713346545
-2.179134961520308
-2.178854245783824
-2.172351649691432
-2.168404256235874
-2.164694072923431
-2.163023483840252
-2.165704037083341
-2.15947483738674
-2.160484935290737
-2.153335240433051
-2.150431807791957
-2.141594085926286
-2.089658970083175
-1.964880387905109
-1.576690914701382
-2.039904583437115
-2.112422551310239
-2.143559310818818
-2.158023514503033
-2.163013882743054
-2.158952923678346
-2.166525031985991
-2.17231756968704
-2.163778217677934
-2.179679377825191
-2.174572212324499
-2.178637875888025
-2.185656449091691
-2.186774935476054
-2.194673483990736
-2.19430690453065
-2.188255220692108
-2.18130059193078
-2.193585173225135
-2.199973397201124
-2.19393756941762
-2.185425063556387
-2.175707437460742
-2.189472093284573
-2.193696965439172
-2.18986635694967
-2.203591857651046
-2.189368785328776
-2.196700432225499
-2.192552980909469
-2.198734193439252
-2.195695028239021
-2.196471696342999
-2.190877339840275
-2.171846918588449
-2.173109892398926
-2.184714272505409
-2.183873384400171
-2.183990610471719
-2.174703000814664
-2.176312729985196
-2.177991558652371
-2.177149422388479
-2.17912992558898
-2.178868756273092
-2.17234080787374
-2.168407249826691
-2.164700145893545
-2.163017466549089
-2.165713938643036
-2.159463579944648
-2.160500543652916
-2.153341395885255
-2.150424121782337
-2.141589926209645
-2.08974586388146
-1.964825684143354
-1.578736228913874
-2.040024961880512
-2.112440816810748
-2.143563478492755
-2.158041022799212
-2.163033204071068
-2.158952386272598
-2.166516793599873
-2.172309157731755
-2.163734679170469
-2.179752709708965
-2.17457566651278
-2.178618520870754
-2.185652401167722
-2.18677892418545
-2.194694020519774
-2.19431119387919
-2.188249239334848
-2.181265151126239
-2.193597815174965
-2.19998305318391
-2.193937428273078
-2.185434360761207
-2.175651857780259
-2.18943854428741
-2.193698995489173
-2.189901975470439
-2.20363382029418
-2.189344823090057
-2.196716709935532
-2.192558739501948
-2.198744347256654
-2.195713824318677
-2.196480903945327
-2.190908439562383
-2.171847772699034
-2.173112007517279
-2.184719811887537
-2.183843693689228
-2.183998218047167
-2.174686306694857
-2.176322830915169
-2.177993614436193
-2.177148643977772
-2.179137020184414
-2.178878386818842
-2.172345993024958
-2.168407893888811
-2.16469900565294
-2.163017866316601
-2.165724545846131
-2.159458767245246
-2.160516042327316
-2.153340427527477
-2.150422476732359
-2.141605200270118
-2.089756377631511
-1.964759454840004
-1.58194966370062
-2.039967979822694
-2.112427028637871
-2.143586012722669
-2.158068329146011
-2.163047492265545
-2.158948485040772
-2.166516276316921
-2.172289780765032
-2.163680340372218
-2.179855401710345
-2.174602340765813
-2.178567489818247
-2.185640504219909
-2.186776929900798
-2.194720310021288
-2.194307300105882
-2.188259008030809
-2.181236091311266
-2.193631528719733
-2.199985388989103
-2.193954879510549
-2.185433887314649
-2.175604140368713
-2.189372811066676
-2.193668673906108
-2.189993434640531
-2.203670319026761
-2.189325877409622
-2.196733999005919
-2.192573069884931
-2.198755984179451
-2.195735514028283
-2.196486124857475
-2.190951179186178
-2.171841903847717
-2.173108817372409
-2.184710613410167
-2.183812106121503
-2.184013544969876
-2.174675088800786
-2.176339306394535
-2.177996241917952
-2.177151376611313
-2.179156100247313
-2.17888308424634
-2.172367019323368
-2.168406198748327
-2.164690716780078
-2.163024619133527
-2.165735722563993
-2.159460395163697
-2.160531221930752
-2.153332398642497
-2.150426881939341
-2.14163952214086
-2.089691093488242
-1.964682627387727
-1.751956009044705
-2.048213793711334
-2.114127643586589
-2.14408962464235
-2.158502184775269
-2.163761266846105
-2.159621920507931
-2.166151836889546
-2.17213556443299
-2.162989309863187
-2.181148632944157
-2.174566739516497
-2.177394564585903
-2.186109415386745
-2.187915245260651
-2.19549682598714
-2.194632236889432
-2.187560776756622
-2.180546507655284
-2.193895395296773
-2.200290126141673
-2.194225797079846
-2.186916017404719
-2.174215165689888
-2.188453308743822
-2.196202203328549
-2.190621282744935
-2.20442343908679
-2.189069407601994
-2.196782062577233
-2.19274614373972
-2.199188682311556
-2.19726470231697
-2.197370422425964
-2.192073363021219
-2.171736910050114
-2.173431319269095
-2.185028296653282
-2.18396644560451
-2.184339117993772
-2.174117784994052
-2.176669513209451
-2.178195297296977
-2.177165757869701
-2.179434833325639
-2.179324452674342
-2.172535275089803
-2.168376591275576
-2.16478667291443
-2.16318894565441
-2.16597064593404
-2.159465991999227
-2.160897473329779
-2.153893121542375
-2.150434535800844
-2.142126821110968
-2.091335361566814
-1.97589149141393
-1.755285676435882
-2.048668116872966
-2.114233453394392
-2.144084189370647
-2.158499055256541
-2.163797733660394
-2.159659328243551
-2.166128736782292
-2.172145339419544
-2.163004004763201
-2.18112812497698
-2.174512728986516
-2.17739539605252
-2.186144832570838
-2.187967008121651
-2.195515862920224
-2.19465616030158
-2.187515894402535
-2.180515585521491
-2.193867266491324
-2.20030696989437
-2.194206116648365
-2.186975256490846
-2.174139579782276
-2.188470735392608
-2.196385577449362
-2.19056392814926
-2.204441996468478
-2.18908212426251
-2.196772043858961
-2.192761519366052
-2.199180382046748
-2.197312102548763
-2.197407858507933
-2.192081794785704
-2.171746603467254
-2.173457583185352
-2.185048552738671
-2.183958157057582
-2.184324004749548
-2.174093838588964
-2.176668684026901
-2.178202232423071
-2.177158717299978
-2.179427629440919
-2.179345371653835
-2.172522351088149
-2.168380197040464
-2.164798106433395
-2.163183249213313
-2.165967881879789
-2.159467194917676
-2.160903025507938
-2.153933815915712
-2.150440385491683
-2.142099847670642
-2.091515129589142
-1.97657517518848
-1.758723566518157
-2.049002712661849
-2.114310838673211
-2.144106017365368
-2.158506449948451
-2.163822647638085
-2.159690737117052
-2.166125453063627
-2.172151484901038
-2.163014220383937
-2.181116607359279
-2.174487600691551
-2.177350860531607
-2.186169206044131
-2.188003469228435
-2.195543779375758
-2.19467445573262
-2.187482213257168
-2.18049627807662
-2.193865102649696
-2.200315420415938
-2.194200415256281
-2.187033407309482
-2.174078557302711
-2.188434231558859
-2.19656807469893
-2.190539152234931
-2.20445954242054
-2.189108477763027
-2.196767085845574
-2.192783191022244
-2.199168739618369
-2.197355235707963
-2.197446175877184
-2.192100510556333
-2.171744721906113
-2.173476588519905
-2.185052063638416
-2.183960473974235
-2.184311317828084
-2.174080376468779
-2.176674246766006
-2.178211588149394
-2.177153536717835
-2.179432156499472
-2.179362633710073
-2.172526966538395
-2.168383413762199
-2.164801264926429
-2.163185115701173
-2.165968718015541
-2.159478490422186
-2.160909373138582
-2.153967479120879
-2.150458233933239
-2.142088636424161
-2.091632097654949
-1.977208045791105
-1.762213966382629
-2.049192642833066
-2.114353493525232
-2.144159779496589
-2.158526007782693
-2.163833318580479
-2.159714096058787
-2.166145879846582
-2.172153635101898
-2.16301821059734
-2.181116459249075
-2.174497011977291
-2.177253295064677
-2.186179627988895
-2.188020736182168
-2.195581821599471
-2.194686019921841
-2.187462294465761
-2.180491109981917
-2.193893796003753
-2.200314002700745
-2.194211167788058
-2.187089676854836
-2.174035606117243
-2.188334622154267
-2.196746263992086
-2.190552736063633
-2.204476119080661
-2.189150174959828
-2.196768674363588
-2.192811587891465
-2.199153709565904
-2.197392207032037
-2.197484713374352
-2.192130873335004
-2.171728866624478
-2.173486507566993
-2.185035928834656
-2.183975461518493
-2.184302025045736
-2.174079259506296
-2.176687252038652
-2.178223742237199
-2.177150667153209
-2.179450545118512
-2.179375508062797
-2.172552101356298
-2.168386166402822
-2.164794573370206
-2.163195827732844
-2.165974086527134
-2.159501350846038
-2.16091670091844
-2.153992080792972
-2.150489931967205
-2.142096264054256
-2.091673708361082
-1.977765305676208
-1.765741431601695
-2.049226953506844
-2.11435920522421
-2.144245955479084
-2.158558084093248
-2.163829146810362
-2.159729108200614
-2.166190503120033
-2.172151244454803
-2.163016326557213
-2.181127671368654
-2.174542279921393
-2.177102050461068
-2.186175795034162
-2.188018192691139
-2.195629770079114
-2.194690204371379
-2.187457037849517
-2.180500667299361
-2.193954097978735
-2.20030215661251
-2.194239045599945
-2.187142830792909
-2.174012249653654
-2.188170708385044
-2.196917553121248
-2.19060656768035
-2.204490986281479
-2.189207537022039
-2.196776636921982
-2.192846885689155
-2.199135046692968
-2.197422567021158
-2.197523075544209
-2.192173097012227
-2.171698972060706
-2.173486982415791
-2.184999385661608
-2.184003275528859
-2.184296127727154
-2.174091257261851
-2.176707836624766
-2.178238551543129
-2.177150224366854
-2.179483040713092
-2.179383427289311
-2.172598360613478
-2.168388351916752
-2.164777733304449
-2.163215652061169
-2.165983842492049
-2.159536077711556
-2.160924814350251
-2.154007047810355
-2.150535622781109
-2.142123386038441
-2.091635486889225
-1.978243029570283
-1.878457546572794
-2.061876214300117
-2.117047592136675
-2.146722035898575
-2.159630350793369
-2.164263571381199
-2.160961524783511
-2.16815576475764
-2.172796256962453
-2.164331961424447
-2.179212459358995
-2.174333736850211
-2.17502582070251
-2.18702985171977
-2.188901610810047
-2.197443490374745
-2.195714534943662
-2.187494702415532
-2.181177659052463
-2.194584958699923
-2.200559466208161
-2.194893962166932
-2.189603655974263
-2.174482598064488
-2.186003549651659
-2.205092187435256
-2.189575924345334
-2.203626982712378
-2.191348575567216
-2.197062582900162
-2.193133677779497
-2.198357926828773
-2.198816294080201
-2.199641415379915
-2.193078742318169
-2.171560557858442
-2.17340879374407
-2.184900726671331
-2.185293324927094
-2.183977069231209
-2.173921908735625
-2.176692870155333
-2.179149162903363
-2.177504908929069
-2.180172303682655
-2.180301731607439
-2.173513201260116
-2.168510514252126
-2.164617835763265
-2.163491912652369
-2.166009981769536
-2.160865727981341
-2.161382175537595
-2.155193283866014
-2.151990681219164
-2.142291219148055
-2.096036223655706
-1.999445956376406
-1.881726805411049
-2.062353103603821
-2.117159753201811
-2.146816950038853
-2.159653988708849
-2.164274507285582
-2.161000748378648
-2.16822786389746
-2.172832162708274
-2.164421480045601
-2.179072875118677
-2.174316606392289
-2.17501537030026
-2.187019114060801
-2.188910015618672
-2.197515895592051
-2.195776357460235
-2.187494508586254
-2.181196440558476
-2.194643244249586
-2.200576552210744
-2.194919213236794
-2.189703860632056
-2.174546725169539
-2.185961749671212
-2.20545286546378
-2.189448355810421
-2.203521583298868
-2.191423743585751
-2.197040480719788
-2.193098707570089
-2.1983243885411
-2.198852273446739
-2.199713187014384
-2.193089072429898
-2.171551178085882
-2.173403126143414
-2.184909182655201
-2.185379656935402
-2.18397550771014
-2.173923704242641
-2.176690817345353
-2.179186169192786
-2.177527509840326
-2.180192063548703
-2.180344235120574
-2.173541264331379
-2.168513332960212
-2.164619456312338
-2.163506093587884
-2.166018923836426
-2.160910497471439
-2.16139927356453
-2.155239776549365
-2.152026237620721
-2.142308471210413
-2.0962594448284
-2.000226661184122
-1.885075829618187
-2.062620336659417
-2.117218426553958
-2.146973164042833
-2.159701260052164
-2.16427127104458
-2.161029383440612
-2.168326397406643
-2.172849885914473
-2.164500561500279
-2.178970435270442
-2.174350833893277
-2.174966493231711
-2.186942023036157
-2.188866199758102
-2.197623656604446
-2.195829167083341
-2.187554212754777
-2.181228375954304
-2.194795929562236
-2.200571690414953
-2.194976383822479
-2.189801477500718
-2.174641551411309
-2.185821874451056
-2.205777973343669
-2.189425590906388
-2.203392249477577
-2.191519349487159
-2.197025304920043
-2.19306020391961
-2.198284950463185
-2.198876146255576
-2.199770734448479
-2.19312274372634
-2.171518664339242
-2.173370100836652
-2.184885597170329
-2.185462742113705
-2.184003102764966
-2.173945219931765
-2.17671811944538
-2.179225294344334
-2.177569876309785
-2.180248830196577
-2.180388646017133
-2.173616295462006
-2.168512481939993
-2.164609704295553
-2.163538991667402
-2.166040767926512
-2.16097198449487
-2.16142388974853
-2.155270564218528
-2.152078712968286
-2.142383113371143
-2.096368203024663
-2.00082117146646
-1.954115827754964
-2.07611381747864
-2.120504973659218
-2.149234400918207
-2.161311470350789
-2.165248210880663
-2.16226099620597
-2.169974315245649
-2.172864900582339
-2.166326767578194
-2.176520568568291
-2.174467579095809
-2.176414828384043
-2.184564276204394
-2.188044821746377
-2.199394916750908
-2.197058408763454
-2.187626725462192
-2.182134956186997
-2.197239037975676
-2.201202862921485
-2.196572073946996
-2.191564514011414
-2.178353692867894
-2.185946777144191
-2.211044096779696
-2.190548610392569
-2.200439661318677
-2.193649264839916
-2.196953410983532
-2.191790074350043
-2.197831966317909
-2.199340021166017
-2.200944095123497
-2.193517607361438
-2.172566693988817
-2.173679672528555
-2.185483875205939
-2.187306506378575
-2.184375403905304
-2.174312159463507
-2.177161100457454
-2.179969885247123
-2.178638093788726
-2.181091962346939
-2.182088236745686
-2.174920736303378
-2.168541181823887
-2.164629931199906
-2.163673146401135
-2.166350191704366
-2.162651062404751
-2.162605624817172
-2.156507723415832
-2.15271999622583
-2.143653468363318
-2.103043279857982
-2.018805818534824
-1.957468373648883
-2.076688090094581
-2.120661676111104
-2.149363840816055
-2.161426873753673
-2.165292738657702
-2.162298860925108
-2.170031260751362
-2.17285870898047
-2.166448711774376
-2.176421852469733
-2.174480080246008
-2.176511078117148
-2.18442892936462
-2.187903541768164
-2.199446199777553
-2.197165877381173
-2.187676293047669
-2.182080988320251
-2.197489683369423
-2.201180386897251
-2.196683817589909
-2.191596022710381
-2.178621501834705
-2.186048720866861
-2.211015898866159
-2.190688289171221
-2.200196686055215
-2.19376355937217
-2.196950296420149
-2.191642447530448
-2.197777883068699
-2.199280700573766
-2.200911718096714
-2.193518532506436
-2.172649313771498
-2.173676651200539
-2.185499769701257
-2.187381620835124
-2.18443103961717
-2.174338974839031
-2.177221486829467
-2.180011466103505
-2.17872077726327
-2.181185150154975
-2.182179950053809
-2.175021725598008
-2.168519880302093
-2.164628023472459
-2.163664396550827
-2.166333686896845
-2.162758356925632
-2.162676471519168
-2.156549441553781
-2.152753324843813
-2.143790870185619
-2.103333014241081
-2.019859705673122
-2.008647266932087
-2.090022166452036
-2.124760786690417
-2.150427223956761
-2.163983680237331
-2.166842983881577
-2.163122472973861
-2.170045896939369
-2.172367036720651
-2.168176562573705
-2.175283822384085
-2.174607299708153
-2.177470941729712
-2.182641506970766
-2.186478680080901
-2.198854929968115
-2.198897299826447
-2.187124994968324
-2.180312284006526
-2.201715131194765
-2.200820539862687
-2.197936978161366
-2.191756164094208
-2.182207100313678
-2.188996536077833
-2.208453304067745
-2.193549840251057
-2.19769067682652
-2.195165399934877
-2.19857475763479
-2.190399317476682
-2.196682677193903
-2.197885644347577
-2.199711480177736
-2.193654221241598
-2.175811968743022
-2.174676446942819
-2.186233236133885
-2.188427463074045
-2.184717858027797
-2.174771262229956
-2.177911837066711
-2.180761122691828
-2.179763610098653
-2.182508716437386
-2.18390665922106
-2.176236543373223
-2.168328349217267
-2.164946969399134
-2.163495281291152
-2.166034787953072
-2.165307714879481
-2.164571544824309
-2.157686702809694
-2.152976440093486
-2.14576701183176
-2.110327737935364
-2.043645552054687
-2.052225508552914
-2.102572333568875
-2.129475857284862
-2.150983098345286
-2.167144398082992
-2.169248200817099
-2.164009592428697
-2.168874003863911
-2.171456620197036
-2.169344498255639
-2.17493801508175
-2.175012105037661
-2.178884660853911
-2.182964773731169
-2.187922080472281
-2.195865816022673
-2.199801714144012
-2.189140687833437
-2.178937284941753
-2.207497917456594
-2.199221538395892
-2.197159168377667
-2.192469339024946
-2.184354384760378
-2.191033745124889
-2.20492724997563
-2.195490108268628
-2.197526575659325
-2.195621548904671
-2.203198738339802
-2.193523595768597
-2.195394895080513
-2.195958887651643
-2.197985893438389
-2.194090016577911
-2.178823721318612
-2.175920381995827
-2.18622986181792
-2.188948519406289
-2.184786591058925
-2.174956569201807
-2.178139133093744
-2.181938952714904
-2.180602136223609
-2.184101234613099
-2.185499706334015
-2.177595565874072
-2.168422947861255
-2.166186339595902
-2.164014861782368
-2.165542850714913
-2.16785740435659
-2.167250753764193
-2.158922151573676
-2.153116185342013
-2.148249863522683
-2.117357993822083
-2.07261681552396
-2.087860240931816
-2.114110862017964
-2.134154780071853
-2.151845531470871
-2.170271504903973
-2.172407189356999
-2.165065430084725
-2.167401994918275
-2.170654411653468
-2.169389973138126
-2.174467750910881
-2.175255217596742
-2.180322371244114
-2.184469446114125
-2.190035339812969
-2.194713619512684
-2.198292411295645
-2.190954864329522
-2.180361774907256
-2.210504289732514
-2.199039740770409
-2.195108686536047
-2.193458865890778
-2.185152599525492
-2.191235449765169
-2.204389068260444
-2.196754828721111
-2.19912767147207
-2.197003035355142
-2.208214729114506
-2.202545403858522
-2.196535630960366
-2.19318118683879
-2.195634678550755
-2.194047549833941
-2.181380273787163
-2.177268437944705
-2.185820316926944
-2.189703451826095
-2.184649234621393
-2.174869155487301
-2.177707346328549
-2.183372327887436
-2.181466679843654
-2.185747144730644
-2.187670070638525
-2.179530757308256
-2.168739584578328
-2.166551875423466
-2.164333632500228
-2.164342846398508
-2.169530806280124
-2.169028893504767
-2.16039527722609
-2.154537593003856
-2.150402767742756
-2.125382451572302
-2.101143689345395
-2.115953291042035
-2.124809039900646
-2.138583484890017
-2.153311544495297
-2.172771392825106
-2.176235579997532
-2.166035442351981
-2.166562492831526
-2.169670405617535
-2.168839646777114
-2.173713723604062
-2.174979015882264
-2.181314232089368
-2.186545785654774
-2.191499787594896
-2.194916509537649
-2.197152073114109
-2.191851443488825
-2.183414237318876
-2.207885094651155
-2.19891325972457
-2.193743253959499
-2.193578624186304
-2.185302375769652
-2.189690025040121
-2.205350037613774
-2.196936826589714
-2.199816906536228
-2.200240914392348
-2.210055159819505
-2.209712900776823
-2.198216533248336
-2.190107692741436
-2.192679462243593
-2.192890295178117
-2.1830748889953
-2.178389112626422
-2.185334677689936
-2.189990169316109
-2.184459211321295
-2.17466911063138
-2.17686823534833
-2.18407364327366
-2.181838460324014
-2.187317765522277
-2.190221977983466
-2.18189948747823
-2.169210567985156
-2.165072695209389
-2.163277846660105
-2.16222904137787
-2.167848320648297
-2.167452290552128
-2.16145526820932
-2.157005214454737
-2.153092070620461
-2.135548745459999
-2.125436812164906
-2.138255891278876
-2.135177667231669
-2.14302963085898
-2.154999598348641
-2.174043528351887
-2.179939040105326
-2.166511626112213
-2.166202002306378
-2.16893458093837
-2.168635769419793
-2.17279347058387
-2.174257205986184
-2.18174245416292
-2.189163779761868
-2.192315272969795
-2.194835466411878
-2.196473264069393
-2.192959993107028
-2.187145942499384
-2.203562806716933
-2.198684582736806
-2.193901076528036
-2.192765586783745
-2.185343736537096
-2.187300503509526
-2.203391166821087
-2.195548225968135
-2.198512629456149
-2.203270451643634
-2.209337358048591
-2.21096459631256
-2.199113757724942
-2.188255471255096
-2.190304187882407
-2.191452394751366
-2.184418805642474
-2.179259916698969
-2.184708634477262
-2.188998991211168
-2.183935661996969
-2.173733068240943
-2.175650667141585
-2.183480736929647
-2.182144353144748
-2.188452725256249
-2.192597382373338
-2.184466376808391
-2.169619292217065
-2.16273039541146
-2.16112943665901
-2.159932034360199
-2.161854066411641
-2.16282319867971
-2.162359732252741
-2.159559819770017
-2.156953758600775
-2.147438130211912
-2.14622347965283
-2.140600924972524
-2.13628398506216
-2.14350801953484
-2.155211769975496
-2.174003626593668
-2.180292966219361
-2.16651269431286
-2.166167416083231
-2.168877175199307
-2.168686445003755
-2.172696935417721
-2.174139077531529
-2.181728598551763
-2.189496025285317
-2.192417995667705
-2.194833808246745
-2.196410438684556
-2.193067687538736
-2.187553719124387
-2.203103349654429
-2.198730541075377
-2.193990275539842
-2.192691511911293
-2.185359503573841
-2.187066276084003
-2.202990850637871
-2.195338320186534
-2.198294709037297
-2.20353288621178
-2.209106002653121
-2.210854789046432
-2.199177296378208
-2.188235631429071
-2.190200715150338
-2.191309691754767
-2.184595395910631
-2.179372099683297
-2.184687104657631
-2.188925407200772
-2.183958015354978
-2.173628168551664
-2.175510013191142
-2.183336025103599
-2.182241739222727
-2.188566445710805
-2.192860264463677
-2.184771349727346
-2.169668016519089
-2.162429160530027
-2.160904425423244
-2.159734027358494
-2.161015750451961
-2.162324589343257
-2.162499769532823
-2.159839294577746
-2.157372115490107
-2.148775231827913
-2.148576368171914
-2.159102837840356
-2.146955879448242
-2.148438187168297
-2.156644009819366
-2.173037713810396
-2.181067667226796
-2.166562709984467
-2.16586808167868
-2.168638224897848
-2.169301662892863
-2.171975317334687
-2.172821393372873
-2.181374210488324
-2.192598375918683
-2.192953533925141
-2.194599259584593
-2.195958100532193
-2.193866440968162
-2.190655340355894
-2.200587998425977
-2.198815375580684
-2.194930284023929
-2.192571337700759
-2.185830091920809
-2.184807958650217
-2.19876564318503
-2.194126491684181
-2.196410232536585
-2.203962691020294
-2.207302611777797
-2.209041842673224
-2.198728454195354
-2.18922547055656
-2.190379434456879
-2.19022045351883
-2.186683607136621
-2.181014453640144
-2.184641979662243
-2.18783514407234
-2.183313013687675
-2.173003639263339
-2.173877257346984
-2.181386389209394
-2.183075235445204
-2.189529689619404
-2.195310003653951
-2.187561709386427
-2.170398515762886
-2.159561577064609
-2.158688196663078
-2.15711149185197
-2.151955863435953
-2.158938828390365
-2.163402323481
-2.162043153432983
-2.161423980660308
-2.160326986273725
-2.168789585461712
-2.177733985223673
-2.157278836744237
-2.153886958805897
-2.15792722156421
-2.170504485755265
-2.177812962480717
-2.166858400720607
-2.165867642600967
-2.168920267985927
-2.169377397563854
-2.17142917641518
-2.171032340319598
-2.179899992757867
-2.195278654775198
-2.19344126584746
-2.194848660894407
-2.195565315710838
-2.194303998079333
-2.192970345933558
-2.199415809517574
-2.199215099140956
-2.196221173081029
-2.193439405335154
-2.187115740504464
-2.183353082144577
-2.196123600581223
-2.193548070888289
-2.195164271362412
-2.20224098638787
-2.20539056061188
-2.20687980368606
-2.198031162217388
-2.192571082453251
-2.192740774243759
-2.189221992738393
-2.189851561944793
-2.18457908031972
-2.185495443311315
-2.185938859275723
-2.181496281768827
-2.173566628758465
-2.17190225035257
-2.17936671699377
-2.183866639834254
-2.190836285297302
-2.198189460558786
-2.189912005590263
-2.171425681483262
-2.156821748186457
-2.156470695956198
-2.154437972483599
-2.143460098079594
-2.15696685105381
-2.163648540886308
-2.163285745886021
-2.16505141665054
-2.171508649784058
-2.189424794561794
-2.202666791364729
-2.16728229309898
-2.159899600723506
-2.159981237698261
-2.168133664624897
-2.172957444982953
-2.166913863646541
-2.166334142784519
-2.16917823440983
-2.168391855847656
-2.170826247515099
-2.168608713528425
-2.176963207813515
-2.196206055790841
-2.194123367555318
-2.19562670339154
-2.19613797424357
-2.194912084568288
-2.194831805100911
-2.198184724054722
-2.199562264459396
-2.197658983712926
-2.195005806985245
-2.188837050999199
-2.183581952921495
-2.193192619208912
-2.190379861735896
-2.192161163764769
-2.200098432243113
-2.20462890912458
-2.205725926821938
-2.200890714956301
-2.198383843515524
-2.196049955607338
-2.190588611428257
-2.191915330924739
-2.188171097995316
-2.185675151308068
-2.18705295055879
-2.18032276083799
-2.171717687398246
-2.171991101265476
-2.179224509543916
-2.185832399571919
-2.192633553117147
-2.195646783472095
-2.187693114083308
-2.172770674896325
-2.157932338934652
-2.157792118139639
-2.155364807375187
-2.14601147443807
-2.1576718644476
-2.162639231928525
-2.163782793931624
-2.167575001308222
-2.181696644025269
-2.212649809154509
-2.206450105011377
-2.168281459642071
-2.160601912619636
-2.160265842151869
-2.167986691463331
-2.172466965511159
-2.166826202521322
-2.16640830389385
-2.16917382224597
-2.168149560937849
-2.170787971996081
-2.168373399492771
-2.176488670124445
-2.196312924682702
-2.194359156311887
-2.195694281101361
-2.196239886879634
-2.194993979427741
-2.195040103021674
-2.198135172533117
-2.199642324055878
-2.197844438333004
-2.195155361315196
-2.188855487852957
-2.183543535318398
-2.192899736741624
-2.190103708501133
-2.191883136542993
-2.199858505513167
-2.204675533731597
-2.205734828826513
-2.201345866811632
-2.199147659339838
-2.196671760414793
-2.190890345359351
-2.192096781552524
-2.188723824957076
-2.185953883472195
-2.187229312494122
-2.180284876939421
-2.171487371250842
-2.172026844702878
-2.179204604649552
-2.185943061474668
-2.192826293714745
-2.195210559645469
-2.18739404773085
-2.172825635733954
-2.158078797176749
-2.158034903772395
-2.155578080815599
-2.146776454257547
-2.157870048072502
-2.162491252726642
-2.163769862272531
-2.1676619430934
-2.182915311522961
-2.215894432070175
-2.233178510827292
-2.177931203118646
-2.167249378295765
-2.163352521443574
-2.167171352236382
-2.169362353611302
-2.166058638712655
-2.166865116489507
-2.169072401647427
-2.165527215181704
-2.169513295880999
-2.166494273472909
-2.174150504961559
-2.195253444768225
-2.196253440839497
-2.197454316743963
-2.19761864787966
-2.195700048681662
-2.196235958819123
-2.197480737114392
-2.200314860260066
-2.199623360228415
-2.196427003980169
-2.189785139295209
-2.183177448919436
-2.190007488245546
-2.187103568832495
-2.189877168834642
-2.197745027795435
-2.204314939085029
-2.206695928461766
-2.20546243116651
-2.20654790110781
-2.202648641468977
-2.194247855104527
-2.193887695070287
-2.192997545576881
-2.190035702612149
-2.190158179475014
-2.179627314329419
-2.169610065172379
-2.172301550992064
-2.179794621356571
-2.188584771749669
-2.193505946405454
-2.192105585638886
-2.183901387722357
-2.173679828733078
-2.160704263240737
-2.160362778182004
-2.158181390366912
-2.154089876949014
-2.160242353157217
-2.162203127525973
-2.16412224117965
-2.168600921886838
-2.192344835693855
-2.239163894793386
-2.24993494691949
-2.188853995504963
-2.174035791426146
-2.167419660471311
-2.168493827939326
-2.169039055944529
-2.166586974278771
-2.167072035720945
-2.167502761358389
-2.161714795709696
-2.168863580999945
-2.166966826680671
-2.175214240575184
-2.192766852951868
-2.197195091334081
-2.201798975196092
-2.198536104604492
-2.194635876706378
-2.195283488824721
-2.20046495227454
-2.201095728372561
-2.201583008836612
-2.197200714912074
-2.189818413957052
-2.183379389401574
-2.187559402275339
-2.185143847987292
-2.188453970892038
-2.198418089342438
-2.204877353065453
-2.208078522748647
-2.20791531449546
-2.210723057859816
-2.20578753629246
-2.195937660505819
-2.194517044252046
-2.193774842218504
-2.193529099239752
-2.195570062170942
-2.186410900487143
-2.172690196183181
-2.17229914119467
-2.18390649272837
-2.193872868162041
-2.193426307067099
-2.188425144064228
-2.180958813796894
-2.171943154442709
-2.163831691276019
-2.162796810947555
-2.160801926688199
-2.159204454484364
-2.163250760246771
-2.164861313656555
-2.16482307096748
-2.166137318332029
-2.196067852152886
-2.251219219796614
-2.250196873291817
-2.189659460841564
-2.174570392815885
-2.167861774870518
-2.168652288876116
-2.169098414748076
-2.166735318013462
-2.167107038289299
-2.167363755069768
-2.161361779488836
-2.168730662672342
-2.166984840329047
-2.175545650461526
-2.192288722692399
-2.197292691644166
-2.202293944888168
-2.198691818972477
-2.194489571539947
-2.195143999948903
-2.200711000602273
-2.201122994537964
-2.201748612632219
-2.197352558122289
-2.190004212243106
-2.183388460478312
-2.187241440601972
-2.184952757413187
-2.188556056602758
-2.198504378445923
-2.204766357777089
-2.208197123185148
-2.208047267285494
-2.21104496161319
-2.205864514855685