/*--------------------------------*- C++ -*----------------------------------*\
| =========                 |                                                 |
| \\      /  F ield         | OpenFOAM: The Open Source CFD Toolbox           |
|  \\    /   O peration     | Version:  v1812                                 |
|   \\  /    A nd           | Web:      www.OpenFOAM.com                      |
|    \\/     M anipulation  |                                                 |
\*---------------------------------------------------------------------------*/
FoamFile
{
    version     2.0;
    format      ascii;
    class       volScalarField;
    location    "10000";
    object      nuTilda_0;
}
// * * * * * * * * * * * * * * * * * * * * * * * * * * * * * * * * * * * * * //

dimensions      [0 2 -1 0 0 0 0];


internalField   nonuniform List<scalar> 
3770
(
0.0004955735205646258
0.0004955735549473281
0.0004955735526229974
0.0004955735535915893
0.0004955735531797496
0.0004955735532663068
0.0004955735522299948
0.0004955735524719941
0.0004955735520527407
0.0004955735502933185
0.0004955735527300706
0.0004955735515256938
0.0004955735514801322
0.000495573551936804
0.0004955735523934289
0.0004955735523374938
0.0004955735527275094
0.0004955735530633117
0.0004955735545768154
0.0004955735525860661
0.0004955735530569041
0.0004955735526043475
0.0004955735518575997
0.0004955735525833446
0.0004955735518650509
0.0004955735531133376
0.0004955735512352786
0.0004955735526577161
0.0004955735507450052
0.0004955735525080164
0.0004955735499756399
0.0004955735561058978
0.0004955735514222369
0.0004955735526767591
0.0004955735520650444
0.0004955735539069828
0.0004955735538182909
0.0004955735522301383
0.0004955735537967837
0.0004955735532299378
0.0004955735543250499
0.0004955735503312077
0.0004955735533522884
0.0004955735536607923
0.0004955735528393146
0.0004955735535125094
0.0004955735543358533
0.0004955735531578296
0.0004955735548501067
0.0004955735533339123
0.0004955735545573995
0.0004955735537632133
0.0004955735539413079
0.0004955735540652057
0.0004955735546307532
0.0004955735546252477
0.0004955735546658687
0.0004955735514920364
0.0002946124180784993
0.0002946122655051007
0.0002946122943746214
0.0002946122741437621
0.0002946122646422662
0.0002946122525634881
0.0002946122463062092
0.0002946122538547006
0.0002946122429010889
0.0002946122514897804
0.0002946122630468655
0.0002946122803969141
0.000294612284847891
0.000294612304123677
0.0002946123057449218
0.0002946123101360596
0.0002946123091141711
0.0002946123017316578
0.0002946123192470976
0.0002946123007400409
0.0002946122958165117
0.0002946122803154734
0.0002946122901801232
0.0002946122781526037
0.0002946122873036281
0.0002946122999296558
0.0002946123027442154
0.0002946123122180162
0.0002946123189458691
0.0002946123301151427
0.0002946123384056435
0.0002946123720223606
0.0002946123623276135
0.0002946123728030785
0.0002946123685344407
0.0002946123788122192
0.0002946123869185533
0.0002946123790822573
0.0002946123890588084
0.0002946123907423195
0.0002946123928116906
0.0002946123774208642
0.0002946123838602466
0.0002946124013952666
0.0002946123749332417
0.0002946123812829643
0.0002946123920588048
0.0002946123869775635
0.0002946123986976804
0.0002946123668854129
0.0002946123800902488
0.000294612377620962
0.0002946123489399661
0.0002946123407607174
0.0002946123495429779
0.000294612346792853
0.0002946123531229866
0.0002946123650339287
0.0003144610851765365
0.0003144607151117595
0.0003144608615825921
0.000314460779686924
0.0003144607428287557
0.0003144607164544448
0.0003144607045855673
0.0003144607231693053
0.0003144606955718009
0.0003144607217526439
0.0003144607779211725
0.0003144608176349999
0.0003144608456181173
0.0003144609183788477
0.0003144609065713837
0.0003144609278757398
0.0003144609415737308
0.0003144608972946947
0.0003144609586364576
0.0003144608806002624
0.0003144608851310342
0.0003144608314700879
0.0003144608686607011
0.0003144608187247275
0.0003144608660008403
0.0003144608992106791
0.0003144609172366796
0.0003144609459411852
0.0003144609966474974
0.0003144610277762493
0.0003144610726724648
0.0003144611582937188
0.0003144611191957094
0.0003144611663089586
0.0003144611471248211
0.0003144611841814757
0.0003144612012535195
0.0003144611678729955
0.0003144612251479939
0.0003144612092538375
0.0003144612228376602
0.0003144611728149946
0.0003144612068785265
0.0003144612647342185
0.0003144611513907799
0.0003144611904807302
0.0003144612376838828
0.0003144611968556359
0.000314461231973629
0.0003144611124289584
0.0003144611544043868
0.0003144611475384408
0.0003144610378260122
0.0003144610369907868
0.0003144610727158038
0.0003144610370300219
0.0003144610539106078
0.0003144610891618159
0.0003906615518631346
0.0003906614498387484
0.0003906615145043856
0.0003906615022033544
0.0003906614040695223
0.0003906614547426304
0.0003906614682691991
0.0003906614861040853
0.0003906615341744172
0.0003906614707672163
0.0003906615725029528
0.0003906615413539985
0.0003906616053902276
0.0003906617257809641
0.0003906616105675057
0.0003906617114525932
0.0003906616865053282
0.0003906615671521342
0.0003906617005192551
0.0003906616195625161
0.0003906616760938276
0.0003906616392750515
0.0003906617128813977
0.0003906616061500438
0.0003906616635311402
0.0003906617772657665
0.0003906617197634153
0.0003906617677105432
0.0003906618746733009
0.000390661869425267
0.0003906618350159206
0.0003906619769512626
0.0003906618913995557
0.0003906620285801972
0.0003906618613569531
0.0003906619475430165
0.0003906620442517208
0.0003906618838528039
0.0003906619915338992
0.000390661934222022
0.0003906620311655059
0.0003906619128940698
0.0003906619662569567
0.0003906620607856433
0.000390661860512591
0.0003906619242144566
0.0003906620394176023
0.0003906619805512418
0.000390661932577682
0.0003906617891004536
0.0003906618388340832
0.0003906619106646344
0.0003906616865895352
0.0003906617066743978
0.0003906617914379875
0.0003906616520800517
0.0003906616175909037
0.0003906616441509664
0.0004742838259003458
0.0004742838445888784
0.0004742838412620779
0.0004742838312216255
0.0004742838583775774
0.0004742838618781737
0.0004742839061066677
0.0004742838942690194
0.0004742839441376876
0.0004742839088355615
0.0004742841028638157
0.0004742838165042954
0.0004742839747924933
0.000474284133655915
0.000474283949843391
0.0004742841317929606
0.0004742840416032722
0.0004742839369927953
0.0004742841560256159
0.0004742839442024698
0.0004742841228976732
0.000474284091689722
0.0004742841739584212
0.0004742840759911435
0.0004742840320168551
0.0004742843016297401
0.0004742840461982215
0.0004742841792535069
0.0004742843397375976
0.0004742842632005825
0.0004742842120602469
0.0004742844042928888
0.0004742843265267174
0.0004742844605027408
0.0004742841681251887
0.0004742842921778791
0.0004742844570249833
0.0004742841750420894
0.0004742842847594728
0.0004742843147100373
0.0004742843344258934
0.0004742843051030858
0.000474284285864246
0.0004742844187214983
0.0004742841628998637
0.0004742842331064021
0.0004742844319160073
0.0004742842715475063
0.0004742842288497667
0.000474284058437996
0.0004742841207252307
0.0004742842320237912
0.0004742840607933907
0.0004742839467774104
0.000474284138956985
0.0004742839457190067
0.0004742839383812113
0.0004742838621674742
0.0005569521600397432
0.0005569522705258212
0.0005569521314663614
0.0005569521008061507
0.0005569522773405452
0.0005569522481283556
0.0005569523198556983
0.0005569522813623213
0.0005569523311244679
0.0005569522879568603
0.000556952522822629
0.0005569521256797601
0.0005569523195825049
0.0005569524942900289
0.000556952265661381
0.0005569525439459566
0.0005569522921620474
0.0005569523774236394
0.000556952537372952
0.000556952285948271
0.0005569525325069794
0.0005569525100568638
0.0005569525991996786
0.0005569524736092246
0.0005569523758230334
0.0005569527352778554
0.000556952349964908
0.0005569525256421652
0.0005569527336985664
0.0005569525908081586
0.0005569524663684978
0.0005569527658234619
0.0005569526949918901
0.0005569528387071543
0.0005569524405894104
0.0005569525890425816
0.0005569527788166138
0.0005569524624878837
0.0005569525872565847
0.0005569526006292796
0.0005569525920034726
0.0005569526031140084
0.0005569525549971328
0.0005569526938805852
0.0005569525400644302
0.0005569524340340532
0.0005569527469174229
0.0005569525953710794
0.0005569524611868155
0.000556952320101358
0.0005569523655721085
0.0005569525455798743
0.0005569523845120504
0.0005569522196284216
0.0005569525131377208
0.0005569522214867503
0.0005569522365583131
0.0005569521359104603
0.0006375543694593494
0.0006375544909676623
0.000637554331447614
0.0006375542709016614
0.0006375545093020526
0.0006375545022756813
0.0006375545531884123
0.0006375544951893226
0.000637554520532196
0.0006375544740248376
0.0006375547142614099
0.0006375543529321276
0.0006375545119111129
0.0006375546726073418
0.000637554411926507
0.0006375547469155488
0.000637554491819433
0.000637554651446829
0.0006375547106764499
0.0006375544744823132
0.0006375547586250242
0.0006375547347387413
0.0006375548387984607
0.0006375546747226674
0.0006375545401995326
0.0006375549632035992
0.0006375544829337362
0.0006375546921620682
0.0006375549587372706
0.0006375546410029518
0.0006375546681150751
0.0006375549682379354
0.0006375548779000094
0.0006375550372227545
0.0006375545596868907
0.0006375547095249199
0.0006375548846267441
0.0006375546870181454
0.0006375547807343824
0.0006375546432576604
0.0006375546715053989
0.0006375546716342445
0.0006375546640568243
0.0006375548283437694
0.000637554700325926
0.0006375545348283795
0.0006375548363025388
0.0006375548722539143
0.0006375544852755853
0.0006375545535285031
0.0006375543827297839
0.0006375547076643966
0.0006375545601299576
0.0006375543828545764
0.0006375547973112087
0.0006375542944021884
0.000637554414687046
0.0006375542197563884
0.0007174590964742853
0.0007174592288244055
0.0007174592255853057
0.0007174590424609801
0.0007174592863298642
0.0007174592900147377
0.0007174593374459603
0.0007174592541795917
0.0007174592304750389
0.0007174592074077799
0.000717459415168452
0.0007174591782445573
0.0007174592767896633
0.0007174594092131462
0.0007174591055782147
0.0007174594524553109
0.0007174593374093988
0.0007174594672094426
0.0007174594243060295
0.0007174592579438989
0.0007174595223050581
0.0007174594662874273
0.0007174596086090985
0.0007174593803133008
0.0007174592606628119
0.00071745971160855
0.0007174591693186496
0.000717459405720487
0.0007174597207234475
0.0007174592457441606
0.0007174593956279638
0.0007174597174376989
0.000717459600199352
0.0007174597869179733
0.0007174592482883704
0.0007174594050861846
0.0007174595612664094
0.000717459410456197
0.0007174594384544242
0.0007174593839543779
0.0007174595125617257
0.0007174592286039083
0.0007174593293447312
0.0007174595288417788
0.0007174594400375262
0.0007174592333972283
0.0007174593868797093
0.0007174596295528272
0.0007174590815889952
0.0007174593030767619
0.000717459055889264
0.0007174594273382195
0.0007174593015002021
0.0007174591670159789
0.0007174595869470784
0.0007174590027279891
0.0007174591589483568
0.0007174590208463594
0.0007998632918694837
0.0007998634982333609
0.0007998634907335683
0.0007998634655412434
0.0007998635629134995
0.0007998635788727278
0.0007998636263481764
0.0007998635133298308
0.0007998633405063715
0.0007998634269286273
0.0007998636246755856
0.0007998634343118877
0.0007998635660460174
0.000799863624671191
0.0007998633322921864
0.000799863720113411
0.0007998635913229342
0.0007998637661391225
0.0007998636422261676
0.0007998636833193324
0.0007998638014391348
0.0007998635689855279
0.0007998638846978695
0.0007998634670114748
0.0007998635914379836
0.0007998639420702596
0.0007998633776665253
0.0007998636443251496
0.0007998639526135429
0.0007998634499330075
0.0007998636626713739
0.0007998640289309434
0.0007998637346392939
0.000799864035265383
0.000799863486458254
0.000799863646151447
0.0007998637845435672
0.0007998636428176932
0.0007998636468691126
0.000799863600656048
0.0007998637330771148
0.000799863542423436
0.0007998634407098644
0.0007998637559757242
0.000799863722882963
0.0007998634929785076
0.0007998635590839214
0.0007998638359385027
0.0007998633232836656
0.0007998635967806118
0.0007998633426751786
0.0007998636525038283
0.0007998634938454879
0.000799863624562909
0.0007998638590773144
0.0007998632682992997
0.0007998634062677458
0.0007998634453373652
0.0008908313918794325
0.0008908315169736623
0.0008908315463812701
0.0008908315661185388
0.0008908315864699295
0.0008908316123706697
0.0008908316037828769
0.0008908313027269586
0.0008908314774175607
0.0008908313072623159
0.0008908315703084238
0.0008908314151093599
0.0008908315834673879
0.0008908315710142214
0.000890831348474733
0.0008908317351396101
0.0008908316182743302
0.0008908317964260532
0.0008908316561568706
0.0008908317289505174
0.0008908317520497995
0.0008908315107496818
0.0008908318326760617
0.000890831432173796
0.0008908315812171253
0.0008908318845544185
0.0008908313592269156
0.0008908316505576494
0.0008908319015825402
0.0008908314716146557
0.0008908317005243972
0.0008908319385593859
0.0008908318166833329
0.0008908320295503386
0.0008908315238419142
0.0008908317076490197
0.0008908317817727164
0.000890831671751793
0.0008908316458176845
0.0008908315985545769
0.0008908317663897116
0.0008908316204612912
0.0008908314791284099
0.0008908317833855653
0.0008908318046601002
0.000890831764544643
0.0008908316050091231
0.0008908317797684752
0.000890831516931859
0.0008908317008968257
0.0008908316246185535
0.000890831495037501
0.0008908317477480291
0.0008908317672605891
0.0008908318304699378
0.0008908315334232381
0.0008908314314155413
0.0008908314028328485
0.001006200923752478
0.001006200769672524
0.00100620087049816
0.001006200881095992
0.001006200843555851
0.001006200920973003
0.001006200657438504
0.00100620054896198
0.00100620068783483
0.001006200696773371
0.001006200643508495
0.001006200557552068
0.001006200847389372
0.001006200764795045
0.001006200785412891
0.001006201049987564
0.001006200943405193
0.001006201103721712
0.001006200951355929
0.00100620097619316
0.001006200941877218
0.001006200759045737
0.001006200984271619
0.001006200795345098
0.00100620070636501
0.001006201035827881
0.001006200635933143
0.001006200890354185
0.001006201113274067
0.001006200836725456
0.001006200995847328
0.001006201313088387
0.001006201046415091
0.001006201333396354
0.001006200942629193
0.001006201090379919
0.001006201209768884
0.001006201105417535
0.001006201084791119
0.001006201003518012
0.001006201329156285
0.001006201160933092
0.001006201094292308
0.001006201368681803
0.00100620137439752
0.001006201392690141
0.001006201320112938
0.001006201320769217
0.001006201183381137
0.001006201311236765
0.001006201303873059
0.001006201113251003
0.001006201401943709
0.00100620131590837
0.001006201264688737
0.001006201073041137
0.001006201008827546
0.001006200919121123
0.001175355867297716
0.001175355882751999
0.001175355868510702
0.001175355825800152
0.001175355728585263
0.001175355785917437
0.001175355459291602
0.001175355534303463
0.001175355485672378
0.001175355564818203
0.001175355540441535
0.001175355455335787
0.001175355720147497
0.001175355716430012
0.00117535577690609
0.001175355985243354
0.001175355921877258
0.001175356037374129
0.00117535591092339
0.001175355890123185
0.001175355833678542
0.001175355706163474
0.001175355807950927
0.001175355727637322
0.001175355609594889
0.001175355834508017
0.001175355593944219
0.001175355807406685
0.001175355976466738
0.001175355926933398
0.001175355914800946
0.001175356257063986
0.001175356028308832
0.001175356284949333
0.001175356055692328
0.001175356193311267
0.001175356271860958
0.001175356132705945
0.001175356231398516
0.001175356184026451
0.001175356543714872
0.001175356321294932
0.001175356442248602
0.001175356593672059
0.001175356614330099
0.001175356662600564
0.001175356505976504
0.001175356465575951
0.001175356433359029
0.001175356553996398
0.001175356514224405
0.001175356486895018
0.001175356690387768
0.001175356416097959
0.001175356310616473
0.001175356319936785
0.001175356129220017
0.00117535599684459
0.001412132554271361
0.001412132539872768
0.001412132445974727
0.001412132331829299
0.001412132216093631
0.001412132212585207
0.001412131987685649
0.001412132000196317
0.001412132013421797
0.001412132005672012
0.001412132021485199
0.001412131977918761
0.001412132224364443
0.001412132242677765
0.001412132326397757
0.001412132523897673
0.00141213251224153
0.001412132597567016
0.001412132510729707
0.001412132450419894
0.001412132355127596
0.001412132326849895
0.001412132212018049
0.001412132243117998
0.001412132206593727
0.001412132257794195
0.001412132158273217
0.001412132315566224
0.001412132495568577
0.001412132542610632
0.001412132511988292
0.001412132760654291
0.001412132680801897
0.001412132863365668
0.001412132817486452
0.001412132909862461
0.001412132869781944
0.001412132940078025
0.001412132998061524
0.001412133036100188
0.001412133350017204
0.001412133155333816
0.001412133327072481
0.001412133422142286
0.001412133436595007
0.00141213344784696
0.001412133390916451
0.00141213340029402
0.001412133419692409
0.001412133377363694
0.001412133422963193
0.00141213343913591
0.001412133523018237
0.001412133193790584
0.001412133113438677
0.001412133127892818
0.001412132918387028
0.001412132694427169
0.001733824513373528
0.001733824498393529
0.001733824287085799
0.001733824169465526
0.001733823962236916
0.001733823872021749
0.001733823694164741
0.001733823655434162
0.001733823654989898
0.001733823611812398
0.0017338236478628
0.001733823663293531
0.001733823905796479
0.001733823957792957
0.001733824133282565
0.0017338242540323
0.001733824269673602
0.001733824354638586
0.001733824316306069
0.00173382419116019
0.001733824094906146
0.001733824028053902
0.001733823914531039
0.001733823918426142
0.001733823889564022
0.001733823902062407
0.001733823917603142
0.001733824058253269
0.001733824211629742
0.001733824262755096
0.001733824317418623
0.00173382453591139
0.001733824544469527
0.001733824688931542
0.001733824663204629
0.001733824769812328
0.00173382481252102
0.001733824902531513
0.001733824943497764
0.00173382510088976
0.001733825331484169
0.001733825241094353
0.001733825425877445
0.001733825446815455
0.001733825509920451
0.001733825442082999
0.001733825486101209
0.001733825500352521
0.001733825535883785
0.001733825552052437
0.001733825542987902
0.001733825601013714
0.0017338255166446
0.001733825276561529
0.00173382516812211
0.001733825094278694
0.001733824912006098
0.001733824684872484
0.002158277020728799
0.00215827697769289
0.002158276668553913
0.002158276555888836
0.002158276255602419
0.002158276124070313
0.002158275894409614
0.00215827577286308
0.002158275730205969
0.002158275669196295
0.002158275776904655
0.002158275797271398
0.002158276076445679
0.002158276171580626
0.002158276410765153
0.002158276505106839
0.002158276573533849
0.002158276611511767
0.002158276588417177
0.002158276490101446
0.002158276353029532
0.002158276287637713
0.002158276111612131
0.002158276090452664
0.002158276016332098
0.002158276036882591
0.002158276145792386
0.002158276265376486
0.002158276412113811
0.002158276528358988
0.002158276585597147
0.00215827682095688
0.002158276887794198
0.002158277020257129
0.002158277074508436
0.002158277208352887
0.002158277296305675
0.002158277353259674
0.002158277456370926
0.002158277648708409
0.002158277839396258
0.002158277807315708
0.00215827797855828
0.002158278013993842
0.002158278048211218
0.002158278038947223
0.002158278088082537
0.002158278085202064
0.002158278157485226
0.002158278157685193
0.002158278194674823
0.002158278215084998
0.00215827811390177
0.002158277891347731
0.002158277711267412
0.002158277646327694
0.002158277443447287
0.002158277219792551
0.00269908064400543
0.00269908057701064
0.002699080194779079
0.002699080054824184
0.002699079653188909
0.002699079475414042
0.002699079170145644
0.002699078983636732
0.002699078920209504
0.002699078822900711
0.00269907896155333
0.002699078970270301
0.00269907930919071
0.002699079439522103
0.002699079730804864
0.002699079851342463
0.002699079927711117
0.002699079961053286
0.002699079961499608
0.002699079868208231
0.002699079688064344
0.002699079614075917
0.002699079369637146
0.002699079313576114
0.002699079223451349
0.002699079228471269
0.00269907937734624
0.002699079495489843
0.002699079686252816
0.002699079843439578
0.002699079943519493
0.002699080196571174
0.002699080314791038
0.002699080478632312
0.002699080576859679
0.002699080757412833
0.002699080854093146
0.00269908091838557
0.002699081039381283
0.002699081248828799
0.002699081439753555
0.002699081436356563
0.002699081614177071
0.002699081661509529
0.002699081706144535
0.002699081729522907
0.002699081799159697
0.002699081790758861
0.002699081887516472
0.002699081885361144
0.002699081954123175
0.002699081942691938
0.002699081844626087
0.00269908162222267
0.00269908138597623
0.002699081326250386
0.002699081085450885
0.00269908088863808
0.003360683117936531
0.003360682989943047
0.003360682530566186
0.003360682358786698
0.003360681852428339
0.00336068162442854
0.003360681231085381
0.003360680985749682
0.003360680893060549
0.003360680771853483
0.003360680902303622
0.003360680895928213
0.003360681284362747
0.003360681439505098
0.003360681804865645
0.003360681968808709
0.003360682090913018
0.003360682127760453
0.003360682131648334
0.003360682020106335
0.003360681812048539
0.003360681721500002
0.003360681419060792
0.003360681325855974
0.003360681206490955
0.003360681189040537
0.003360681343131424
0.003360681457751295
0.003360681714491434
0.003360681895127933
0.00336068208487299
0.00336068235986802
0.003360682506050542
0.003360682721298163
0.003360682855240686
0.003360683088353164
0.003360683199486889
0.003360683264572295
0.003360683389617506
0.00336068359282169
0.003360683801095821
0.00336068381890646
0.003360684021389486
0.003360684080701466
0.003360684167951844
0.003360684209745941
0.003360684309927104
0.003360684303186731
0.003360684421439524
0.003360684425405261
0.003360684512243721
0.003360684494371183
0.003360684409251833
0.003360684181440884
0.003360683887124435
0.003360683804137778
0.003360683541180944
0.003360683357383045
0.004134957047639267
0.004134956871118299
0.004134956327256363
0.004134956115952083
0.00413495549730827
0.004134955218379825
0.004134954748269688
0.004134954449593969
0.004134954321935213
0.004134954204647034
0.004134954285741093
0.004134954247610814
0.004134954657450494
0.004134954841532326
0.004134955236664459
0.004134955489270234
0.004134955660302021
0.00413495570465831
0.004134955713800494
0.004134955566786221
0.004134955343314566
0.004134955235293124
0.004134954892815607
0.004134954760632644
0.004134954608549063
0.00413495457718176
0.004134954694833324
0.004134954804288768
0.004134955133980568
0.004134955333764696
0.004134955571246617
0.004134955903789731
0.004134956076225076
0.004134956362997161
0.004134956520209716
0.004134956817907384
0.004134956949355687
0.004134957034504986
0.004134957136833576
0.004134957320967124
0.004134957542413994
0.00413495759798909
0.004134957826606549
0.004134957892634938
0.004134958043519461
0.004134958087406231
0.004134958234360929
0.004134958246676555
0.004134958370353129
0.004134958392340678
0.004134958503534903
0.004134958495654379
0.00413495842280724
0.004134958210769504
0.004134957840771085
0.004134957708415281
0.004134957432021366
0.004134957260226192
0.005009768307141787
0.005009768069352015
0.005009767412495749
0.005009767179878499
0.005009766435101868
0.005009766121858212
0.005009765583188646
0.005009765248967001
0.005009765078006391
0.005009764969788002
0.005009765011124297
0.005009764963348083
0.005009765295431453
0.005009765552360207
0.005009765918276806
0.005009766262878486
0.005009766534040678
0.005009766538041947
0.005009766598962965
0.005009766383267482
0.005009766150058044
0.005009766007852536
0.005009765679391183
0.005009765511259793
0.005009765322234458
0.005009765279283253
0.005009765348921019
0.00500976544131275
0.005009765824502111
0.005009766066051692
0.005009766292651687
0.005009766699640686
0.005009766887043464
0.005009767258736589
0.005009767421225952
0.005009767779599222
0.005009767991632255
0.005009768050146726
0.005009768150011289
0.005009768315504082
0.0050097685200895
0.00500976861388425
0.005009768910376912
0.005009768949354169
0.005009769190447799
0.005009769234688189
0.005009769425495145
0.005009769476683791
0.005009769590997416
0.005009769641462764
0.005009769816658995
0.005009769790686607
0.005009769740380064
0.005009769614254075
0.005009769136239448
0.005009768936636867
0.005009768656896619
0.005009768441003007
0.00596550404874893
0.005965503767740702
0.005965502963756196
0.005965502707199167
0.005965501805717974
0.005965501469895675
0.005965500959265591
0.005965500568617576
0.005965500429966926
0.005965500311107746
0.005965500334923273
0.005965500243620509
0.005965500441457435
0.005965500813764716
0.005965501057071385
0.00596550141239839
0.005965501923631438
0.005965501816413932
0.005965501894153569
0.005965501597108087
0.005965501368248198
0.005965501143140164
0.005965500949294149
0.005965500746007733
0.00596550049742102
0.00596550044445778
0.005965500507092694
0.005965500592185202
0.005965500933205983
0.005965501343114563
0.005965501492126176
0.005965502003379925
0.005965502162175697
0.005965502665447437
0.005965502773709407
0.005965503139582636
0.00596550353285441
0.0059655035336196
0.005965503597283404
0.005965503794696172
0.00596550393900311
0.005965504021380724
0.005965504508812784
0.005965504511764117
0.005965504765610545
0.005965504908795991
0.005965505082994201
0.005965505322892103
0.005965505277925249
0.005965505368433942
0.005965505700301671
0.005965505512709392
0.0059655055969446
0.005965505653651583
0.005965504982770731
0.005965504694146882
0.0059655044659198
0.005965504173917865
0.006928800630240432
0.006928800152159016
0.006928799196400582
0.006928798777678388
0.006928797907763016
0.006928797486164372
0.006928797153956734
0.006928796615800375
0.006928796525890694
0.006928796426473638
0.006928796539028197
0.006928796179855942
0.006928796457238796
0.006928797055799735
0.006928796968716719
0.006928797230585532
0.006928798003962477
0.006928797886315912
0.006928798063848099
0.006928797411010409
0.006928797305741026
0.006928796883999657
0.006928796826644868
0.00692879685248154
0.006928796465742675
0.006928796119889572
0.006928796415716483
0.006928796487308863
0.006928796739289369
0.006928797482481072
0.006928797515379614
0.006928798109794044
0.006928798304474936
0.006928798767426909
0.006928798965402072
0.00692879916766887
0.006928799840650601
0.006928799478868873
0.006928799772153739
0.006928800101530666
0.006928800178997882
0.006928800210048667
0.0069288009281018
0.006928800739643057
0.006928800973506552
0.006928801537022163
0.006928801712711139
0.006928801932694876
0.006928801835720348
0.006928801798675796
0.006928802306209624
0.006928802167735845
0.006928802089031228
0.006928802573078389
0.006928801594792705
0.006928801235911621
0.006928801071175566
0.006928801004452577
0.007844265325178811
0.007844264703298022
0.00784426324046301
0.007844262733921532
0.00784426195276193
0.007844261902823791
0.007844261236921052
0.007844260549507071
0.007844260391436273
0.007844260417002175
0.007844260622086336
0.007844260246276996
0.007844260142623806
0.007844261046018671
0.007844261082228729
0.007844261273484731
0.007844262009905361
0.007844261812703779
0.007844262043292799
0.00784426127365768
0.007844261455074854
0.007844260718264601
0.00784426050475275
0.007844260577979368
0.007844260621084244
0.007844259651541112
0.007844260130504974
0.007844260733685448
0.007844260774350888
0.007844261641382747
0.007844261183086934
0.007844262128718485
0.007844262378933323
0.007844262282197355
0.0078442635552021
0.007844263155220353
0.007844263877342245
0.007844263598401282
0.007844263471941499
0.007844264179247516
0.007844264247969688
0.007844263931178571
0.007844265004992882
0.007844265085573399
0.007844264934321219
0.007844265911270994
0.007844266092066836
0.007844266458370606
0.00784426587586977
0.007844266216744051
0.007844266768638343
0.007844266493662173
0.007844266369029818
0.007844267159453857
0.007844266251053432
0.007844265801249636
0.00784426552372686
0.007844265549008585
0.008694017317440586
0.008694017759630525
0.008694015438515557
0.008694014685204622
0.008694014016063
0.008694013907616203
0.008694013787069452
0.008694012501684676
0.008694012671780653
0.008694011954346889
0.008694012824520706
0.008694011602012811
0.008694012140556829
0.008694013034852044
0.008694012916594582
0.008694013167352714
0.00869401401859915
0.008694013451066898
0.008694013843345181
0.008694013096278217
0.008694013172598292
0.008694012353045217
0.008694011990541288
0.008694012218154057
0.008694012337701503
0.008694011277433168
0.008694011833087692
0.008694012793138025
0.008694012307562091
0.008694013520686035
0.00869401290953776
0.008694014030270815
0.008694014149165588
0.008694014007541488
0.008694015679560818
0.008694014999511033
0.008694015734334752
0.008694015307493015
0.008694015081667242
0.008694016022329087
0.008694015815504458
0.008694015539223157
0.008694016892054788
0.008694016868677676
0.008694016560558918
0.008694017967976657
0.008694018106356075
0.008694018496576288
0.008694018146052274
0.008694018024906349
0.008694018965293024
0.008694018576440551
0.008694018367043879
0.008694019252842682
0.008694018731353137
0.008694018670684497
0.008694017605302373
0.008694017840815475
0.009474829685344178
0.009474830421480888
0.009474827646416654
0.009474827303504494
0.009474827038494371
0.009474826291384441
0.009474826162969685
0.009474824704152238
0.009474824735450447
0.009474823913036992
0.00947482508516713
0.009474823424115012
0.009474824169128801
0.009474825329967374
0.009474824393591036
0.009474825191275089
0.009474826342656799
0.009474824941506877
0.00947482549520029
0.009474825678739291
0.009474824323742265
0.009474824359901199
0.009474823646981033
0.00947482415080236
0.009474823842884549
0.009474823500103093
0.009474823588694191
0.009474824747392094
0.009474824153517003
0.009474825518917944
0.009474824838796846
0.009474826123598465