/*--------------------------------*- C++ -*----------------------------------*\
| =========                 |                                                 |
| \\      /  F ield         | OpenFOAM: The Open Source CFD Toolbox           |
|  \\    /   O peration     | Version:  v1812                                 |
|   \\  /    A nd           | Web:      www.OpenFOAM.com                      |
|    \\/     M anipulation  |                                                 |
\*---------------------------------------------------------------------------*/
FoamFile
{
    version     2.0;
    format      ascii;
    class       volScalarField;
    location    "10000";
    object      nuTilda;
}
// * * * * * * * * * * * * * * * * * * * * * * * * * * * * * * * * * * * * * //

dimensions      [0 2 -1 0 0 0 0];


internalField   nonuniform List<scalar> 
3770
(
0.0004955735297890916
0.0004955735572263549
0.0004955735529506482
0.0004955735535530318
0.0004955735530068184
0.0004955735528158068
0.0004955735527996156
0.0004955735522926007
0.0004955735522826701
0.0004955735541359843
0.0004955735507111964
0.0004955735531203964
0.0004955735522098563
0.0004955735522910133
0.0004955735523666096
0.0004955735525803139
0.0004955735527450821
0.0004955735525865511
0.0004955735514901099
0.0004955735542788671
0.0004955735521652687
0.000495573553346048
0.0004955735530314118
0.0004955735524457605
0.0004955735527519009
0.0004955735515983834
0.000495573552780109
0.0004955735514938676
0.0004955735533936927
0.0004955735519693717
0.0004955735545964679
0.0004955735480612159
0.0004955735536707604
0.0004955735532861142
0.0004955735542125788
0.0004955735522686697
0.0004955735535847029
0.0004955735536307536
0.0004955735535674227
0.0004955735529944653
0.0004955735524154368
0.0004955735542738133
0.0004955735535127148
0.0004955735525925781
0.0004955735536767166
0.0004955735537300882
0.0004955735528825796
0.0004955735552502815
0.0004955735521247007
0.0004955735542706487
0.0004955735538581961
0.0004955735542136131
0.0004955735542869912
0.0004955735545430429
0.0004955735542992438
0.0004955735543908977
0.0004955735527481704
0.0004955735504964531
0.0002946126419229621
0.0002946123764569456
0.0002946124440499982
0.0002946123987718597
0.0002946124023459378
0.0002946123869712721
0.0002946123768900791
0.0002946123773685523
0.0002946123810138584
0.0002946124047228011
0.0002946123912375775
0.000294612420082996
0.0002946124143912161
0.0002946124309230371
0.0002946124390626326
0.0002946124426756645
0.0002946124395382135
0.0002946124320134597
0.0002946124400257906
0.0002946124392723243
0.0002946124249158559
0.0002946124145350542
0.0002946124182270161
0.0002946124147340551
0.000294612422384453
0.0002946124302798002
0.0002946124401875725
0.000294612444651964
0.0002946124696367382
0.0002946124649779596
0.0002946124799196022
0.0002946124714136085
0.0002946124993488563
0.0002946125047655289
0.0002946125133634083
0.0002946125049544983
0.0002946125181001773
0.0002946125107572889
0.0002946125215539867
0.0002946125178439265
0.0002946125172307481
0.0002946125270713883
0.0002946125147398755
0.0002946125217798473
0.0002946125182166748
0.0002946125180498843
0.0002946125215486773
0.0002946125234218438
0.0002946125119701518
0.0002946125060335175
0.0002946125182338405
0.0002946125035681696
0.0002946124892728267
0.0002946124786588157
0.0002946124880212602
0.0002946124984653013
0.000294612506136528
0.0002946125546048491
0.0003144618459513312
0.0003144611197382224
0.0003144614363145675
0.00031446123749108
0.0003144612717824856
0.0003144612353530045
0.000314461195391032
0.0003144612003524417
0.000314461224490949
0.0003144612905189242
0.0003144612639245774
0.0003144613492814597
0.0003144613303844111
0.0003144613890632527
0.0003144614319794069
0.0003144614347002086
0.000314461414205344
0.0003144614016025193
0.0003144614203790923
0.0003144613877631702
0.0003144613799079847
0.0003144613403651128
0.0003144613658780243
0.000314461342387272
0.0003144613610102474
0.0003144614012985488
0.0003144614305815954
0.0003144614468643369
0.0003144615457217215
0.0003144615186354798
0.0003144615681769034
0.0003144615691890026
0.0003144616622225149
0.0003144616761663813
0.0003144616943150353
0.0003144616635809929
0.0003144617036591035
0.0003144616860021027
0.0003144617116877746
0.0003144617018021457
0.0003144617265882391
0.0003144617471255286
0.0003144616840727634
0.0003144617285930251
0.0003144617150893133
0.0003144616911281488
0.0003144617284234982
0.0003144617108748014
0.0003144616703851141
0.0003144616608332102
0.0003144616766387645
0.0003144616273640941
0.0003144615886074417
0.0003144615465945661
0.0003144615843832575
0.0003144616175940889
0.0003144616372625275
0.0003144618175341763
0.000390662402261601
0.0003906622332358574
0.0003906623763920995
0.0003906622188451193
0.0003906623151858536
0.0003906622981155193
0.0003906622587797621
0.0003906622445526542
0.0003906623251175528
0.0003906623512586025
0.0003906623897846331
0.0003906624097396274
0.0003906623634920059
0.0003906624881000438
0.0003906624727955121
0.0003906625568062201
0.0003906624031821781
0.0003906624352198657
0.0003906624885506752
0.0003906624442175899
0.0003906624789486274
0.0003906624628504117
0.000390662523678376
0.000390662451213064
0.0003906624428331795
0.0003906625710366344
0.0003906625812019503
0.0003906625325578475
0.0003906627479331603
0.0003906625815420081
0.0003906626941672354
0.0003906627305519648
0.0003906627879293968
0.0003906628176274353
0.0003906627839286998
0.0003906626918191156
0.0003906628228008661
0.0003906627472602882
0.0003906628061135255
0.0003906627644406133
0.0003906628284897019
0.0003906628020230618
0.0003906627337463723
0.0003906628350080343
0.0003906627850630235
0.0003906626985572994
0.0003906628783913928
0.0003906627649266274
0.000390662639336358
0.0003906627086797493
0.0003906625961564101
0.0003906626976569799
0.0003906625637467346
0.0003906624842284244
0.000390662605840031
0.0003906625553366867
0.0003906625299661343
0.0003906625909518088
0.0004742848856439861
0.0004742849588584943
0.0004742848627863768
0.0004742849001060411
0.0004742850179669695
0.0004742848831152079
0.0004742849883183937
0.0004742849747981761
0.0004742850244227106
0.0004742850421835671
0.0004742851206688487
0.0004742850442724564
0.0004742849777312289
0.0004742851586264183
0.0004742850962564562
0.0004742852370907227
0.0004742850189670893
0.0004742850676757852
0.0004742851632047037
0.0004742850929545775
0.0004742851898473147
0.0004742851979564526
0.0004742853047752785
0.0004742850561804991
0.0004742851687127974
0.0004742853204628033
0.0004742852581800267
0.000474285180276096
0.00047428548864321
0.0004742851955975639
0.0004742853531280673
0.0004742854211655738
0.000474285474744998
0.0004742854996316517
0.0004742853995713161
0.0004742852673818815
0.0004742854709519252
0.0004742853685142818
0.0004742854345190258
0.0004742853175779791
0.0004742854551756558
0.0004742853227149891
0.0004742853862058458
0.0004742854765750143
0.0004742853568901317
0.0004742852634510927
0.000474285524565322
0.0004742854026801923
0.0004742851544932436
0.0004742852884004492
0.000474285104788215
0.0004742853617997083
0.0004742850229731115
0.0004742850838774678
0.000474285203279483
0.0004742851126012611
0.0004742850098066826
0.0004742849732324525
0.0005569533503220781
0.0005569535910616236
0.0005569534413750842
0.000556953475912198
0.0005569536134104884
0.0005569535647762427
0.0005569536420981174
0.0005569536111848489
0.0005569536334967737
0.0005569536475262208
0.0005569537559228397
0.0005569536262675635
0.0005569535257837594
0.0005569537444038254
0.0005569536479169405
0.0005569538120839877
0.0005569536980482098
0.0005569536117353972
0.0005569537606235554
0.0005569536943038903
0.0005569538312802997
0.0005569538500803409
0.0005569539866032864
0.0005569536034870957
0.0005569537830072099
0.0005569539667568158
0.0005569538359359631
0.0005569537351409239
0.0005569541003736144
0.0005569537507482298
0.0005569538826788747
0.0005569540307430014
0.0005569540599118912
0.0005569540924476386
0.0005569539364783492
0.0005569537628538916
0.0005569540285222256
0.0005569538873354483
0.0005569539479446698
0.0005569538885579505
0.0005569539282805602
0.0005569538900898559
0.0005569539129118018
0.000556954059808995
0.0005569537472184406
0.0005569538327120722
0.000556954067989446
0.0005569538721672261
0.0005569536239948958
0.0005569537976467711
0.0005569535823351205
0.000556953932444259
0.0005569535040713209
0.0005569536260986027
0.0005569537680507163
0.000556953566135053
0.0005569535619027676
0.0005569535509270387
0.0006375556850400897
0.0006375560246575578
0.0006375557737283475
0.0006375558812345103
0.0006375560526709693
0.0006375559784630302
0.0006375560933853699
0.0006375560126039939
0.0006375560016034063
0.0006375560309520523
0.0006375561514614263
0.0006375560415524173
0.0006375558800935798
0.0006375561166053592
0.0006375559995910567
0.000637556196821553
0.0006375561166276675
0.00063755607799633
0.000637556122000845
0.000637556098086974
0.0006375562496681111
0.0006375562694756673
0.0006375564208526444
0.0006375559592734343
0.0006375561654645361
0.000637556372225903
0.0006375561984873625
0.0006375560659253092
0.0006375564456914793
0.0006375562129909732
0.0006375561365738095
0.0006375564084192088
0.0006375564383560495
0.0006375564739600489
0.0006375562772999979
0.0006375560571798324
0.0006375563485756329
0.0006375562409709184
0.0006375562690549646
0.0006375562040380083
0.0006375562435560354
0.0006375562015081449
0.0006375561972387559
0.0006375564133465717
0.0006375560333756713
0.0006375561825608809
0.0006375562908109601
0.0006375562880415095
0.0006375559900454815
0.0006375561074980184
0.0006375559703594577
0.0006375562879329023
0.0006375558481383606
0.0006375560012501593
0.0006375561671502698
0.0006375558655714108
0.0006375559323025555
0.0006375559296459063
0.0007174606175805621
0.0007174609606066965
0.0007174606678672497
0.0007174608500900059
0.0007174610420668316
0.0007174607910056241
0.0007174610559335252
0.0007174608862135579
0.0007174607830381194
0.000717460884225506
0.0007174610335564697
0.0007174609666095336
0.0007174607715555931
0.0007174609877992694
0.0007174608731031743
0.0007174610875388701
0.0007174610374932678
0.0007174611331322964
0.0007174609283190769
0.0007174610066376164
0.0007174611600163634
0.00071746115377624
0.0007174613187711308
0.0007174608573915808
0.0007174610261703897
0.000717461263352378
0.0007174610797774936
0.0007174609085172105
0.0007174613251525463
0.0007174611018889518
0.0007174609772005594
0.0007174613097757218
0.0007174613106325372
0.0007174613654928686
0.0007174611626081183
0.0007174608824992867
0.0007174612063855597
0.0007174611044325057
0.0007174610913378406
0.0007174610692826485
0.0007174611528017583
0.0007174610003068984
0.0007174609149467948
0.0007174612709775486
0.0007174609052000474
0.0007174610767565546
0.0007174609218884439
0.0007174611629259068
0.0007174608426223325
0.0007174609968519923
0.0007174608398523927
0.0007174611482056699
0.0007174607852169243
0.0007174608979349645
0.0007174610808635952
0.0007174607431585404
0.0007174608217063236
0.0007174608276320712
0.0007998651190025095
0.0007998653196257246
0.000799865059013291
0.0007998652845908084
0.0007998653990749366
0.0007998651634742079
0.0007998653871162314
0.0007998650988046583
0.0007998652485736301
0.0007998650973563299
0.0007998653413998902
0.000799865307983237
0.0007998651817334411
0.0007998652869020634
0.0007998652195462082
0.0007998654441096028
0.0007998653983275941
0.0007998654877261561
0.0007998654202658193
0.000799865291957924
0.0007998655000811761
0.0007998654392369701
0.0007998656050366678
0.0007998653480583186
0.0007998652380601259
0.0007998655828648228
0.0007998654308626346
0.0007998652139707438
0.000799865664238958
0.0007998654602002735
0.0007998653207490779
0.0007998656531118544
0.0007998656376352452
0.0007998657146141306
0.0007998655336592395
0.0007998652133167188
0.0007998655378513838
0.0007998654629549695
0.0007998653523644008
0.0007998654040930959
0.0007998655438315081
0.0007998651455495607
0.0007998653117335553
0.0007998655953666646
0.0007998653037376901
0.0007998654047353623
0.0007998651909993254
0.0007998654807033981
0.0007998652183881018
0.0007998653988652339
0.0007998651771082228
0.0007998654406037087
0.0007998653835588801
0.0007998651909168491
0.0007998654449584457
0.0007998651415874437
0.000799865140674537
0.0007998651908099804
0.000890833280685489
0.000890833300185162
0.000890833164542929
0.0008908332130439492
0.0008908332022428454
0.0008908333384819893
0.0008908331239206522
0.0008908331478258482
0.000890833250801535
0.0008908331879118521
0.0008908332239121242
0.0008908332262803588
0.0008908333404975797
0.0008908331286623049
0.0008908332077031823
0.000890833436714378
0.0008908334003610167
0.0008908334739732751
0.0008908334168780434
0.0008908333706929709
0.0008908334183036876
0.0008908333942581031
0.0008908335419907122
0.0008908333274590488
0.0008908331866188308
0.0008908335035943068
0.0008908334245279179
0.0008908331756281991
0.0008908336299200224
0.0008908334691201339
0.0008908333452254913
0.0008908335945433005
0.0008908336508116271
0.0008908336964336591
0.0008908335691339252
0.0008908332769830541
0.0008908335585580475
0.0008908335164031644
0.0008908331660200667
0.000890833396593247
0.000890833547362478
0.0008908331709720856
0.0008908333756045554
0.0008908335742083628
0.0008908335401630281
0.000890833315370859
0.0008908333695124832
0.0008908334598765851
0.0008908333393283252
0.0008908335476747526
0.0008908331324125827
0.0008908334625707277
0.0008908335811799398
0.0008908332296502848
0.0008908334619947828
0.0008908331963867112
0.0008908331783068553
0.0008908331245157575
0.001006201997363101
0.001006202046442297
0.001006202011351913
0.001006201987336383
0.001006201991821144
0.001006202050593003
0.001006201720602525
0.001006201806299615
0.001006201882845922
0.001006201922993387
0.001006201659034872
0.001006201832307858
0.001006201997024997
0.001006201955515176
0.001006201846906389
0.00100620215397106
0.001006202117386556
0.001006202192581071
0.001006202112480475
0.001006202151395106
0.001006201937472009
0.001006202038240964
0.001006202183693567
0.00100620182682402
0.001006201917377342
0.00100620209881121
0.001006202014006128
0.001006201880139606
0.001006202252526835
0.001006202130507953
0.001006202072606876
0.001006202307864723
0.001006202294553283
0.001006202414957918
0.001006202296576807
0.001006202080040961
0.001006202361277498
0.00100620235891327
0.001006202074152316
0.001006202285813288
0.001006202487610332
0.001006202219510343
0.001006202369696477
0.00100620260739922
0.001006202387721864
0.001006202474997104
0.001006202439437744
0.001006202446281352
0.001006202402689985
0.001006202564241021
0.001006202225967711
0.001006202456439716
0.001006202607347724
0.001006202245920197
0.001006202287707445
0.001006202227534658
0.00100620199052739
0.001006202050997328
0.001175356568599842
0.001175356691192697
0.00117535651147636
0.001175356439704359
0.001175356488858396
0.00117535644707803
0.001175356262255455
0.001175356274116895
0.001175356285545665
0.001175356336168835
0.001175356118074457
0.001175356285233917
0.001175356457239193
0.001175356462569416
0.001175356398775688
0.001175356660375064
0.001175356650107125
0.001175356723721503
0.001175356640967651
0.001175356563944154
0.001175356429614038
0.001175356514412732
0.001175356582053469
0.001175356313092561
0.001175356410802058
0.001175356499017981
0.001175356472623313
0.001175356409044851
0.001175356711627649
0.001175356628898077
0.001175356702628311
0.001175356810121071
0.001175356818397064
0.001175356946444501
0.001175356894896681
0.001175356765602104
0.001175356957173437
0.001175356931031961
0.001175356918449033
0.001175357013350748
0.001175357207074324
0.001175357116319201
0.001175357135897292
0.001175357390291484
0.00117535719256065
0.001175357337529202
0.001175357253647802
0.001175357144333927
0.001175357244551357
0.001175357356097286
0.001175357111236769
0.001175357302469505
0.001175357365784533
0.001175357010272975
0.001175357047688967
0.001175357069380227
0.001175356707505684
0.001175356614117316
0.001412132914068963
0.001412132978489693
0.001412132813055906
0.001412132707655919
0.00141213272317587
0.001412132558889689
0.001412132524606132
0.001412132394307085
0.001412132452430169
0.001412132442850535
0.001412132393578721
0.001412132492593824
0.001412132680184874
0.001412132612293581
0.001412132707356558
0.001412132901123649
0.00141213291010954
0.001412132974510233
0.001412132818829065
0.001412132810783241
0.001412132739984562
0.001412132693993282
0.001412132689350647
0.001412132626435859
0.001412132641424785
0.001412132643390347
0.001412132681668839
0.001412132664588151
0.00141213291428785
0.001412132899583806
0.001412132992769513
0.001412133041538796
0.001412133132314682
0.00141213324102638
0.001412133244499004
0.001412133252412033
0.001412133314929796
0.001412133355831744
0.001412133373890343
0.001412133487996131
0.001412133704738087
0.00141213368021268
0.001412133712630561
0.001412133874262458
0.001412133761954552
0.001412133844227577
0.001412133830001882
0.001412133768414043
0.001412133849816983
0.001412133884596807
0.001412133799586387
0.001412133849372637
0.001412133839588565
0.0014121335687449
0.001412133544328995
0.001412133540750067
0.001412133198956055
0.001412133050609113
0.001733824615816249
0.001733824705131767
0.001733824454877755
0.001733824355429575
0.001733824205579666
0.001733824065904829
0.001733823985097676
0.001733823905227895
0.001733823833315778
0.001733823841209233
0.001733823818544844
0.001733823913165127
0.001733824138544161
0.001733824128506684
0.0017338243137823
0.001733824433713409
0.00173382442518753
0.001733824497414172
0.001733824396749213
0.001733824383344026
0.001733824256926858
0.001733824215865201
0.001733824166233465
0.001733824123291984
0.001733824117505937
0.001733824051382036
0.001733824151360774
0.001733824208653772
0.001733824411745019
0.001733824391086552
0.001733824537256177
0.001733824589354144
0.001733824729937769
0.00173382484852678
0.001733824892787426
0.00173382493042888
0.001733824998830625
0.001733825122372289
0.001733825153059986
0.001733825336608303
0.001733825489837778
0.001733825508347639
0.001733825607988316
0.001733825619220526
0.001733825663314478
0.001733825661786016
0.001733825676529326
0.001733825691648082
0.00173382572018704
0.001733825767882325
0.001733825751375664
0.001733825803182943
0.001733825608537257
0.00173382541801733
0.001733825323464834
0.001733825267741232
0.001733825016645861
0.001733824824910361
0.002158276885816841
0.002158277020083976
0.00215827670525918
0.002158276586124381
0.002158276323295099
0.00215827618287675
0.002158275979160072
0.002158275857955161
0.002158275785663969
0.002158275756638165
0.002158275802571499
0.002158275891475263
0.002158276139934586
0.002158276208270048
0.002158276427943495
0.002158276508425511
0.002158276555187914
0.002158276567985539
0.002158276530891031
0.002158276519056307
0.002158276362671236
0.002158276323157031
0.002158276195100217
0.002158276110693334
0.002158276078865531
0.002158276041050951
0.0021582762025139
0.002158276251581743
0.002158276450929884
0.002158276490542196
0.002158276647809364
0.002158276709233352
0.002158276918088011
0.002158277034598852
0.002158277121805527
0.002158277231555579
0.002158277313252556
0.002158277458812415
0.002158277532957592
0.002158277742579048
0.002158277847798259
0.002158277889044192
0.002158277995210468
0.002158278028056754
0.002158278067902059
0.002158278075672938
0.002158278116359658
0.00215827816369784
0.002158278194049886
0.002158278211853124
0.002158278228151851
0.002158278251453065
0.002158278052639852
0.002158277859541496
0.00215827771209712
0.00215827765539182
0.002158277406949868
0.002158277214984816
0.002699080442780097
0.002699080552262361
0.002699080162432337
0.002699080020719169
0.002699079661850458
0.002699079483757135
0.002699079185650914
0.002699079009985846
0.002699078924864508
0.002699078854903271
0.002699078924794168
0.002699079011232604
0.002699079313340676
0.002699079426246184
0.002699079689732059
0.002699079792520426
0.002699079853469503
0.002699079856315979
0.002699079835446975
0.002699079839181054
0.002699079652359028
0.002699079597411886
0.002699079385382507
0.002699079286762285
0.002699079224736432
0.002699079189327779
0.002699079378811583
0.002699079426237425
0.002699079665553601
0.002699079746296903
0.002699079942672692
0.002699080049287048
0.002699080273962528
0.002699080436318976
0.002699080564104057
0.002699080728154078
0.002699080818026851
0.002699080978233529
0.002699081071796477
0.002699081288306133
0.00269908138073477
0.002699081433636452
0.002699081562088142
0.002699081615639839
0.002699081680758055
0.002699081705692132
0.002699081760128974
0.002699081813618677
0.002699081863843584
0.002699081886081393
0.002699081912050559
0.002699081920716834
0.002699081731831023
0.002699081520561273
0.002699081323443002
0.002699081276412935
0.002699081005432001
0.002699080826654613
0.003360682897996507
0.003360682944075405
0.003360682484854298
0.003360682309345545
0.003360681846793437
0.003360681624461546
0.003360681237583359
0.003360681008808381
0.003360680900617885
0.003360680805738493
0.00336068087754673
0.003360680933544313
0.003360681285255105
0.003360681427153692
0.003360681756222692
0.003360681902137794
0.00336068197999197
0.00336068199508964
0.003360681981079998
0.003360681965744213
0.003360681765012664
0.003360681689798888
0.003360681410628515
0.0033606812849241
0.003360681183777579
0.003360681138111778
0.003360681329622094
0.003360681384282893
0.003360681680820383
0.003360681790716745
0.003360682047932713
0.00336068220547505
0.003360682444248625
0.003360682671757923
0.003360682834358249
0.00336068306188746
0.003360683155131027
0.003360683332660896
0.003360683421024673
0.003360683629910806
0.00336068373345876
0.003360683818888822
0.003360683968392899
0.00336068403130686
0.003360684138259579
0.003360684178612481
0.003360684256404567
0.003360684316705106
0.003360684383891585
0.003360684423892202
0.003360684463025299
0.003360684466716232
0.003360684295071473
0.003360684064134375
0.003360683805204911
0.003360683742603812
0.003360683462828376
0.003360683322659536
0.004134956903264979
0.004134956861780041
0.004134956328810261
0.004134956109577408
0.004134955551819325
0.004134955282690173
0.004134954817764514
0.004134954533492319
0.004134954392067072
0.004134954289626948
0.004134954338369372
0.00413495436118598
0.004134954723373624
0.00413495489573148
0.004134955262732255
0.004134955486209708
0.004134955605724418
0.004134955637489068
0.004134955634208097
0.004134955563003558
0.004134955364148762
0.00413495526806027
0.004134954950158969
0.004134954785017734
0.004134954662420046
0.004134954597088685
0.004134954743102044
0.004134954804444895
0.004134955158158472
0.004134955296398716
0.004134955589039128
0.004134955815128128
0.00413495606714391
0.004134956369104183
0.004134956559646974
0.004134956856263515
0.004134956978197866
0.004134957153294952
0.004134957232524938
0.004134957421847059
0.004134957564743779
0.004134957653151468
0.004134957854742356
0.004134957909804313
0.004134958070316491
0.004134958121114155
0.004134958248081008
0.004134958320001913
0.00413495841684347
0.004134958459009763
0.004134958541526335
0.004134958530777659
0.004134958385390419
0.004134958161638994
0.004134957814330796
0.004134957718671382
0.004134957437972269
0.004134957308166333
0.005009768266884374
0.005009768121031887
0.005009767497870784
0.005009767243879517
0.005009766575184183
0.00500976628727712
0.005009765745777016
0.005009765432311602
0.005009765241167933
0.005009765152603708
0.005009765171490627
0.005009765166514233
0.005009765459489168
0.005009765699249462
0.005009766041903337
0.005009766345458277
0.005009766555137162
0.005009766569252711
0.005009766606175482
0.005009766423746786
0.005009766255100409
0.005009766124470794
0.005009765822404941
0.005009765620708649
0.005009765470613606
0.005009765391889166
0.005009765488792476
0.005009765546418231
0.005009765935366061
0.005009766139062941
0.0050097664065821
0.005009766739607601
0.005009766988358545
0.005009767368989061
0.005009767576760339
0.005009767944373706
0.005009768149412495
0.005009768256814677
0.005009768357167823
0.005009768520573593
0.005009768669531262
0.005009768756157117
0.005009769053061679
0.005009769059659738
0.005009769301915491
0.005009769375718054
0.005009769562724462
0.005009769649543626
0.00500976975052669
0.005009769809528073
0.005009769985073438
0.005009769921904169
0.00500976983016848
0.005009769667313039
0.005009769178129234
0.005009769044643182
0.005009768774934808
0.005009768609178863
0.005965504366017674
0.005965504104480527
0.005965503355968211
0.005965503039618424
0.005965502317334864
0.005965501990217136
0.005965501406815046
0.005965501155123542
0.005965500848307113
0.005965500802178888
0.005965500831404119
0.005965500763718113
0.005965500927740244
0.005965501288542839
0.005965501530890795
0.005965501813660403
0.005965502250290087
0.005965502223882818
0.0059655023081784
0.005965501950241277
0.005965501796044667
0.005965501607798246
0.005965501443311842
0.005965501201859842
0.00596550099780616
0.005965500927263983
0.005965500999404974
0.005965501038254176
0.005965501399385108
0.005965501790469555
0.005965501944830339
0.005965502441869793
0.005965502614620424
0.005965503118704411
0.005965503297204609
0.005965503644251205
0.005965504065988954
0.005965504015262743
0.005965504154739966
0.005965504358957491
0.00596550442799322
0.005965504480122117
0.005965504989153428
0.005965504904558648
0.005965505171291278
0.005965505409807504
0.005965505552980871
0.005965505787626266
0.005965505841464785
0.005965505872580744
0.005965506198624038
0.005965506075505736
0.005965506017668146
0.005965506065299777
0.005965505314298133
0.005965505131323978
0.005965504914800275
0.005965504720685463
0.006928801779477245
0.006928801364886788
0.006928800410856278
0.006928799951595538
0.006928799372236265
0.006928798928245754
0.006928798373266195
0.006928798269236452
0.006928797763956898
0.006928797767421314
0.006928797884654428
0.006928797679983085
0.006928797744113457
0.006928798381941322
0.006928798466205355
0.006928798509701838
0.006928799234955438
0.006928799195666678
0.006928799276090501
0.006928798956682412
0.006928798536942188
0.006928798412404602
0.006928798361797653
0.006928798217078118
0.006928797636542774
0.006928797651883247
0.006928797880434675
0.00692879785369729
0.006928798078228335
0.006928798840364877
0.006928798761066388
0.006928799437000496
0.006928799524447809
0.00692880002884606
0.006928800354352983
0.006928800541738023
0.006928801180876451
0.006928801073032742
0.006928801123055255
0.006928801631655117
0.006928801482455356
0.006928801489446814
0.006928802236648518
0.006928802228804322
0.006928802308313007
0.006928803022014813
0.006928802872823077
0.006928803340683066
0.006928803121866107
0.006928803343273874
0.006928803818358717
0.00692880330552921
0.006928803605992689
0.006928803857199763
0.00692880282834177
0.006928802512200894
0.00692880248161827
0.006928802347893654
0.007844267282317182
0.007844266808347636
0.007844265592683608
0.007844264791039989
0.007844264934104074
0.00784426406554509
0.007844263349632579
0.007844263143321395
0.007844263091819927
0.007844262442368691
0.007844263000202151
0.007844262492701782
0.007844262743158492
0.007844263530564452
0.007844263218722981
0.007844263370247354
0.007844264223102042
0.007844264101398789
0.007844264168023383
0.007844263813055466
0.007844263783301095
0.007844263067646018
0.007844263253909869
0.007844262580511565
0.007844262769311787
0.007844262425083667
0.007844262339761928
0.00784426317257751
0.007844262859678342
0.007844263774404649
0.007844263784362541
0.007844264368726634
0.007844264616658226
0.007844264918182225
0.007844265726797152
0.007844265729229128
0.007844266295642784
0.00784426567008057
0.007844266131944635
0.007844266639453201
0.007844266424543752
0.007844266570358785
0.00784426739213487
0.007844267301964865
0.007844267624242292
0.007844268567688694
0.007844268043893779
0.00784426870680712
0.007844268508230542
0.007844268442644669
0.007844269291549652
0.007844268486929127
0.007844268997126997
0.007844269540580033
0.007844268272704312
0.007844267844638412
0.007844268063432146
0.007844268143667054
0.008694020679912222
0.008694020755847626
0.008694018797017982
0.008694017738495239
0.008694018132668633
0.008694017082134849
0.00869401638432938
0.008694016031089994
0.00869401594871556
0.008694015424721216
0.008694015892390808
0.008694015306841246
0.008694015173522369
0.00869401629929476
0.00869401634234219
0.008694016042128142
0.008694017081564927
0.008694016763654026
0.008694016855513549
0.008694016609520834
0.008694016455072161
0.008694015417024813
0.008694015797286472
0.008694015131537957
0.00869401539742606
0.008694015082686401
0.008694014779285244
0.008694015897046487
0.008694015762514726
0.008694016548266887
0.008694016500449193
0.00869401722159356
0.008694017382980717
0.008694017623990006
0.008694018696233687
0.008694018547100155
0.008694019028332825
0.008694018177715524
0.00869401873852196
0.008694019518664895
0.008694018547990044
0.008694019241696362
0.008694020358597294
0.008694019616408109
0.008694020364991612
0.008694021549276522
0.008694020932385079
0.008694021799492127
0.008694021309753257
0.008694021572946263
0.008694022467242513
0.008694021294649948
0.008694022013593752
0.008694022629456384
0.008694021932085474
0.008694021229432147
0.008694021308979991
0.008694021119924872
0.009474833940473772
0.009474834198803694
0.009474832310282778
0.00947483115660361
0.009474830940296943
0.00947483075548361
0.009474829399902707
0.009474829019742816
0.009474828856536182
0.009474828279509536
0.009474828888964313
0.009474828145220033
0.009474827885303978
0.009474829281352787
0.009474829096304914
0.009474828822378732
0.009474830080403871
0.009474829508303117
0.009474829334344464
0.009474829620316386
0.00947482859111139
0.009474828426369966
0.009474828262458308
0.009474828428496139
0.009474827635696683
0.009474827759784431
0.009474827352631889
0.009474828659698124
0.009474828544444029
0.009474829338370896
0.00947482928234317