/*--------------------------------*- C++ -*----------------------------------*\
| =========                 |                                                 |
| \\      /  F ield         | OpenFOAM: The Open Source CFD Toolbox           |
|  \\    /   O peration     | Version:  v1812                                 |
|   \\  /    A nd           | Web:      www.OpenFOAM.com                      |
|    \\/     M anipulation  |                                                 |
\*---------------------------------------------------------------------------*/
FoamFile
{
    version     2.0;
    format      ascii;
    class       volVectorField;
    location    "10000";
    object      U;
}
// * * * * * * * * * * * * * * * * * * * * * * * * * * * * * * * * * * * * * //

dimensions      [0 1 -1 0 0 0 0];


internalField   nonuniform List<vector> 
3770
(
(-1.016531585780029 1.091460588939821e-07 -1.145275751190498e-06)
(-1.016533993203507 -1.285321796969977e-08 -1.145311223592703e-06)
(-1.016533431432534 2.687783032450441e-09 -1.145272296676192e-06)
(-1.016533581936709 -9.269604118950979e-10 -1.145304932211777e-06)
(-1.016533506291196 -9.3985160279503e-10 -1.145274987223702e-06)
(-1.016533511011268 -4.260565089922225e-10 -1.145302782267296e-06)
(-1.016533426464885 -9.924742160625501e-10 -1.145275841876995e-06)
(-1.016533424296624 8.882669900875155e-11 -1.145301374267344e-06)
(-1.016533400454579 -1.048279810887918e-09 -1.145276158989812e-06)
(-1.016533364601354 -7.874734363076725e-10 -1.145300477165689e-06)
(-1.016533406252853 2.868579314239689e-10 -1.145276414718428e-06)
(-1.016533374666704 -5.521601330004511e-10 -1.145299545789671e-06)
(-1.016533378686423 5.56392244638351e-10 -1.145277020661409e-06)
(-1.016533409832613 3.313453736989733e-10 -1.145298209882773e-06)
(-1.016533425160999 3.287974754519246e-10 -1.145277736050911e-06)
(-1.016533440860667 5.178162445051829e-10 -1.145296918749127e-06)
(-1.016533472662222 6.059602177201934e-10 -1.145278187786224e-06)
(-1.016533492719353 5.332513187721822e-10 -1.145295754868294e-06)
(-1.016533527978836 2.435250664217845e-10 -1.145278462589402e-06)
(-1.016533479959067 -1.041938895874143e-09 -1.145294743562789e-06)
(-1.01653349925446 1.379658141521647e-09 -1.145278256502336e-06)
(-1.016533491835651 -6.298845555949902e-10 -1.145294032149336e-06)
(-1.016533452967916 -8.87513425086757e-12 -1.1452780632375e-06)
(-1.016533486543363 -4.474633939264411e-10 -1.145293451104949e-06)
(-1.016533412737888 -1.131774337445715e-10 -1.145277949623033e-06)
(-1.016533450555941 -9.825680976268306e-12 -1.145292752514778e-06)
(-1.016533380920397 1.574622793433724e-10 -1.145277959591836e-06)
(-1.016533440900313 2.858188952755605e-10 -1.145291945612579e-06)
(-1.016533380229689 7.190820930928662e-10 -1.145277883245916e-06)
(-1.016533439118565 4.860969190222051e-10 -1.145290926441908e-06)
(-1.016533388155335 7.536936333393452e-10 -1.145277592343776e-06)
(-1.016533594883622 5.969021832373477e-10 -1.145290175010195e-06)
(-1.016533410007136 3.144183913161588e-10 -1.145277005507645e-06)
(-1.016533523983458 -8.721256343344255e-11 -1.145289072419018e-06)
(-1.016533533792797 8.870664703666717e-10 -1.145276764677173e-06)
(-1.016533598289565 7.564500432823062e-10 -1.14528841182254e-06)
(-1.01653363223413 -8.227790379173256e-10 -1.145276927663883e-06)
(-1.016533553864535 1.379370226492101e-09 -1.145287925866812e-06)
(-1.016533619238032 -1.295213011703279e-10 -1.145277068768026e-06)
(-1.016533573667348 9.706110926025225e-10 -1.145287617259199e-06)
(-1.016533605298492 2.97656688338641e-10 -1.145276953183736e-06)
(-1.016533461082742 1.76257413544718e-09 -1.145286555983518e-06)
(-1.016533581104412 -1.057807366152219e-09 -1.145276393109e-06)
(-1.016533540718805 5.255584905708901e-10 -1.145285711707021e-06)
(-1.016533533752373 -6.785078991829928e-10 -1.145275344023252e-06)
(-1.01653356392397 -7.468112200177828e-11 -1.145284299447134e-06)
(-1.016533580305024 -9.619508518143767e-10 -1.145274567821539e-06)
(-1.01653357897657 -1.213648977992627e-09 -1.145283027437294e-06)
(-1.016533620403153 7.700544426759275e-10 -1.145273954946545e-06)
(-1.016533597421232 -8.502118828856131e-10 -1.145282104590036e-06)
(-1.016533646810525 -4.015514268423434e-11 -1.145273589755538e-06)
(-1.016533612116301 -9.361834288590399e-11 -1.145281585678855e-06)
(-1.016533674639318 1.038734847046132e-09 -1.145273071365039e-06)
(-1.016533649634955 7.366241724642019e-10 -1.145280697872928e-06)
(-1.016533664266237 -8.600830189724552e-10 -1.145272236552032e-06)
(-1.016533645129834 -2.530150003870799e-09 -1.145279549514434e-06)
(-1.016533555259897 1.865906581549096e-09 -1.145269632637687e-06)
(-1.016533208366362 1.589951807110204e-08 -1.145272593656728e-06)
(-1.047550919333344 2.207081226197821e-07 -3.411759622130272e-06)
(-1.047551715006651 -1.837367221070239e-08 -3.411833638625984e-06)
(-1.047551289001827 1.214413229531851e-09 -3.411735665159068e-06)
(-1.047551396218371 -3.304195819552751e-09 -3.411826151691753e-06)
(-1.047551285210178 -3.409292628250617e-09 -3.411740027019211e-06)
(-1.047551270741503 -2.579918446313618e-09 -3.41182095941293e-06)
(-1.047551150790915 -4.615633519288163e-09 -3.411742145875086e-06)
(-1.047551125295543 -1.164852393837038e-09 -3.411817153148796e-06)
(-1.047551068704049 -3.032506590188338e-09 -3.411742790572881e-06)
(-1.04755107768512 -2.869246929260531e-09 -3.411814614351307e-06)
(-1.047551038955131 1.81239463823756e-09 -3.411743465187141e-06)
(-1.047551118236278 -2.046582041788738e-10 -3.411811650557694e-06)
(-1.047551086085908 1.776897514473264e-09 -3.411745548116696e-06)
(-1.047551154846431 2.250322580359678e-09 -3.411807633913344e-06)
(-1.047551194236914 2.008857191510046e-09 -3.411747611359931e-06)
(-1.047551224017884 2.581667601601953e-09 -3.411803909372491e-06)
(-1.047551283128468 2.564338896795876e-09 -3.41174889417054e-06)
(-1.047551303838094 2.157542088289625e-09 -3.411800487490727e-06)
(-1.047551362630798 1.782237261914894e-09 -3.411749566994948e-06)
(-1.047551315460626 -3.485416511766949e-09 -3.411797710424461e-06)
(-1.047551301298464 2.817262549512163e-09 -3.411748936228195e-06)
(-1.047551279811843 -2.761326957355523e-09 -3.411795545602663e-06)
(-1.047551209633722 -1.450713189323302e-09 -3.411748331196898e-06)
(-1.047551211935996 -2.403248003996413e-09 -3.411793721507628e-06)
(-1.047551121727872 -1.195560328086655e-09 -3.411747995070715e-06)
(-1.047551149945868 -2.20950860741906e-10 -3.41179161779393e-06)
(-1.047551084922015 2.37469391307573e-10 -3.4117480963966e-06)
(-1.047551145563533 1.461105567653658e-09 -3.411789258347928e-06)
(-1.047551112605053 2.644103884079489e-09 -3.411747974713399e-06)
(-1.047551180611916 2.621542259224802e-09 -3.41178639046245e-06)
(-1.047551161417864 2.285202151715889e-09 -3.411747100514208e-06)
(-1.047551342766446 3.29209579725e-09 -3.411783903490933e-06)
(-1.047551255097591 4.127766447105448e-09 -3.411745550456178e-06)
(-1.047551389536124 1.319757707992096e-09 -3.411780961691462e-06)
(-1.04755141357517 3.008707467569973e-09 -3.411744556320737e-06)
(-1.047551486254367 4.372586144134818e-09 -3.411778828645426e-06)
(-1.047551565639693 -7.334901025678474e-10 -3.411744824755471e-06)
(-1.047551482069682 3.331283253395757e-09 -3.411777502695846e-06)
(-1.047551552870134 4.593050900726383e-11 -3.411745250573117e-06)
(-1.047551500152613 2.362534345886812e-09 -3.411776575173814e-06)
(-1.047551535805059 7.066741987774441e-10 -3.411745079374175e-06)
(-1.047551412105227 3.368296543792148e-09 -3.411773847070619e-06)
(-1.047551481867671 -2.45228350800431e-09 -3.411743352714539e-06)
(-1.047551480443871 1.221313723678848e-09 -3.411771205162907e-06)
(-1.047551443182317 -1.9880255844999e-09 -3.411740511064977e-06)
(-1.047551499668613 4.154260877770098e-10 -3.411766901760448e-06)
(-1.047551518851021 -1.379615642540874e-09 -3.411738139322323e-06)
(-1.047551552934391 -2.417728392317879e-09 -3.411763154652521e-06)
(-1.04755157867014 1.046239306207021e-09 -3.411736165729371e-06)
(-1.047551546103832 -1.456511547985759e-09 -3.411760293385827e-06)
(-1.047551639680141 3.147940383528098e-10 -3.411734962414525e-06)
(-1.047551581100665 -1.640260427102795e-10 -3.41175883305142e-06)
(-1.047551665317699 2.576628240641903e-09 -3.411733595677961e-06)
(-1.047551616853575 1.62128546420742e-09 -3.411756322161016e-06)
(-1.047551650062184 -2.45838809348102e-09 -3.411731323440472e-06)
(-1.047551633456337 -8.195773501556658e-09 -3.411753015970842e-06)
(-1.047551533672259 -9.430554306911801e-10 -3.411725986959038e-06)
(-1.047551324346454 2.23513585427138e-08 -3.411746445782119e-06)
(-1.077095098433801 2.318005792849669e-07 -5.69309192252074e-06)
(-1.077095306873523 -2.506923174636674e-08 -5.693189023411585e-06)
(-1.077095095248024 -3.764791432833191e-12 -5.693044319355002e-06)
(-1.07709510991923 -7.498245723524927e-09 -5.693184331976063e-06)
(-1.077095012348527 -6.367430663650976e-09 -5.693047778588454e-06)
(-1.077094982747027 -6.099870270781175e-09 -5.693177550572987e-06)
(-1.077094829049713 -8.875503810032169e-09 -5.693050304197624e-06)
(-1.077094815865312 -3.073979332695474e-09 -5.693171696832571e-06)
(-1.077094736198264 -5.020096433997053e-09 -5.693051048729832e-06)
(-1.07709476813499 -4.577657061266794e-09 -5.693167556634892e-06)
(-1.077094738065923 3.713013014426004e-09 -5.693052156167844e-06)
(-1.077094834456666 1.112442153006562e-09 -5.693162682200266e-06)
(-1.077094817369487 3.559454590534562e-09 -5.693055439951245e-06)
(-1.077094899961217 5.225200957867752e-09 -5.693156312305875e-06)
(-1.077094962253706 4.384897721806896e-09 -5.693058683167945e-06)
(-1.077094993733707 5.184526813067665e-09 -5.69315038910604e-06)
(-1.077095069397969 4.846734078038774e-09 -5.693060732463939e-06)
(-1.077095085289581 3.985333630848594e-09 -5.693144892908454e-06)
(-1.0770951515149 2.949580421819048e-09 -5.693061802109869e-06)
(-1.077095072608791 -6.426373416731629e-09 -5.693140356509676e-06)
(-1.07709506370351 3.313541259571333e-09 -5.693060756360801e-06)
(-1.077095007461769 -5.734658715660226e-09 -5.693136798703969e-06)
(-1.077094944061432 -3.471884802195471e-09 -5.693059649092914e-06)
(-1.077094930270183 -4.875478326072176e-09 -5.693133845619644e-06)
(-1.07709484558348 -2.178927821326314e-09 -5.69305902264286e-06)
(-1.07709487957094 -2.773077847268769e-10 -5.693130421901361e-06)
(-1.077094818164548 8.748046027536267e-10 -5.693059122236815e-06)
(-1.077094900211465 3.292039274030796e-09 -5.693126589880749e-06)
(-1.077094873002273 5.231517165965859e-09 -5.693058908702426e-06)
(-1.077094961922601 5.625223625449521e-09 -5.693121923656865e-06)
(-1.077094961722061 5.031645625868698e-09 -5.693057477741503e-06)
(-1.077095179507192 6.608119138174273e-09 -5.693118012932457e-06)
(-1.077095070955783 8.046244980820276e-09 -5.693054949847128e-06)
(-1.07709523449966 3.48618576269934e-09 -5.693113136556726e-06)
(-1.077095272198839 5.3819605430113e-09 -5.693053421650178e-06)
(-1.077095338206072 7.844793167239155e-09 -5.693109673940912e-06)
(-1.077095454727475 -5.242536073725277e-10 -5.693053891571825e-06)
(-1.077095335462698 5.388864558243473e-09 -5.693107466437091e-06)
(-1.07709542664289 2.3324932874423e-10 -5.693054481240168e-06)
(-1.077095368977148 3.895775449194952e-09 -5.693105991652709e-06)
(-1.077095406099887 1.028321214958206e-09 -5.693054185205769e-06)
(-1.07709524885139 5.099621133162348e-09 -5.693101432743538e-06)
(-1.077095350251831 -3.164605241759061e-09 -5.693051353021039e-06)
(-1.077095355149026 1.973098237780165e-09 -5.693097238430296e-06)
(-1.077095297123956 -3.392066085693388e-09 -5.693046781695371e-06)
(-1.077095377027772 1.297373316858787e-09 -5.693090244036474e-06)
(-1.077095389906605 -2.086058261563624e-09 -5.693042966860778e-06)
(-1.077095416669276 -3.260057712423987e-09 -5.693084093333197e-06)
(-1.077095471603442 1.196695246009925e-09 -5.693039810319556e-06)
(-1.077095405163601 -2.123742941473217e-09 -5.693079518353334e-06)
(-1.077095525774429 7.178034574309198e-10 -5.693037765824971e-06)
(-1.077095433433201 -9.537326987807017e-10 -5.693077143748629e-06)
(-1.077095526524935 3.871729315237613e-09 -5.693035558796653e-06)
(-1.077095460266931 2.44423606410358e-09 -5.693073107101993e-06)
(-1.077095496470002 -2.748903223533486e-09 -5.693032120121544e-06)
(-1.077095499745856 -1.280755020689633e-08 -5.693068271947618e-06)
(-1.077095430703792 -3.00254400077381e-09 -5.693025566233032e-06)
(-1.077095291002406 2.755779018564658e-08 -5.693066750758675e-06)
(-1.104871316902388 2.234287137505311e-07 -7.965165178781388e-06)
(-1.104871402617696 -3.064553906222627e-08 -7.965281296329995e-06)
(-1.10487123529621 -1.968553646306455e-09 -7.965096776292435e-06)
(-1.104871207318054 -1.274364411751096e-08 -7.965278884929006e-06)
(-1.104871100945215 -9.362353541553868e-09 -7.965098653174904e-06)
(-1.104871071060342 -1.023628983310757e-08 -7.965271023463569e-06)
(-1.104870917354832 -1.337712195001745e-08 -7.965101241619357e-06)
(-1.104870902380139 -5.068920072562818e-09 -7.965263414644624e-06)
(-1.104870828237657 -6.707621720765699e-09 -7.965101871123754e-06)
(-1.104870885247641 -5.501839847895786e-09 -7.965258016597739e-06)
(-1.104870829434939 5.934246129551848e-09 -7.965103045969212e-06)
(-1.104870969807891 3.285665239996423e-09 -7.965251491984236e-06)
(-1.104870945439512 5.778908533780371e-09 -7.965107357511901e-06)
(-1.104871037210731 8.866831485705288e-09 -7.96524304872151e-06)
(-1.104871109924647 7.10953319053719e-09 -7.965111529850596e-06)
(-1.104871136144651 7.953675728337764e-09 -7.96523524273504e-06)
(-1.104871217251771 7.101590981365924e-09 -7.965114156556396e-06)
(-1.10487121890274 5.625878811085515e-09 -7.965227862383156e-06)
(-1.104871289262405 3.834559362674174e-09 -7.965115511890245e-06)
(-1.104871207341151 -9.551761117965463e-09 -7.965221865644972e-06)
(-1.104871191790889 3.048223674289793e-09 -7.965114074925308e-06)
(-1.104871126576526 -9.027534279289146e-09 -7.965217009786491e-06)
(-1.104871067406612 -5.589568050188452e-09 -7.965112426277227e-06)
(-1.104871045069808 -7.37849410069044e-09 -7.965212975488781e-06)
(-1.104870973230061 -2.846643917032476e-09 -7.965111426505712e-06)
(-1.104871008635005 1.634435674918588e-11 -7.965208365005963e-06)
(-1.104870964940819 2.068025247608168e-09 -7.965111461974202e-06)
(-1.104871050207576 5.68275574288716e-09 -7.965203209876732e-06)
(-1.104871043841611 8.364005941946231e-09 -7.965111146136337e-06)
(-1.104871137454138 9.264626862789072e-09 -7.965196966306899e-06)
(-1.104871147149273 8.391277330091781e-09 -7.965109114187076e-06)
(-1.10487133956287 1.008932281367486e-08 -7.965191495856892e-06)
(-1.104871299002284 1.235126257995969e-08 -7.965105980687558e-06)
(-1.104871441978149 6.118447848758644e-09 -7.965185242818791e-06)
(-1.104871478645421 7.911209343315703e-09 -7.965103744375892e-06)
(-1.104871558013185 1.120090466777643e-08 -7.965180715113779e-06)
(-1.104871646266385 8.11280577386112e-11 -7.965104253782047e-06)
(-1.104871566669905 7.637555092928978e-09 -7.965177775342442e-06)
(-1.104871646205906 5.892301756784404e-10 -7.96510517420798e-06)
(-1.104871591295437 5.535325203254587e-09 -7.965175666614187e-06)
(-1.104871635573254 1.267732729961467e-09 -7.965104782246166e-06)
(-1.104871511809078 6.637475645212759e-09 -7.965169791086716e-06)
(-1.104871565993171 -3.411624956380574e-09 -7.965100818772485e-06)
(-1.104871585984521 2.494338677355302e-09 -7.965163842496413e-06)
(-1.104871522289712 -4.902299942998843e-09 -7.965094862980339e-06)
(-1.104871595739643 2.226158755622456e-09 -7.965154368849539e-06)
(-1.104871608247789 -2.852035788080287e-09 -7.965089749140925e-06)
(-1.104871642296254 -3.697581609224124e-09 -7.965146240427566e-06)
(-1.104871680682872 8.225989304673959e-10 -7.965085484477596e-06)
(-1.104871615463656 -2.894862059877462e-09 -7.965140117701166e-06)
(-1.104871734251548 8.026173684324467e-10 -7.965082768860463e-06)
(-1.104871632105423 -2.335837084204525e-09 -7.965136871181978e-06)
(-1.10487171241363 4.747456060263068e-09 -7.965079702120552e-06)
(-1.104871640475102 2.984018917811146e-09 -7.965131281103992e-06)
(-1.104871678132231 -2.505047200293806e-09 -7.965075295595279e-06)
(-1.104871687484043 -1.709078057205662e-08 -7.965125137238329e-06)
(-1.104871612069929 -5.7696222453453e-09 -7.96506766297239e-06)
(-1.104871518841647 2.921915663638169e-08 -7.965129451637119e-06)
(-1.130824147270968 2.125785817484008e-07 -1.02204663513142e-05)
(-1.130824124272553 -3.476809593716624e-08 -1.022059793148582e-05)
(-1.130824033463184 -4.935890976180086e-09 -1.022037917328569e-05)
(-1.130823976236449 -1.821594261000465e-08 -1.022059696499248e-05)
(-1.130823887895837 -1.226732794225342e-08 -1.022038014664355e-05)
(-1.130823857407451 -1.452606381510188e-08 -1.022058800897156e-05)
(-1.13082369069388 -1.784968750318307e-08 -1.022038260371508e-05)
(-1.130823691184744 -6.955168270874478e-09 -1.022057870130283e-05)
(-1.130823618176015 -8.144325060639834e-09 -1.022038312829843e-05)
(-1.130823671598794 -5.77551775361105e-09 -1.022057201454867e-05)
(-1.130823658740003 8.213715633983268e-09 -1.022038451982309e-05)
(-1.130823761152375 5.873493709466595e-09 -1.022056414586107e-05)
(-1.130823775059952 8.123969594732683e-09 -1.022038932512088e-05)
(-1.130823853991777 1.274546406781777e-08 -1.022055432036555e-05)
(-1.130823942389109 9.904310862490165e-09 -1.0220394055088e-05)
(-1.130823960214707 1.065829170024378e-08 -1.022054511944817e-05)
(-1.130824049196412 9.227308108984888e-09 -1.022039705088289e-05)
(-1.130824044791593 7.085641874823418e-09 -1.022053625672799e-05)
(-1.130824117312767 4.619856960228314e-09 -1.022039857324801e-05)
(-1.13082401121243 -1.245197223117731e-08 -1.022052878805999e-05)
(-1.130824014695113 2.364716042711724e-09 -1.022039667862765e-05)
(-1.130823927319286 -1.226457282808126e-08 -1.022052280230086e-05)
(-1.130823889841532 -7.549951278365327e-09 -1.022039440493922e-05)
(-1.130823866456499 -9.612629314968123e-09 -1.022051800388244e-05)
(-1.130823808107629 -3.162873453250569e-09 -1.02203929920679e-05)
(-1.130823850612716 7.148908634085118e-10 -1.022051249735748e-05)
(-1.130823809777986 3.638844792216072e-09 -1.022039281327155e-05)
(-1.130823911076602 8.441339768940407e-09 -1.022050628824962e-05)
(-1.130823899948285 1.168923697767623e-08 -1.022039231663953e-05)
(-1.130824007115691 1.317789728809567e-08 -1.022049865395706e-05)
(-1.130824016332193 1.190996381420022e-08 -1.022038978614358e-05)
(-1.130824244827486 1.368228412373127e-08 -1.022049229107e-05)
(-1.130824166999052 1.657908700619501e-08 -1.022038597650735e-05)
(-1.130824318638258 8.825556149293989e-09 -1.022048447712936e-05)
(-1.130824367849545 1.03643612688483e-08 -1.022038349094518e-05)
(-1.130824434541851 1.431952726435018e-08 -1.022047907566085e-05)
(-1.130824551459395 9.691165862044474e-10 -1.022038431176129e-05)
(-1.130824431956075 9.890363475915954e-09 -1.02204753537103e-05)
(-1.130824534633882 1.083648896286618e-09 -1.022038519823348e-05)
(-1.130824473125692 7.1807474750903e-09 -1.022047287846593e-05)
(-1.130824522187908 1.421350886736316e-09 -1.022038459892586e-05)
(-1.130824356130446 8.092918358092761e-09 -1.022046528719522e-05)
(-1.13082445129962 -3.350433148318387e-09 -1.02203796840215e-05)
(-1.130824460121149 2.835498063410036e-09 -1.022045826656602e-05)
(-1.130824396004102 -6.333613773261003e-09 -1.02203724471096e-05)
(-1.130824476212649 3.001134580589163e-09 -1.022044683590276e-05)
(-1.130824486466974 -3.648439940001664e-09 -1.022036643637989e-05)
(-1.130824499332139 -4.109242966687487e-09 -1.022043688482632e-05)
(-1.130824563955656 6.024630928507604e-11 -1.022036144739139e-05)
(-1.130824477596388 -3.893031766046974e-09 -1.022042962238617e-05)
(-1.130824595170672 4.678843246594328e-10 -1.022035801912158e-05)
(-1.130824475699392 -4.241934530429937e-09 -1.022042543168823e-05)
(-1.130824551589311 5.162406498479545e-09 -1.022035394646891e-05)
(-1.130824470165468 3.228259072805464e-09 -1.022041819585173e-05)
(-1.130824493307093 -1.797487388464459e-09 -1.022034827305733e-05)
(-1.130824513226773 -2.096250873441516e-08 -1.022041047808496e-05)
(-1.130824453212184 -9.619321017523389e-09 -1.022033932667065e-05)
(-1.13082433391997 2.802964062067551e-08 -1.02204199343363e-05)
(-1.154936875525061 2.023521913566035e-07 -1.245434975514382e-05)
(-1.154936907050852 -3.79377058854267e-08 -1.245449385888338e-05)
(-1.154936789104353 -8.996629751007666e-09 -1.245424555673714e-05)
(-1.154936724491204 -2.344846210984312e-08 -1.245449245395976e-05)
(-1.154936628664179 -1.512184855682717e-08 -1.245424629851452e-05)
(-1.15493660224385 -1.874994950624032e-08 -1.245448178366377e-05)
(-1.154936452746111 -2.229256684966724e-08 -1.245424911916281e-05)
(-1.154936442689465 -8.620316946330312e-09 -1.245447077819177e-05)
(-1.154936388686518 -9.380693402365331e-09 -1.24542495159175e-05)
(-1.154936446026171 -5.371147065594577e-09 -1.245446325212359e-05)
(-1.154936422718355 1.04683473035905e-08 -1.245425057323869e-05)
(-1.154936541172186 8.700165148321712e-09 -1.245445452133708e-05)
(-1.154936552994907 1.069396002503954e-08 -1.245425562498824e-05)
(-1.154936625615905 1.66796967975522e-08 -1.245444355306774e-05)
(-1.154936719177826 1.278407321298037e-08 -1.245426051915057e-05)
(-1.154936729549295 1.328553514363223e-08 -1.245443335986585e-05)
(-1.154936819681848 1.126669873967543e-08 -1.245426353333625e-05)
(-1.154936805013555 8.369162684167944e-09 -1.24544232684535e-05)
(-1.154936879705627 5.48225364801271e-09 -1.245426493847487e-05)
(-1.15493678847039 -1.510221423431277e-08 -1.245441486935134e-05)
(-1.154936788029434 1.466147426744024e-09 -1.24542626635871e-05)
(-1.154936707181468 -1.534508115729e-08 -1.245440798075146e-05)
(-1.154936670811847 -9.244142416104626e-09 -1.245425979603663e-05)
(-1.154936647726034 -1.152758259201941e-08 -1.245440247658579e-05)
(-1.154936597919175 -3.193223438704063e-09 -1.245425788971866e-05)
(-1.154936638970631 1.749914263182562e-09 -1.245439626933253e-05)
(-1.154936614108133 5.472290433640588e-09 -1.24542574726041e-05)
(-1.154936706366928 1.14468657722598e-08 -1.24543892282357e-05)
(-1.154936714822156 1.515037025939446e-08 -1.245425677673558e-05)
(-1.154936814332835 1.721955565177825e-08 -1.245438058123502e-05)
(-1.154936828049999 1.545888881814795e-08 -1.245425369810484e-05)
(-1.154937018360263 1.731253679609194e-08 -1.245437301147498e-05)
(-1.154937007811228 2.073450482631297e-08 -1.245424973900152e-05)
(-1.154937130557656 1.15977402300251e-08 -1.245436461097815e-05)
(-1.154937175075562 1.279705239822068e-08 -1.245424667226412e-05)
(-1.154937254546044 1.728121701599034e-08 -1.245435872760758e-05)
(-1.154937332990468 2.050010489540661e-09 -1.24542474778628e-05)
(-1.154937264055856 1.221163232613907e-08 -1.245435461107332e-05)
(-1.154937345212234 1.722055538815765e-09 -1.245424873724694e-05)
(-1.15493728686594 8.880060755865362e-09 -1.245435153457772e-05)
(-1.154937340718879 1.493005043379339e-09 -1.245424800981345e-05)
(-1.154937217039095 9.472342165810796e-09 -1.24543431997399e-05)
(-1.154937262421637 -3.104204933320862e-09 -1.245424221567987e-05)
(-1.154937276710494 3.003642829441651e-09 -1.245433471640383e-05)
(-1.154937222041679 -7.733844084201608e-09 -1.245423423351277e-05)
(-1.154937282704157 3.497609935810688e-09 -1.245432164366595e-05)
(-1.154937294122795 -4.420579201387528e-09 -1.245422746844336e-05)
(-1.154937319059604 -4.640902836271841e-09 -1.245431064907005e-05)
(-1.15493735458048 -1.08140111742012e-09 -1.24542218761201e-05)
(-1.154937282915111 -5.170654136782812e-09 -1.245430236132233e-05)
(-1.154937381358259 -3.567605722374704e-10 -1.245421800454156e-05)
(-1.15493726919051 -6.519736531578066e-09 -1.245429722157146e-05)
(-1.154937325265465 5.214968132093296e-09 -1.245421281369868e-05)
(-1.154937244868206 3.269580728188763e-09 -1.24542881062962e-05)
(-1.154937269571563 -1.124367787005958e-09 -1.24542058267518e-05)
(-1.154937288479693 -2.519507363625012e-08 -1.245427850750947e-05)
(-1.15493721441519 -1.48662182486422e-08 -1.245419449541063e-05)
(-1.154937120584127 2.464564139926688e-08 -1.24542928070528e-05)
(-1.177261457729036 1.924143343356297e-07 -1.466929306230884e-05)
(-1.177261388528398 -4.04778215259091e-08 -1.466943995382239e-05)
(-1.177261326745221 -1.365498919457155e-08 -1.466917145625959e-05)
(-1.177261262433758 -2.841736815385939e-08 -1.466943872193228e-05)
(-1.177261180290407 -1.79421036522938e-08 -1.466917258554688e-05)
(-1.177261154463234 -2.304536498281395e-08 -1.46694264232209e-05)
(-1.177260996551377 -2.664966934920587e-08 -1.466917548416844e-05)
(-1.177260998492446 -1.019408849262725e-08 -1.46694138309549e-05)
(-1.177260948364882 -1.061569126771843e-08 -1.466917582218812e-05)
(-1.177260987932033 -4.506048236679428e-09 -1.466940534862695e-05)
(-1.177261017665103 1.248017485527539e-08 -1.466917678741129e-05)
(-1.177261074983815 1.158861714790116e-08 -1.466939611684724e-05)
(-1.1772611347303 1.332713439560074e-08 -1.466918132580162e-05)
(-1.177261183394397 2.055137907061918e-08 -1.466938491334845e-05)
(-1.17726129310382 1.574751826424495e-08 -1.466918586340776e-05)
(-1.177261295140289 1.589802380274689e-08 -1.466937433051766e-05)
(-1.177261394751319 1.33481458293537e-08 -1.466918859876192e-05)
(-1.177261379985226 9.599422590355557e-09 -1.466936361210142e-05)
(-1.177261457681033 6.440934136123642e-09 -1.466918974888353e-05)
(-1.177261344926791 -1.725985162122423e-08 -1.466935413868071e-05)
(-1.177261365673307 4.079371260564731e-10 -1.466918693377884e-05)
(-1.177261271107144 -1.828598497825693e-08 -1.466934664868194e-05)
(-1.177261251874772 -1.076808666906176e-08 -1.466918345670165e-05)
(-1.177261231853731 -1.320352436947551e-08 -1.466934092366092e-05)
(-1.177261189322544 -3.08480871924761e-09 -1.466918105761643e-05)
(-1.17726123527847 3.024618863992055e-09 -1.466933440181043e-05)
(-1.177261206260212 7.395080524534848e-09 -1.466918018150823e-05)
(-1.177261310081314 1.458678958121952e-08 -1.466932685353274e-05)
(-1.177261307488821 1.857764812151461e-08 -1.466917912584897e-05)
(-1.177261418707727 2.129051598371323e-08 -1.466931742007482e-05)
(-1.177261424576994 1.900424556091924e-08 -1.466917565849077e-05)
(-1.177261656698789 2.100421235815135e-08 -1.466930968701824e-05)
(-1.177261596583651 2.471882412131365e-08 -1.466917140034655e-05)
(-1.177261728459702 1.438684992927697e-08 -1.46693002208516e-05)
(-1.177261786291458 1.515237845989548e-08 -1.466916855825116e-05)
(-1.177261848835845 1.995952373216309e-08 -1.466929407894539e-05)
(-1.177261963413224 3.245466760743605e-09 -1.466916991772965e-05)
(-1.177261834745358 1.432311433067417e-08 -1.466928938613944e-05)
(-1.177261943977647 2.418577675858221e-09 -1.466917087261172e-05)
(-1.177261873308747 1.053908979696978e-08 -1.466928616447449e-05)
(-1.17726193169776 1.447799556218932e-09 -1.46691698489785e-05)
(-1.177261755151789 1.08249379326785e-08 -1.466927626324748e-05)
(-1.177261852800239 -2.63518718049815e-09 -1.466916342216793e-05)
(-1.177261850844029 3.150964047378248e-09 -1.46692675098823e-05)
(-1.177261803537917 -8.942034785546166e-09 -1.466915478426739e-05)
(-1.177261869564135 3.728660360221439e-09 -1.466925357367083e-05)
(-1.177261884370657 -5.166404151600717e-09 -1.466914794122837e-05)
(-1.1772618816421 -5.32162281697817e-09 -1.466924163780162e-05)
(-1.177261945563998 -2.531732713749116e-09 -1.466914230981844e-05)
(-1.177261857335421 -6.669123837739644e-09 -1.466923295040643e-05)
(-1.177261951148513 -1.588701934328879e-09 -1.466913795353227e-05)
(-1.177261828310167 -9.035730855262649e-09 -1.466922678184928e-05)
(-1.177261885854503 4.906608781753396e-09 -1.466913158150965e-05)
(-1.177261794485735 3.200151476679277e-09 -1.466921583834802e-05)
(-1.177261801317225 -1.617535608401855e-10 -1.466912281120898e-05)
(-1.177261822483386 -2.934830332983163e-08 -1.466920401889369e-05)
(-1.177261765498947 -2.086367804644842e-08 -1.466910885404104e-05)
(-1.177261628525867 1.987403000099094e-08 -1.466922310337094e-05)
(-1.197946410347185 1.825866404842876e-07 -1.688112789916179e-05)
(-1.197946422091893 -4.303851659548031e-08 -1.68812659367174e-05)
(-1.197946331179852 -1.895439782481774e-08 -1.688098957330116e-05)
(-1.197946258189541 -3.28941546862742e-08 -1.688126476264929e-05)
(-1.197946172763477 -2.100360584993154e-08 -1.688099003985294e-05)
(-1.197946142407748 -2.739379014311578e-08 -1.688125120887785e-05)
(-1.197946007855677 -3.092459986803863e-08 -1.688099286696558e-05)
(-1.197945995583084 -1.165835564367981e-08 -1.688123761004378e-05)
(-1.197945962270805 -1.183378021687958e-08 -1.688099272186196e-05)
(-1.197946001586018 -3.120172117151654e-09 -1.688122895005886e-05)
(-1.197946016837473 1.431598619799115e-08 -1.688099262868958e-05)
(-1.19794608803394 1.467002705571096e-08 -1.688121984779867e-05)
(-1.197946141597776 1.624607308581856e-08 -1.688099636821986e-05)
(-1.197946185060357 2.442041268204538e-08 -1.68812085309613e-05)
(-1.197946296263119 1.893276372789321e-08 -1.68810000813449e-05)
(-1.19794629502191 1.85921921894774e-08 -1.688119792819074e-05)
(-1.197946394560978 1.554279305408904e-08 -1.688100203818097e-05)
(-1.197946374319578 1.077778361139229e-08 -1.688118682545128e-05)
(-1.197946452436473 7.602460580383146e-09 -1.6881002640985e-05)
(-1.197946363809607 -1.910237494376435e-08 -1.688117712952498e-05)
(-1.19794637606909 -7.894107365676e-10 -1.688099944027128e-05)
(-1.197946292921483 -2.114470005479179e-08 -1.688116926269885e-05)
(-1.197946267881631 -1.217519519594389e-08 -1.688099545642571e-05)
(-1.197946248955954 -1.46579177625023e-08 -1.688116328244838e-05)
(-1.197946208381819 -2.927076823763341e-09 -1.688099246327098e-05)
(-1.197946250572108 4.535030871658037e-09 -1.688115655519791e-05)
(-1.19794623583721 9.36196305010443e-09 -1.688099116830574e-05)
(-1.19794632427836 1.790835699305386e-08 -1.688114866959471e-05)
(-1.197946342550966 2.205142565463286e-08 -1.688098972770165e-05)
(-1.197946440147582 2.542910795855138e-08 -1.688113885726626e-05)
(-1.197946452670679 2.250119006262215e-08 -1.688098581201926e-05)
(-1.197946638852711 2.49030843215216e-08 -1.688113034549604e-05)
(-1.197946649277695 2.865889480365835e-08 -1.688098191276419e-05)
(-1.197946752887981 1.724334178400152e-08 -1.688112122088274e-05)
(-1.197946803987801 1.74533308191069e-08 -1.688097882772824e-05)