/*--------------------------------*- C++ -*----------------------------------*\
| =========                 |                                                 |
| \\      /  F ield         | OpenFOAM: The Open Source CFD Toolbox           |
|  \\    /   O peration     | Version:  v1812                                 |
|   \\  /    A nd           | Web:      www.OpenFOAM.com                      |
|    \\/     M anipulation  |                                                 |
\*---------------------------------------------------------------------------*/
FoamFile
{
    version     2.0;
    format      ascii;
    class       volVectorField;
    location    "10000";
    object      wallShearStress;
}
// * * * * * * * * * * * * * * * * * * * * * * * * * * * * * * * * * * * * * //

dimensions      [0 2 -2 0 0 0 0];


internalField   uniform (0 0 0);

boundaryField
{
    inlet
    {
        type            cyclic;
    }
    outlet
    {
        type            cyclic;
    }
    bottomWall
    {
        type            calculated;
        value           nonuniform List<vector> 
58
(
(0.001073753123604142 -9.823827480998735e-09 7.438750330478642e-08)
(0.001073909548640271 2.393781181500761e-10 7.438980755952975e-08)
(0.001073872975752662 -3.807268434287685e-11 7.438727913177504e-08)
(0.001073882762525256 4.483841707163815e-11 7.438939887891764e-08)
(0.00107387784617548 1.14969509610491e-10 7.43874538954107e-08)
(0.001073878153152328 7.468745383915098e-11 7.438925922875184e-08)
(0.001073872661191286 1.270014027241698e-10 7.43875093977265e-08)
(0.001073872520761038 4.620784334690008e-12 7.43891677673386e-08)
(0.001073870972726556 1.190432243474699e-10 7.438752999184995e-08)
(0.001073868642374553 6.545196667174284e-11 7.438910949256777e-08)
(0.001073871348553662 -2.960748296492213e-11 7.438754660247375e-08)
(0.001073869296907923 6.086829383090401e-11 7.438904899930472e-08)
(0.001073869557565549 -6.483242260530429e-11 7.438758595640984e-08)
(0.0010738715813992 -5.069644178124593e-11 7.438896223387427e-08)
(0.001073872576732876 -4.316335293631593e-11 7.438763242722767e-08)
(0.001073873596412158 -6.733123808296894e-11 7.438887837608288e-08)
(0.001073875662210768 -7.702753277018055e-11 7.438766177339465e-08)
(0.001073876965253902 -7.236778113089419e-11 7.438880278586057e-08)
(0.001073879256331355 -1.504903069950796e-11 7.438767962839542e-08)
(0.001073876135368363 1.038323612243703e-10 7.438873709853491e-08)
(0.001073877389180093 -1.251037711853054e-10 7.438766623954531e-08)
(0.001073876908583282 7.646156117615109e-11 7.438869089239396e-08)
(0.001073874382884006 3.273992711588118e-12 7.438765368158562e-08)
(0.001073876563920294 5.779632199825845e-11 7.438865315204296e-08)
(0.001073871769633716 2.683797579318028e-11 7.438764629771267e-08)
(0.001073874226155879 1.591343300887066e-11 7.438860777352351e-08)
(0.001073869703086715 -9.065564505122737e-12 7.43876469416984e-08)
(0.001073873598785316 -2.442554649358356e-11 7.438855536286353e-08)
(0.001073869658290774 -6.143056695062452e-11 7.438764198283195e-08)
(0.001073873483429338 -4.584906402943328e-11 7.438848916589172e-08)
(0.001073870173150341 -1.390111913712456e-10 7.438762308914262e-08)
(0.001073883601204659 -6.203772660217666e-11 7.438844037634697e-08)
(0.001073871593059223 6.335069939161789e-12 7.438758497559778e-08)
(0.001073878995293592 -5.104775575063569e-11 7.438836875346694e-08)
(0.001073879632249075 -1.119986225923249e-10 7.438756934690338e-08)
(0.001073883823333783 -1.121126575955994e-10 7.438832585484575e-08)
(0.001073886026485359 9.228539044777119e-11 7.438757994399383e-08)
(0.00107388093607947 -1.133040254617546e-10 7.438829428634642e-08)
(0.001073885183079829 1.842103872045757e-12 7.438758910750379e-08)
(0.001073882222524474 -7.745797793615198e-11 7.43882742439661e-08)
(0.001073884276809455 2.752022540875564e-11 7.438758159858294e-08)
(0.001073874911059974 -1.411891439921906e-10 7.438820530000342e-08)
(0.001073882706767377 5.39084067628046e-11 7.438754521816285e-08)
(0.001073880082445171 -2.309787735858114e-11 7.438815047165618e-08)
(0.001073879630648708 4.777483635035472e-11 7.438747707314004e-08)
(0.001073881590165523 -1.557063730837375e-11 7.438805874565899e-08)
(0.001073882654774937 7.618105630220937e-11 7.438742666271613e-08)
(0.001073882566448891 8.612201612648586e-11 7.438797612823012e-08)
(0.001073885258209847 -7.542013279939429e-11 7.438738685991476e-08)
(0.001073883766293943 6.112883471936336e-11 7.438791618984654e-08)
(0.001073886973173927 -3.479173994076179e-12 7.438736314307917e-08)
(0.001073884719444228 -5.066695332883376e-12 7.438788248734847e-08)
(0.001073888780690776 -1.077181247852949e-10 7.438732947584661e-08)
(0.00107388715851533 -5.888258299298227e-11 7.438782482705634e-08)
(0.001073888109835328 7.661777502122334e-11 7.438727525225571e-08)
(0.001073886862609197 2.707203913005549e-10 7.438775023882758e-08)
(0.001073881014117984 4.517379151312879e-11 7.438710611182292e-08)
(0.001073858419179863 -4.445739513590606e-10 7.438729839657295e-08)
)
;
    }
    topWall
    {
        type            calculated;
        value           nonuniform List<vector> 
58
(
(0.01074928695380456 -6.388998759021719e-08 1.858106052889792e-07)
(0.01075127130821884 -1.232690159970799e-07 1.858530284028274e-07)
(0.010715312765922 7.449812917900824e-08 1.852229291080758e-07)
(0.01071035520225694 1.229560972830666e-07 1.851430937612664e-07)
(0.01071043495663453 1.27236863146776e-07 1.851473757187607e-07)
(0.01070785444104076 7.000387909072331e-08 1.85090701547318e-07)
(0.0107435549780802 -1.110963241277268e-07 1.857063065927346e-07)
(0.01074904036778425 -9.800462978691313e-08 1.858133152413418e-07)
(0.01074909297384759 -3.89026727637687e-08 1.858121144860132e-07)
(0.01074875676577688 -2.482066062936727e-08 1.858110399104712e-07)
(0.01074841255629213 9.960164642054776e-09 1.858048767967199e-07)
(0.01074887199374514 3.070990883507839e-09 1.858079409603736e-07)
(0.01074862898244093 -1.593468233236092e-08 1.858068923820049e-07)
(0.0107483504883356 1.143791158100179e-08 1.858028745150932e-07)
(0.01074885313484797 3.572320248994085e-09 1.85806792038681e-07)
(0.0107485567612354 -1.485409705347041e-08 1.858051677784266e-07)
(0.01074842964920129 7.083137676546953e-09 1.858039250937759e-07)
(0.01074851587872792 2.004032392745815e-08 1.858023160972433e-07)
(0.01074956709651553 -4.533677837142841e-09 1.85821554488768e-07)
(0.01074923871220907 7.912089835138261e-09 1.858174342661011e-07)
(0.01074942746067317 -4.9818923678293e-08 1.8582019238363e-07)
(0.01075203885587305 -1.063253820325565e-07 1.858634653947506e-07)
(0.01071525601074213 8.683540560549925e-08 1.852218225301822e-07)
(0.01071074887286493 1.477449309961526e-07 1.851441165527176e-07)
(0.01071074589230984 2.035982316133916e-08 1.851441490688266e-07)
(0.01071006773975438 -1.21394619995474e-08 1.851360899218601e-07)
(0.01070962175296807 1.220070893876664e-08 1.851287987392967e-07)
(0.01071050201017188 1.492265317481817e-09 1.851386798415138e-07)
(0.01070994380076525 -1.464316415409283e-08 1.851327312336869e-07)
(0.01070956756995343 1.232183798021532e-08 1.8512657297714e-07)
(0.01071048182180002 1.209534829165193e-09 1.851380002902509e-07)
(0.01070987448056818 -1.210269285789257e-08 1.851307581556635e-07)
(0.01070964057350057 4.487107093258587e-09 1.851276120145271e-07)
(0.01071025224118911 1.838486198130655e-08 1.851349150779538e-07)
(0.01070993109503856 7.352193310848428e-09 1.851308600086964e-07)
(0.01070987629586216 -2.171495003242564e-08 1.851308399028301e-07)
(0.01071053367066526 8.450047177633964e-08 1.851447082397127e-07)
(0.01070751867467394 6.544600089338013e-08 1.850807392551939e-07)
(0.01074337414119203 -1.148356060921807e-07 1.857024540499442e-07)
(0.01074900640003433 -9.004019956165045e-08 1.85809718934122e-07)
(0.01074884885313972 -1.394180501220896e-08 1.858050929044104e-07)
(0.01074890776247028 -1.14296610638656e-08 1.858095532299367e-07)
(0.01074871155148918 5.689654122766343e-09 1.858117749340939e-07)
(0.01074932446934211 -3.011629504638986e-09 1.8581668261031e-07)
(0.0107493312456185 -1.886611930742847e-08 1.858131673848822e-07)
(0.01074972105873819 -1.857791329956397e-08 1.85823098084286e-07)
(0.01074944034288865 -4.32106213791907e-11 1.858177603701454e-07)
(0.01074844425393326 2.868407855750896e-08 1.8580066262029e-07)
(0.01074834921635285 -1.26120909190134e-09 1.857955788352983e-07)
(0.01074858983405745 -1.349730723225595e-08 1.857993307785206e-07)
(0.01074871463781489 1.398098997840281e-08 1.858038819783136e-07)
(0.01074840209438198 2.791377987699635e-09 1.858011405698114e-07)
(0.0107494289030331 2.901922627083341e-09 1.858233220264579e-07)
(0.01074936867904175 1.818780656426928e-08 1.858156988063012e-07)
(0.01074978288107892 -1.83948225715531e-08 1.858121362074269e-07)
(0.01074960845648699 -3.867100170712783e-08 1.858173216313181e-07)
(0.01074870436551152 1.015433985630662e-08 1.858100825154625e-07)
(0.01074907602361219 5.140806503615536e-08 1.858119011338985e-07)
)
;
    }
    left
    {
        type            cyclic;
    }
    right
    {
        type            cyclic;
    }
}


// ************************************************************************* //
