/*--------------------------------*- C++ -*----------------------------------*\
| =========                 |                                                 |
| \\      /  F ield         | OpenFOAM: The Open Source CFD Toolbox           |
|  \\    /   O peration     | Version:  v1812                                 |
|   \\  /    A nd           | Web:      www.OpenFOAM.com                      |
|    \\/     M anipulation  |                                                 |
\*---------------------------------------------------------------------------*/
FoamFile
{
    version     2.0;
    format      ascii;
    class       volScalarField;
    location    "10000";
    object      nut;
}
// * * * * * * * * * * * * * * * * * * * * * * * * * * * * * * * * * * * * * //

dimensions      [0 2 -1 0 0 0 0];


internalField   nonuniform List<scalar> 
3132
(
5.721367420654606e-06
5.721362225391123e-06
5.721364201894125e-06
5.721363183152097e-06
5.72136373314418e-06
5.721363433257625e-06
5.721363697472004e-06
5.721363352215335e-06
5.721363699172757e-06
5.721363292075039e-06
5.721363619566735e-06
5.721363452597833e-06
5.721363488557565e-06
5.721363650441218e-06
5.721363413598884e-06
5.72136355115591e-06
5.721363651612644e-06
5.721363381264748e-06
5.721363583542898e-06
5.721363483098919e-06
5.721363496719076e-06
5.721363531993475e-06
5.72136345160267e-06
5.721363562567852e-06
5.721363500817755e-06
5.72136355175193e-06
5.721363432927402e-06
5.721363755309409e-06
5.721363196596389e-06
5.721363926710197e-06
5.721363543948482e-06
5.721363623779076e-06
5.721363806115076e-06
5.721363385458969e-06
5.721363912313885e-06
5.72136326715632e-06
5.721363581234494e-06
5.721363362537236e-06
5.721363533786677e-06
5.721363556930755e-06
5.721363291237762e-06
5.721363698906028e-06
5.72136328519115e-06
5.72136363419801e-06
5.721363049811138e-06
5.721363764370564e-06
5.721363419652131e-06
5.721363673287695e-06
5.721363639407392e-06
5.721363565418393e-06
5.721363654450074e-06
5.721363599156822e-06
5.721363670393768e-06
5.721363765013566e-06
5.72136368790051e-06
5.721363908066543e-06
5.721364048538117e-06
5.721364559045404e-06
9.322324698819243e-07
9.322385591490946e-07
9.322332596595497e-07
9.3223589217846e-07
9.322346551914982e-07
9.322349771244559e-07
9.322350185941649e-07
9.322345260205268e-07
9.322347971440129e-07
9.322338108431927e-07
9.322340227655476e-07
9.322339042263458e-07
9.322334667059545e-07
9.322343162185033e-07
9.322333815094344e-07
9.322337583097723e-07
9.322334888799764e-07
9.322329313280339e-07
9.322326920807836e-07
9.322330314579977e-07
9.322322791100491e-07
9.322329754007759e-07
9.322323129106356e-07
9.322327989144269e-07
9.322327471174876e-07
9.322328457252357e-07
9.32232917687665e-07
9.322332784582121e-07
9.322333032524385e-07
9.322338421402559e-07
9.32234551223349e-07
9.322334718331736e-07
9.322344251195589e-07
9.322332438624278e-07
9.322333583291865e-07
9.322330658654299e-07
9.322320886547323e-07
9.322328823518277e-07
9.322319331697874e-07
9.322329121980063e-07
9.32232122673077e-07
9.32232936280872e-07
9.322327005514519e-07
9.322329273903133e-07
9.322329123754295e-07
9.322330371393103e-07
9.322335766105299e-07
9.322332835253395e-07
9.322337993017664e-07
9.32233501479375e-07
9.322339098796875e-07
9.3223381609924e-07
9.322340277426943e-07
9.322336154189776e-07
9.322328626314193e-07
9.322320120439549e-07
9.322303200756797e-07
9.322297531833494e-07
2.054617088382927e-06
2.054644985141677e-06
2.054607905778268e-06
2.054631316467229e-06
2.054618623028317e-06
2.054623924928969e-06
2.054621906253815e-06
2.054620993138189e-06
2.054621060649146e-06
2.054617078239031e-06
2.054616884304629e-06
2.054617838520087e-06
2.054614492832981e-06
2.054618990623634e-06
2.054614001442231e-06
2.05461569656699e-06
2.054612840454983e-06
2.054612894144198e-06
2.054610032648753e-06
2.054612493946504e-06
2.054608326463217e-06
2.054611834075349e-06
2.054608473860509e-06
2.054610082148614e-06
2.054610502828993e-06
2.054610596512524e-06
2.054611783452099e-06
2.054611867873158e-06
2.054615106429119e-06
2.054614365689376e-06
2.054619812466359e-06
2.054614799363136e-06
2.054616770275879e-06
2.054614695873697e-06
2.054611203797087e-06
2.054614354235275e-06
2.054606616972789e-06
2.054612600755404e-06
2.054606825277624e-06
2.054611738700877e-06
2.054609269276079e-06
2.054610368512441e-06
2.05461192703041e-06
2.05461065055142e-06
2.054614004593051e-06
2.054611538272353e-06
2.054616240712468e-06
2.054614281569829e-06
2.054616116426399e-06
2.054615327531628e-06
2.054616965476547e-06
2.054616276669748e-06
2.054616765186119e-06
2.054612326141835e-06
2.0546081289924e-06
2.054602552636594e-06
2.054594550127814e-06
2.054593186994198e-06
5.373086280061144e-06
5.373073277746754e-06
5.373038203095174e-06
5.373070171368169e-06
5.373046485168057e-06
5.373054719130764e-06
5.373050062589008e-06
5.373047726913394e-06
5.373045449545972e-06
5.373043748866468e-06
5.373040929428489e-06
5.373045131085144e-06
5.37304056176735e-06
5.373044179914776e-06
5.373042771709614e-06
5.373036214819279e-06
5.37303362857128e-06
5.373036274382966e-06
5.37303156572853e-06
5.373032191874775e-06
5.37303514071149e-06
5.373030819952834e-06
5.373032943532645e-06
5.373030339688386e-06
5.373030806967959e-06
5.373034118019984e-06
5.373034369262551e-06
5.373034626999003e-06
5.373044913636891e-06
5.373041980509292e-06
5.373047597307062e-06
5.373049401008409e-06
5.373035956896101e-06
5.373047933332972e-06
5.373030445184541e-06
5.373042375791743e-06
5.373031451264665e-06
5.373036557564181e-06
5.373034415091869e-06
5.37303105944441e-06
5.373042267274667e-06
5.373030185611636e-06
5.373042069813906e-06
5.373034962274361e-06
5.373043862492298e-06
5.373041440794727e-06
5.373045695446278e-06
5.373050395787697e-06
5.373045257350941e-06
5.373052397965704e-06
5.373049318550479e-06
5.373048743907734e-06
5.37304950279451e-06
5.373032777727698e-06
5.373025393264082e-06
5.373020301737948e-06
5.373018992786316e-06
5.373031167305381e-06
1.163773640039615e-05
1.163767309162288e-05
1.163764844919528e-05
1.163768449972347e-05
1.163764482672553e-05
1.163765316989599e-05
1.163764178154171e-05
1.163763883534724e-05
1.163763766500675e-05
1.163764555360095e-05
1.163763518880228e-05
1.163764305423002e-05
1.163763855090122e-05
1.163763427308308e-05
1.163764867177464e-05
1.163762665121437e-05
1.163762438569806e-05
1.163762652751037e-05
1.163762371768176e-05
1.163762627786483e-05
1.1637641201209e-05
1.16376251486993e-05
1.163763142014775e-05
1.163762635260947e-05
1.163762795472578e-05
1.163763328989369e-05
1.16376293669584e-05
1.163762987192102e-05
1.163765115719579e-05
1.163764114737995e-05
1.163764416345932e-05
1.16376645280578e-05
1.163761894278557e-05
1.163766224966413e-05
1.163762203201754e-05
1.163764506176341e-05
1.163764299934315e-05
1.16376365561637e-05
1.163764993290753e-05
1.163762387714611e-05
1.163766466953659e-05
1.163762465278822e-05
1.16376557861638e-05
1.163763526820556e-05
1.163765560837334e-05
1.163765392537703e-05
1.163765457535556e-05
1.163767289171525e-05
1.163765216668977e-05
1.163767431634863e-05
1.163766260398159e-05
1.163766188842173e-05
1.163766261518973e-05
1.163762793054023e-05
1.16376239370819e-05
1.163762188291422e-05
1.163762381303704e-05
1.163764973974567e-05
2.167469933028517e-05
2.167461081274008e-05
2.167457029675289e-05
2.167461239783546e-05
2.167456423533533e-05
2.16745539223834e-05
2.167454666444695e-05
2.167454429791128e-05
2.167452958380776e-05
2.16745679372412e-05
2.167453922024042e-05
2.167454576091613e-05
2.167455742533689e-05
2.167452850155217e-05
2.167458157035835e-05
2.167452432560033e-05
2.167452462881961e-05
2.167453186234107e-05
2.167453110303305e-05
2.167453255047396e-05
2.167457286426463e-05
2.167453133680972e-05
2.167456289278706e-05
2.16745316766277e-05
2.167453508296769e-05
2.167454430942039e-05
2.167452971297233e-05
2.167453078644743e-05
2.167457464053611e-05
2.167454307202452e-05
2.167454965945635e-05
2.167460622606506e-05
2.167450446308646e-05
2.167460788442234e-05
2.167452664151162e-05
2.167457079415983e-05
2.167458856239108e-05
2.167455664904205e-05
2.167459644199323e-05
2.167452422134602e-05
2.167461872153363e-05
2.167452563746889e-05
2.167459060621199e-05
2.167456002897251e-05
2.167459331422231e-05
2.167459083126154e-05
2.167458615115294e-05
2.167462568691538e-05
2.167457746854164e-05
2.167462546269595e-05
2.167459720193166e-05
2.16745992738979e-05
2.1674595660764e-05
2.167454290618588e-05
2.167454558813544e-05
2.167454068885851e-05
2.167454941356451e-05
2.167457659115114e-05
3.670686899581188e-05
3.670683350404508e-05
3.670671471800969e-05
3.670678050635566e-05
3.670670881626082e-05
3.670668641024184e-05
3.670667347127409e-05
3.670667404515704e-05
3.670666211880406e-05
3.670674061723166e-05
3.670665918649512e-05
3.670669227087705e-05
3.670670823826305e-05
3.670662947567385e-05
3.670675392347554e-05
3.670663387957611e-05
3.670663994888892e-05
3.670668667648857e-05
3.670665839860881e-05
3.670666418779229e-05
3.670674481572687e-05
3.670665456413543e-05
3.670673649986965e-05
3.670664071777294e-05
3.670666443972065e-05
3.670668276656021e-05
3.670664655930358e-05
3.670665246266079e-05
3.670673191548244e-05
3.670662985736222e-05
3.670665217840159e-05
3.670677824503038e-05
3.670658643479193e-05
3.670679419739851e-05
3.670665362110412e-05
3.670674042400405e-05
3.670678827372247e-05
3.670670837174993e-05
3.670679846506012e-05
3.670664457248191e-05
3.670683207855523e-05
3.670664532589146e-05
3.670677871292986e-05
3.670670692746896e-05
3.670677151196394e-05
3.670676034589589e-05
3.670674928860733e-05
3.670681991730105e-05
3.670672384966894e-05
3.670681545803065e-05
3.670675273711459e-05
3.670677469370466e-05
3.670673894275627e-05
3.670667463022041e-05
3.670668108856501e-05
3.670667043480785e-05
3.670671005118985e-05
3.670672959335174e-05
5.970757101089528e-05
5.97075967992768e-05
5.97073855455826e-05
5.970751167683625e-05
5.970734688015228e-05
5.970733338734872e-05
5.970728722775067e-05
5.970731542001219e-05
5.970729128434583e-05
5.970742250194642e-05
5.970727066387074e-05
5.970732096073278e-05
5.970735235488587e-05
5.970721040848109e-05
5.970742001017539e-05
5.970721668680324e-05
5.970722333209499e-05
5.970733430217158e-05
5.970726513640142e-05
5.970726681856995e-05
5.970739575688379e-05
5.970724349903943e-05
5.970736600056898e-05
5.970721513751336e-05
5.970723978693497e-05
5.970726069891958e-05
5.970722353655276e-05
5.97072216808458e-05
5.970736268660642e-05
5.97071876808644e-05
5.970722898721387e-05
5.97074358206124e-05
5.970715784676218e-05
5.970748122790145e-05
5.970727004907737e-05
5.970741284014237e-05
5.970747607899985e-05
5.970733833299164e-05
5.970747112801941e-05
5.970723965834983e-05
5.970752495361109e-05
5.970724571903135e-05
5.970745499886287e-05
5.970735519060169e-05
5.970746023761897e-05
5.970740041288986e-05
5.970739910636972e-05
5.970748919185815e-05
5.970735377250564e-05
5.970748342594957e-05
5.970738492407761e-05
5.970744446588624e-05
5.970733333311438e-05
5.970728725161026e-05
5.970728253534135e-05
5.970728632587984e-05
5.97073648821867e-05
5.970742154086332e-05
0.0001037346117419201
0.000103734330787962
0.0001037342643399704
0.0001037342904568319
0.0001037340672952867
0.000103734021954411
0.0001037339641178561
0.0001037339571862139
0.0001037339735231739
0.0001037339911792499
0.0001037338929184198
0.0001037339122035244
0.0001037338404134119
0.000103733830693533
0.0001037338905691236
0.0001037337261791282
0.0001037337561536341
0.0001037338088204629
0.0001037337509190424
0.000103733761736421
0.0001037338130971426
0.0001037337084823283
0.0001037337367822855
0.0001037335922246891
0.0001037336132234478
0.0001037335921975203
0.0001037335847617067
0.0001037336416760405
0.0001037336827382826
0.0001037336324099431
0.0001037337335009356
0.0001037338642062724
0.0001037337886707814
0.0001037340138940562
0.0001037339270832335
0.0001037340233411089
0.000103733999836183
0.0001037338824187686
0.0001037339204030029
0.0001037338419163106
0.0001037339665385915
0.000103733853422646
0.0001037339716189811
0.0001037339462571491
0.0001037339008721569
0.0001037338762259208
0.0001037338969493794
0.0001037339479089729
0.0001037338865911482
0.0001037339516285438
0.0001037338929765473
0.0001037339092003443
0.0001037337929301325
0.0001037337944373201
0.0001037338081447761
0.0001037339178016294
0.0001037341349113037
0.0001037343471707019
0.0001868063090494345
0.0001868057889339407
0.0001868057570505267
0.0001868056514510571
0.0001868053302518506
0.0001868052552762625
0.00018680519410219
0.0001868051689371474
0.0001868052092129747
0.0001868050819830409
0.000186804978685665
0.0001868049502070145
0.0001868048264127508
0.0001868048655439685
0.0001868048171913683
0.0001868046365610407
0.000186804721435994
0.0001868046875309904
0.0001868046215075767
0.000186804654310837
0.0001868046166414
0.0001868044903849104
0.0001868044282695178
0.0001868042542350909
0.0001868042699582515
0.0001868042585531425
0.0001868042614571418
0.0001868044182913015
0.0001868044046899651
0.0001868044571992443
0.0001868047195513516
0.0001868048225478616
0.0001868048425122082
0.0001868051033890065
0.000186805053225217
0.0001868051685125762
0.0001868049458567762
0.0001868048272987679
0.0001868048162700663
0.0001868048001274823
0.0001868048692688815
0.0001868048406386737
0.000186804964697044
0.0001868049358148643
0.0001868047906426838
0.0001868048050232837
0.0001868048091887469
0.0001868048544789714
0.0001868048315752458
0.0001868048772830859
0.0001868048192428118
0.0001868047990305982
0.0001868047042200027
0.0001868047191634807
0.0001868048462582952
0.0001868051440625543
0.0001868055765689621
0.0001868059749690936
0.0003404914006936837
0.0003404905938147604
0.0003404905337471211
0.000340490244729826
0.0003404898140385498
0.0003404897069929341
0.0003404896289052949
0.0003404896033946342
0.0003404896172842812
0.0003404892897233185
0.0003404891094634541
0.0003404890527617771
0.0003404888201739737
0.0003404889050786514
0.0003404887165132993
0.0003404885252815922
0.0003404887069072591
0.0003404885224802158
0.0003404884380277167
0.0003404885101877741
0.0003404882653656649
0.0003404880702579069
0.0003404879400487481
0.0003404877113193164
0.0003404877427712943
0.0003404877231663521
0.0003404877533554391
0.0003404880104699514
0.0003404879327757955
0.000340488148341666
0.0003404887025704509
0.0003404887337745126
0.0003404889643825283
0.0003404893054771974
0.0003404892846010521
0.0003404893863566214
0.0003404889089382011
0.0003404887689813319
0.000340488737335256
0.0003404887655365233
0.000340488783679896
0.0003404888014714491
0.0003404889458758049
0.000340488855310819
0.0003404886200522034
0.0003404886497474682
0.000340488688567144
0.0003404887363418112
0.0003404887367147311
0.0003404887870276886
0.0003404886833697774
0.0003404886378213711
0.0003404885664400162
0.0003404886531564942
0.0003404890219116024
0.000340489640866865
0.0003404903607509551
0.0003404909597861313
0.0006165972946766907
0.0006165961608873231
0.0006165960968273357
0.0006165954789228605
0.0006165949805273569
0.0006165948227916791
0.000616594716387821
0.0006165946345740484
0.0006165945694064767
0.0006165939684299403
0.0006165936514925526
0.0006165935606080746
0.0006165931851738173
0.0006165932995821418
0.0006165929567842994
0.0006165927359910976
0.0006165929855702292
0.000616592625014521
0.00061659250476116
0.0006165925733800248
0.0006165920783927405
0.0006165917977050073
0.0006165915750176664
0.0006165912733031643
0.00061659135320664
0.0006165913463499515
0.0006165914138177795
0.0006165918275373806
0.0006165917751077484
0.0006165922682058485
0.0006165931971063439
0.0006165931635933362
0.0006165936599869849
0.0006165940259088043
0.0006165939506012443
0.0006165939740646604
0.0006165931952337602
0.0006165930399704999
0.0006165929785375084
0.0006165930564602544
0.0006165930032970484
0.0006165930957040426
0.0006165932448672203
0.0006165930910844302
0.0006165927942541709
0.0006165928621347473
0.0006165929605851493
0.0006165929994274349
0.0006165930094187708
0.0006165930803111062
0.0006165929469860758
0.0006165929144242317
0.0006165928939735994
0.0006165931662099859
0.0006165939210252851
0.0006165949443586449
0.0006165960043764575
0.0006165967873815434
0.001079331582001728
0.001079330165946093
0.001079330072049753
0.001079329120819129
0.001079328681899093
0.001079328437268438
0.001079328296837454
0.001079328053290303
0.001079327857771596
0.001079326881929356
0.001079326404182262
0.001079326242482307
0.001079325705172525
0.001079325846074118
0.001079325333213489
0.001079325108884741
0.001079325385364386
0.001079324815728164
0.001079324635142211
0.001079324638003744
0.001079323837633553
0.00107932352129647
0.001079323188273745
0.001079322857273839
0.001079322990323074
0.001079323000357014
0.001079323088733739
0.001079323673551408
0.001079323665589268
0.001079324519320397
0.001079325808371556
0.0010793257761971
0.001079326614571915
0.001079326940838826
0.001079326788578143
0.00107932669757456
0.001079325650221175
0.001079325518876802
0.00107932540858231
0.001079325489068364
0.001079325372317419
0.001079325530259599
0.001079325610800089
0.001079325407779948
0.001079325070427173
0.001079325203766967
0.001079325390618616
0.001079325415272512
0.001079325501460805
0.001079325571531291
0.001079325449965574
0.001079325450975694
0.001079325507829473
0.001079326078433447
0.001079327340085433
0.001079328744054277
0.001079330090673844
0.001079330988444535
0.001767838555753371
0.001767837058743127
0.001767836908476123
0.00176783582093796
0.001767835466248325
0.001767835101311288
0.001767834902888427
0.00176783442787932
0.001767834070316149
0.001767832765786658
0.001767832128754552
0.00176783184066071
0.001767831221797998
0.001767831326608537
0.001767830677178474
0.001767830458223835
0.001767830674136558
0.001767829909614466
0.001767829657702485
0.001767829535631396
0.001767828551145254
0.001767828225231929
0.001767827820065151
0.001767827507964388
0.00176782766726884
0.001767827690253198
0.001767827799960717
0.001767828553692973
0.00176782866548834
0.001767829835648444
0.001767831411958182
0.001767831483345894
0.001767832510564474
0.001767832777373633
0.001767832473585521
0.001767832251580285
0.001767831121227086
0.001767830979534169
0.001767830811336162
0.001767830833310534
0.001767830679707706
0.001767830832010255
0.0017678308680949
0.001767830688538255
0.001767830371709447
0.001767830612859687
0.001767830883956617
0.00176783096334179
0.001767831097322595
0.001767831168075071
0.001767831111525266
0.001767831153509823
0.001767831368007028
0.00176783223958537
0.001767833930207534
0.001767835534352869
0.001767837019365687
0.001767837941966878
0.002664651870187851
0.002664650508765483
0.002664650363951506
0.002664649399709161
0.002664649117151781
0.002664648621469104
0.002664648370095516
0.002664647626953879
0.002664647121849853
0.002664645533294838
0.002664644818854615
0.002664644320492706
0.002664643693914493
0.002664643690342344
0.002664642955727619
0.002664642726870666
0.00266464281617459
0.002664641909458984
0.002664641565563595
0.002664641326454316
0.002664640292785817
0.002664640007887912
0.002664639575832267
0.002664639357957523
0.002664639508393721
0.002664639565969542
0.002664639656769026
0.002664640489553451
0.002664640677912155
0.002664642077953028
0.002664643778929491
0.002664643934190516
0.002664645110056181
0.002664645316906656
0.002664644917403418
0.002664644636200782
0.002664643558502358
0.002664643393870446
0.002664643160870719
0.002664643134661056
0.00266464298132302
0.002664643075271849
0.002664643081809089
0.002664642945175386
0.002664642701068992
0.002664643043566727
0.0026646434011911
0.002664643575141732
0.002664643738698585
0.002664643846834497
0.00266464384751202
0.002664643953388796
0.002664644290127445
0.0026646453792246
0.002664647306236769
0.002664648883650573
0.002664650378999107
0.002664651243384063
0.003717196807907182
0.003717195713328437
0.003717195583307102
0.003717194882913299
0.003717194617521282
0.003717194005425602
0.003717193706871593
0.003717192670721439
0.003717192034550518
0.003717190208517344
0.003717189535342392
0.003717188740885939
0.003717188150550364
0.003717187998712158
0.003717187229633164
0.003717186873468818
0.00371718676195684
0.003717185802246438
0.003717185324808075
0.003717184994887129
0.003717184048179662
0.003717183805156872
0.003717183434621333
0.003717183322645558
0.003717183423352519
0.003717183531831537
0.00371718357154884
0.003717184392895596
0.003717184600215937
0.003717186167824576
0.003717187922481192
0.00371718819559418
0.003717189476499838
0.003717189643466162
0.003717189207018241
0.003717188913680376
0.003717187957660168
0.003717187772843829
0.003717187428026485
0.003717187358880642
0.003717187247233824
0.00371718726138432
0.00371718724839079
0.003717187172246655
0.003717187007395545
0.003717187492357177
0.003717187926514512
0.003717188212698527
0.00371718843324042
0.003717188585979424
0.003717188602709971
0.003717188818108901
0.003717189217050394
0.003717190433706915
0.003717192437381202
0.003717193891493868
0.003717195365343204
0.003717196122473153
0.004895015185450048
0.004895014293674627
0.004895014143200481
0.004895013847363033
0.004895013659364152
0.004895012841697628
0.00489501264534731
0.004895011115782226
0.004895010461519521
0.004895008369931775
0.004895007839923541
0.004895006588135607
0.004895006061534563
0.004895005690200458
0.004895004932319333
0.00489500425494554
0.004895004069204372
0.004895002917720231
0.004895002313572998
0.004895001953626165
0.004895001064531424
0.004895000976691028
0.004895000710778508
0.004895000682712557
0.004895000730177717
0.004895000948903855
0.004895000824633215
0.004895001665536291
0.004895001726360653
0.004895003553752876
0.00489500532354809
0.004895005657272382
0.004895007145708182
0.004895007225407484
0.004895006813561867
0.004895006536357745
0.004895005667885799
0.004895005575901644
0.004895005022865629
0.004895004974385998
0.004895004906856904
0.004895004888913367
0.004895004812959129
0.004895004903233065
0.004895004703242305
0.004895005434583312
0.004895005924559103
0.004895006341400956
0.004895006644616482
0.004895006817151291
0.004895006914541365
0.004895007266732912
0.004895007605326011
0.004895008987161489
0.004895010965812538
0.004895012237679941
0.00489501377108012
0.004895014281793664
0.006167054713160207
0.006167054197806617
0.006167054252383701
0.00616705411065411
0.006167054091050725
0.006167052989102164
0.006167052681504863
0.00616705094435998
0.00616705020622978
0.006167048133884081
0.006167047451503919
0.006167046078867726
0.006167045330666836
0.006167044740921905
0.006167043818245457
0.00616704276976981
0.006167042352133076
0.006167040987904749
0.006167040147928377
0.006167039652285555
0.006167038875653248
0.006167038753379261
0.006167038521510047
0.006167038488323417
0.006167038629647037
0.006167038871734387
0.006167038704510144
0.006167039405881348
0.006167039521944696
0.006167041248410621
0.006167043259581715
0.006167043834741493
0.006167045552233347
0.006167045783563756
0.006167045601490229
0.006167045316733423
0.006167044449169158
0.006167044197967192
0.006167043512580554
0.006167043457754402
0.006167043377702327
0.006167043197218675
0.0061670432053601
0.006167043391224235
0.006167043236628556
0.006167043888065843
0.006167044412190955
0.006167044989084657
0.00616704537250587
0.006167045644419084
0.006167045873026336
0.006167046128257809
0.006167046503408411
0.006167047977265271
0.006167049831483155
0.006167051351436735
0.006167053095532933
0.006167053635678607
0.007409298442477886
0.007409298195338082
0.00740929876189398
0.007409298701000347
0.007409298791415298
0.007409297506975402
0.007409296959540745
0.007409295183423017
0.007409294340557785
0.007409292409276644
0.007409291552841561
0.007409290259406971
0.007409289043885177
0.007409288301928296
0.007409286943622286
0.007409285673948542
0.00740928472477474
0.007409283065184592
0.007409281858293986
0.00740928104614392
0.0074092804556686
0.007409280084331099
0.007409279772786694
0.007409279846732788
0.007409279859709846
0.007409280222847658
0.007409280151835585
0.007409280430017607
0.007409280829475033
0.007409282354153781
0.007409284559906185
0.007409285707646998
0.007409287498813298
0.007409288220538709
0.007409288225856057
0.00740928825154511
0.007409287321622976
0.007409286524173352
0.007409285834115704
0.007409285821165919
0.007409285298830386
0.007409285264256136
0.007409285291598609
0.007409285449088226
0.007409285417964164
0.007409285689998088
0.007409286121439082
0.007409286780998401
0.007409287309238076
0.007409287558682994
0.00740928819912698
0.00740928834928596
0.007409288712537717
0.007409290196397572
0.007409291918847235
0.007409294016234779
0.007409295979845447
0.007409297107196305
0.008562624428430385
0.008562624512903984
0.00856262561073878
0.008562625199451121
0.008562625692171259
0.008562624527088284
0.008562623796159538
0.008562622038771566
0.008562621027914389
0.008562619314976075
0.008562618350491494
0.00856261708628935
0.008562615482624039
0.008562614548986498
0.008562612764952507
0.008562611384580863
0.008562609723241212
0.008562607690166646
0.008562606090946534
0.008562604897964709
0.008562604335190072
0.008562603762036623
0.008562603359333978
0.008562603563005401
0.00856260348731556
0.008562603989079065
0.008562603616938419
0.008562603942387526
0.008562604539524413
0.008562605899721973
0.008562608208059666
0.008562609817164717
0.008562611670651905
0.008562612604339465
0.008562613200822831
0.008562613019228872
0.008562612927379993
0.008562611191116374
0.008562610483652304
0.008562610497471422
0.008562609773347957
0.008562609598624989
0.008562609710927481
0.008562609804689033
0.008562609734882782
0.008562610073808577
0.008562610326409934
0.008562610796066803
0.008562611428099137
0.008562611779705152
0.008562612705729576
0.008562612838146478
0.008562613236560105
0.008562614815291508
0.008562616320231704
0.008562619012176175
0.00856262112589491
0.008562622767755199
0.009608658026319305
0.009608658002396729
0.009608659680211623
0.00960865922431387
0.009608659940043411
0.009608659186948343
0.009608658278894873
0.009608656704502687
0.009608655515796238
0.009608654010043264
0.009608653053562151
0.009608651777910584
0.009608649964482597
0.009608648795685201
0.009608646663790639
0.009608645165203279
0.009608642785764225
0.009608640321910394
0.009608638348336687
0.009608636652482488
0.009608635915719232
0.009608635574685538
0.009608634931892337
0.00960863497271917
0.009608635088560118
0.009608635353427384
0.009608634910159921
0.009608635354243809
0.009608636014363015
0.009608637341353877
0.009608639700828826
0.009608641653701408
0.009608643525922183
0.009608644780353984
0.009608645640092096
0.009608645729832756
0.009608645735263762
0.00960864386104864
0.009608643395391005
0.009608642616603547
0.009608641938395496
0.009608641900098937
0.009608641919850678
0.0096086419734321
0.009608641532536693
0.009608642077001359
0.009608642259212374
0.009608642528043625
0.009608643268714858
0.009608643750146719
0.009608644866748506
0.009608645089598472
0.009608645596942819
0.009608647446667893
0.009608648618348268
0.009608651745230059
0.009608653971482415
0.009608656011867299
0.01054273232749924
0.01054273281304261
0.01054273453093164
0.01054273440576776
0.01054273504990808
0.01054273464675348
0.01054273400581796
0.01054273279712115
0.01054273129172885
0.01054273001505768
0.01054272916568785
0.01054272786583253
0.01054272606180287
0.01054272464180385
0.01054272223869923
0.0105427206280635
0.01054271756141899
0.01054271461999026
0.01054271224138072
0.0105427099920388
0.01054270900938904
0.01054270831926323
0.01054270820553814
0.0105427080690134
0.01054270786636302
0.01054270829386374
0.0105427081877874
0.01054270826535434
0.010542709099668
0.01054271031899041
0.0105427127090102
0.01054271491803009
0.01054271676896548
0.01054271837634463
0.01054271889457519
0.01054271999935638
0.01054271925839484
0.01054271847344448
0.0105427172255752
0.010542716222747
0.01054271577162508
0.01054271569567707
0.01054271547141578
0.01054271521073673
0.01054271471655802
0.01054271528285643
0.01054271551317525
0.01054271566693079
0.01054271646330403
0.01054271708042242
0.01054271836563147
0.01054271858731189
0.01054271927061664
0.01054272111187414
0.01054272266082613
0.01054272586254858
0.01054272824659
0.01054273051774974
0.01136486783828438
0.01136486876647512
0.01136487058555431
0.01136487059145872
0.01136487129343415
0.01136487078822289
0.0113648705357514
0.01136486990796256
0.01136486837616794
0.01136486729634402
0.01136486662765357
0.01136486528381606
0.01136486369775546
0.01136486209115981
0.01136485948194268
0.01136485777378839
0.0113648540734087
0.01136485061286149
0.01136484779629689
0.0113648449542144
0.01136484388616567
0.01136484267070086
0.0113648428819125
0.01136484226957174
0.0113648425232534
0.01136484307972705
0.01136484267085288
0.01136484292831115
0.01136484384319903
0.01136484498305237
0.01136484727360607
0.01136484970795116
0.01136485150173406
0.01136485316541896
0.01136485382630195
0.01136485505002603
0.01136485444209501
0.01136485430044386
0.01136485282913587
0.0113648517930955
0.01136485096491602
0.01136485114117667
0.01136485006174994
0.01136484990097227
0.01136484938898456
0.01136484960614696
0.01136484992662916
0.01136485041180124
0.01136485099235874
0.01136485170130235
0.01136485319907588
0.01136485351028694
0.01136485434687627
0.01136485614233458
0.01136485841172007
0.01136486147082092
0.01136486406862111
0.01136486650154939
0.01207640221113186
0.01207640340593187
0.01207640525668092
0.01207640554862998
0.01207640608622132
0.01207640545514842
0.01207640596682956
0.01207640499507711
0.01207640416101276
0.01207640345577597
0.01207640292136879
0.01207640148938543
0.01207640031062843
0.0120763986488661
0.01207639591037103
0.01207639410357344
0.01207638984411013
0.01207638582087634
0.01207638254388259
0.01207637907082696
0.01207637794019032
0.01207637639955658
0.01207637617874065
0.01207637614997475
0.01207637590407714
0.01207637615056432
0.01207637664024429
0.01207637696531
0.01207637770274549
0.01207637908038259
0.01207638096987922
0.01207638361709303
0.01207638536527629
0.01207638691850517
0.01207638777157316