/*--------------------------------*- C++ -*----------------------------------*\
| =========                 |                                                 |
| \\      /  F ield         | OpenFOAM: The Open Source CFD Toolbox           |
|  \\    /   O peration     | Version:  v1812                                 |
|   \\  /    A nd           | Web:      www.OpenFOAM.com                      |
|    \\/     M anipulation  |                                                 |
\*---------------------------------------------------------------------------*/
FoamFile
{
    version     2.0;
    format      ascii;
    class       volScalarField;
    location    "10000";
    object      nuTilda;
}
// * * * * * * * * * * * * * * * * * * * * * * * * * * * * * * * * * * * * * //

dimensions      [0 2 -1 0 0 0 0];


internalField   nonuniform List<scalar> 
3132
(
0.0004956497618430125
0.0004956496627897596
0.0004956497077955843
0.0004956496832145163
0.0004956496967723664
0.0004956496893745309
0.0004956496952457939
0.0004956496886634504
0.0004956496960618658
0.0004956496875733119
0.0004956496950376609
0.0004956496907545934
0.0004956496921336782
0.0004956496945604781
0.0004956496897031912
0.0004956496938960345
0.0004956496944982025
0.000495649689496208
0.0004956496941977672
0.0004956496908760004
0.0004956496921120642
0.0004956496913143444
0.0004956496910790193
0.0004956496917179724
0.0004956496915845894
0.0004956496917847944
0.0004956496906141978
0.0004956496965970908
0.000495649684069381
0.0004956497011982041
0.0004956496896350044
0.0004956496955938513
0.0004956496958933082
0.0004956496902366089
0.0004956497001646067
0.0004956496858001237
0.0004956496941391273
0.0004956496877840495
0.0004956496946531572
0.0004956496908633403
0.0004956496891043477
0.0004956496946906865
0.0004956496869293189
0.0004956496926616851
0.0004956496838043164
0.0004956496982795021
0.0004956496894984419
0.0004956496962775745
0.0004956496937719475
0.0004956496926904442
0.0004956496953790393
0.0004956496932542418
0.0004956496957139819
0.0004956496972471558
0.0004956496942992128
0.0004956497014967154
0.0004956497032731652
0.0004956497167694977
0.0003142267299143714
0.0003142272377643975
0.0003142267734886701
0.0003142270133212131
0.0003142268921394409
0.0003142269323347828
0.0003142269288832511
0.0003142268810625887
0.0003142269029883369
0.0003142268195582582
0.0003142268516662309
0.0003142268263453782
0.0003142268057802286
0.0003142268662677339
0.0003142267890712902
0.0003142268281336387
0.0003142268014210062
0.0003142267475238368
0.0003142267382648251
0.0003142267529086958
0.0003142266999794294
0.0003142267570980557
0.0003142266975883019
0.0003142267486609581
0.0003142267393617654
0.0003142267492541069
0.0003142267483519914
0.0003142267866200853
0.0003142267788337211
0.0003142268521544151
0.0003142268810609399
0.0003142268041949945
0.0003142268900598684
0.0003142267761665005
0.0003142268198388806
0.000314226752414466
0.0003142266901290939
0.0003142267512238495
0.0003142266740432585
0.00031422675509353
0.0003142266791933402
0.0003142267579130711
0.0003142267202777171
0.0003142267483331258
0.0003142267454993569
0.0003142267713113339
0.0003142268102112687
0.0003142267843582506
0.0003142268335468465
0.0003142268042590165
0.0003142268452710849
0.0003142268286551167
0.0003142268530763341
0.0003142268102323442
0.0003142267407608862
0.0003142266622113378
0.0003142265311386593
0.000314226492156066
0.0003830947615604035
0.0003830961000315415
0.0003830942703483744
0.0003830954800034782
0.0003830947849463717
0.0003830951183130221
0.0003830949568005913
0.0003830949219093605
0.0003830949019669123
0.0003830947435343583
0.000383094747237944
0.0003830947561517217
0.0003830946409466624
0.0003830948294514862
0.0003830945927311734
0.0003830946898812977
0.0003830945482179912
0.0003830945288524895
0.0003830944200440717
0.0003830945115980988
0.0003830943298713214
0.0003830945125371711
0.0003830943254202734
0.000383094472148605
0.0003830944480150641
0.0003830944361961248
0.0003830944790899666
0.0003830945357549321
0.0003830946360924574
0.0003830946517180332
0.0003830948759275353
0.0003830946307342074
0.0003830948253315158
0.0003830945792729634
0.0003830945184374276
0.000383094599375158
0.0003830942675654253
0.0003830945656067016
0.0003830942497935544
0.000383094518205029
0.0003830943453151423
0.0003830944479663043
0.0003830944762676629
0.0003830944422778654
0.0003830945848276406
0.0003830944847786404
0.0003830947245549699
0.0003830945872614574
0.0003830947409160841
0.0003830946878738431
0.0003830947540450937
0.0003830947107821026
0.0003830947326263777
0.0003830945179931787
0.0003830943055232762
0.0003830940109184231
0.0003830936824339092
0.0003830936526117069
0.0004878631940756103
0.0004878628802947708
0.0004878620171296996
0.0004878628379001278
0.0004878622157950212
0.0004878625269544741
0.0004878622807883002
0.0004878623463999865
0.0004878622154437505
0.0004878621957345801
0.0004878621242396994
0.0004878622295119863
0.0004878621058618755
0.0004878622332181596
0.0004878621281596622
0.0004878620563577779
0.0004878619670529024
0.0004878620370304972
0.0004878618929880054
0.0004878619213245421
0.0004878619465323965
0.0004878619117054055
0.0004878619201552428
0.0004878619240771705
0.0004878618777543248
0.000487861934750693
0.000487861934313269
0.0004878619853957563
0.0004878621807977513
0.0004878621143116928
0.0004878622785167326
0.0004878622698872676
0.000487862063787215
0.0004878622796912153
0.0004878618911531588
0.0004878621896304384
0.0004878618921360139
0.0004878620957161416
0.0004878619014771043
0.0004878619197122443
0.0004878620993363957
0.0004878618347824994
0.0004878621245234247
0.0004878619457054613
0.0004878622151092296
0.0004878620968172755
0.000487862256317281
0.0004878622988198253
0.0004878622496060414
0.0004878624193581207
0.0004878622458655173
0.0004878623108260668
0.0004878622462880374
0.0004878619173603446
0.0004878617237762341
0.0004878615881609633
0.0004878615930969541
0.0004878619734397924
0.0005931414494863012
0.0005931406043806464
0.0005931402252348153
0.0005931407573066521
0.0005931402098816651
0.0005931404353584177
0.0005931401622928121
0.0005931402308972912
0.0005931401736252745
0.0005931402979953971
0.0005931401036592222
0.0005931402761661453
0.0005931400836634554
0.0005931401354251083
0.0005931402869158536
0.0005931400507678861
0.0005931399441287519
0.0005931401190196476
0.0005931399124035513
0.0005931399813023574
0.0005931401536999181
0.0005931399695448678
0.0005931401068614218
0.0005931399880298626
0.0005931399606697617
0.000593140039762495
0.000593140005476885
0.0005931400011064316
0.0005931402753567698
0.0005931401092477222
0.0005931402360319749
0.0005931404275360859
0.0005931399504996775
0.0005931404942522459
0.0005931399326438276
0.000593140361988823
0.0005931401716709982
0.0005931401867502988
0.0005931402504643222
0.0005931399850920264
0.0005931404369161078
0.0005931398877406465
0.000593140361240324
0.000593140084687637
0.0005931404238043816
0.0005931402909957396
0.0005931404266264435
0.0005931405547150649
0.0005931403539415374
0.0005931406458337088
0.0005931404035795508
0.0005931404603891587
0.0005931403298088044
0.0005931400328564364
0.000593139873804968
0.0005931398978721954
0.0005931399481690995
0.0005931403952867759
0.0006949732734426123
0.000694972442230742
0.0006949720705127718
0.000694972597725529
0.0006949719104784073
0.0006949721265677159
0.0006949718993254933
0.000694971908471691
0.0006949719103312612
0.0006949721891263397
0.000694971870259993
0.0006949719681812257
0.000694971969700513
0.0006949718360171796
0.0006949722386092672
0.0006949718028356392
0.0006949717441986042
0.0006949719286080952
0.0006949717880366639
0.0006949718197774833
0.0006949721151852697
0.0006949718046282893
0.0006949720788848158
0.0006949717876430966
0.0006949717775668175
0.0006949718588328235
0.0006949717678317834
0.0006949717425919397
0.0006949720958068547
0.0006949717694362263
0.0006949720139053792
0.0006949723395376839
0.0006949716409860937
0.0006949724984490823
0.000694971758899582
0.0006949722791169903
0.000694972228345117
0.0006949720883651367
0.0006949722965228494
0.0006949717825510154
0.0006949724763326113
0.0006949716535434147
0.0006949723111938091
0.0006949719792743711
0.0006949723929133432
0.0006949722061900743
0.0006949723356361486
0.0006949725265404145
0.0006949721973141718
0.0006949725894863121
0.0006949723046260132
0.0006949723470358084
0.0006949721582988162
0.0006949718859438507
0.0006949718724634251
0.0006949718633373794
0.0006949719608680034
0.0006949722703894487
0.0007958902743443434
0.0007958898710736124
0.0007958891997665854
0.0007958898304544841
0.0007958890371585272
0.0007958892279075602
0.0007958890005060364
0.0007958890689888545
0.0007958890747306791
0.0007958894985309163
0.000795888978615094
0.0007958891534944859
0.0007958891551025279
0.000795888846023933
0.0007958895095754181
0.0007958888341729502
0.0007958888606887398
0.000795889310794828
0.0007958888364260346
0.0007958890602503875
0.000795889398715758
0.000795888929500936
0.0007958893596318484
0.0007958888650944711
0.0007958889348218388
0.0007958890265619768
0.0007958888765044496
0.00079588885106928
0.0007958892704149365
0.0007958886792173006
0.000795888985726586
0.0007958895253068273
0.0007958886135084797
0.0007958898149576306
0.0007958888746889102
0.0007958896251402421
0.0007958896046509061
0.0007958893213888494
0.0007958896645559145
0.0007958889200872843
0.0007958898846874619
0.000795888755220927
0.0007958896524857865
0.0007958892200268118
0.0007958897601372027
0.0007958893833738284
0.000795889560282496
0.0007958897693933633
0.0007958893276127169
0.0007958898265703016
0.0007958894329349539
0.0007958896804702634
0.00079588916162401
0.0007958890239766715
0.0007958890361457728
0.0007958890183698813
0.0007958892350557391
0.0007958893894356639
0.0009035859596332149
0.0009035858864515553
0.0009035849429965451
0.000903585581645133
0.0009035847780857073
0.0009035847884861426
0.0009035846778776771
0.0009035848667579071
0.0009035847407654353
0.0009035852217157498
0.0009035845824402958
0.0009035847717995774
0.0009035847974250553
0.000903584380266942
0.0009035851842388075
0.0009035843474183995
0.0009035844337546181
0.0009035849357148205
0.0009035844382568035
0.000903584642591685
0.0009035850060828823
0.0009035844475824273
0.0009035849038196446
0.000903584302298942
0.0009035843992647208
0.0009035844774801688
0.0009035842953508891
0.0009035843623487012
0.0009035848054291183
0.0009035841124832136
0.0009035845109299695
0.0009035851315946374
0.0009035842031071435
0.0009035855164739612
0.0009035845183893334
0.0009035853652624062
0.000903585288660335
0.0009035849118628486
0.0009035852666081634
0.0009035844703892561
0.000903585514036749
0.0009035843263127342
0.0009035853353398545
0.0009035849044893369
0.0009035854863441256
0.0009035848715967425
0.0009035851498672264
0.0009035853263181857
0.0009035848940204746
0.0009035853994923844
0.0009035849770829117
0.0009035852752135091
0.0009035846402521249
0.000903584633774791
0.0009035845710935859
0.0009035846600369203
0.0009035849876517264
0.0009035852173800472
0.00104677008684545
0.001046769204563945
0.001046768986560721
0.001046769041730679
0.001046768438131553
0.001046768338597047
0.001046768255870568
0.001046768302431114
0.001046768265048969
0.001046768277783378
0.001046767995028681
0.001046768053850612
0.001046767862073074
0.001046767881590631
0.001046767998212632
0.00104676757814186
0.001046767706056965
0.0010467678036425
0.001046767606766572
0.001046767723173069
0.001046767751647209
0.001046767468660994
0.001046767513482353
0.001046767143344496
0.00104676721629135
0.001046767200691762
0.001046767099860578
0.001046767320447533
0.001046767375965874
0.001046767306577363
0.001046767697176791
0.001046767975105268
0.001046767852375087
0.001046768434645619
0.001046768164868488
0.001046768476167649
0.001046768219167692
0.001046768001037969
0.001046768061078152
0.0010467678714396
0.001046768176433093
0.001046767848014971
0.001046768276364913
0.001046768055252388
0.001046768040842987
0.001046767954013238
0.001046768024842616
0.001046768141078236
0.001046768010555637
0.001046768173135283
0.001046767999102729
0.001046768016107958
0.001046767705830443
0.001046767764721463
0.001046767789900931
0.0010467681903677
0.001046768777999714
0.00104676937811401
0.001230996144875483
0.001230995063517005
0.001230994951143261
0.001230994690316064
0.001230994173746355
0.001230994060752753
0.001230993959795311
0.001230993977473436
0.001230994020988465
0.001230993677602324
0.001230993504528327
0.001230993448561272
0.001230993265942225
0.001230993396184306
0.001230993204713545
0.001230992958819926
0.001230993186960398
0.001230992969758137
0.001230992895625908
0.001230993008670018
0.001230992799889331
0.001230992555930161
0.001230992427930061
0.001230992149652183
0.001230992205000835
0.001230992181872438
0.001230992156773804
0.001230992478978355
0.001230992424369076
0.001230992634416644
0.001230993219735426
0.001230993345896631
0.001230993453026504
0.001230993881459948
0.001230993789091306
0.001230993943816233
0.00123099337007842
0.001230993279352083
0.001230993209099483
0.001230993209865346
0.001230993296677718
0.001230993247309219
0.001230993510090561
0.001230993326506086
0.001230993166058238
0.001230993211802817
0.001230993233830936
0.001230993318510716
0.00123099329381798
0.001230993367252495
0.001230993244840914
0.00123099315815221
0.001230993043321618
0.001230993121444055
0.001230993396159065
0.001230994043916362
0.001230994825397254
0.001230995572266919
0.001466402732382689
0.001466401543353957
0.001466401452863357
0.001466400990332807
0.001466400539295801
0.001466400433479435
0.001466400350792158
0.001466400329458244
0.00146640031933571
0.001466399768943313
0.001466399576842152
0.00146639949898073
0.001466399254852116
0.001466399415358651
0.001466399076933985
0.001466398927397317
0.00146639920293113
0.001466398817907989
0.001466398776672985
0.001466398867381472
0.001466398438848063
0.001466398200070374
0.001466398011930917
0.001466397764721373
0.001466397839998532
0.001466397808281669
0.001466397840818937
0.001466398182624594
0.001466398082069504
0.001466398538318009
0.001466399270501345
0.001466399237149304
0.001466399640103713
0.001466399991825529
0.001466399949696513
0.001466399980166361
0.001466399257344923
0.0014663991918541
0.001466399140329001
0.001466399168560028
0.001466399164122071
0.001466399200650443
0.001466399388823202
0.001466399176316885
0.001466398962773488
0.001466399017353817
0.001466399096719155
0.001466399155340927
0.001466399172849041
0.001466399217094717
0.001466399063130473
0.001466398988722952
0.001466398953434476
0.001466399144329539
0.001466399674212912
0.001466400551299773
0.001466401441170885
0.001466402218782928
0.001772031345260566
0.001772030094042725
0.001772030009011273
0.001772029343471591
0.001772028968061634
0.001772028853237318
0.001772028762991229
0.001772028652899421
0.001772028546181805
0.001772027854628616
0.001772027610771385
0.001772027520551136
0.00177202723069844
0.001772027388789826
0.001772026974664982
0.001772026863281255
0.001772027126382067
0.001772026627637251
0.00177202657726515
0.001772026615691514
0.001772026030245397
0.001772025800070154
0.001772025563487956
0.001772025325413699
0.001772025432643955
0.001772025389251643
0.00177202548806443
0.001772025879067398
0.001772025840938415
0.00177202655499564
0.001772027358599273
0.001772027362573384
0.001772027900364253
0.001772028144559225
0.001772028040754175
0.001772027933534852
0.001772027145399839
0.001772027080039416
0.001772027014443993
0.001772027060477358
0.001772026994830878
0.001772027094681438
0.001772027212196937
0.001772027005134249
0.001772026779780325
0.001772026891020138
0.001772027018576095
0.001772027051549407
0.001772027075160892
0.001772027114246022
0.001772026994133277
0.001772026955928675
0.001772026993164683
0.001772027372254283
0.001772028160773385
0.001772029194881867
0.001772030156267136
0.001772030910878155
0.002174252378218394
0.002174251079545718
0.002174251003283929
0.00217425020741349
0.002174249939142752
0.002174249778817793
0.002174249676050065
0.002174249427693821
0.002174249224549232
0.002174248339534272
0.002174248036949017
0.0021742479024609
0.002174247554565083
0.002174247703887848
0.002174247221428571
0.002174247139008372
0.002174247367553392
0.002174246770774851
0.002174246688470333
0.002174246648959269
0.002174245923928408
0.00217424572654778
0.002174245437863224
0.002174245228353124
0.002174245355811527
0.002174245337630777
0.002174245455242267
0.002174245907295962
0.002174245925389648
0.002174246858997485
0.002174247742084173
0.002174247784725893
0.002174248480980213
0.002174248629732132
0.002174248460408062
0.002174248253546712
0.002174247446037398
0.002174247390964538
0.002174247291482249
0.002174247334702048
0.002174247231281417
0.002174247367737767
0.002174247400147203
0.002174247201231187
0.002174246968282576
0.002174247145768088
0.002174247314391976
0.002174247322696142
0.002174247408846039
0.002174247428735892
0.002174247351946032
0.002174247369466218
0.00217424745191436
0.002174248056171194
0.002174249103215647
0.00217425023408981
0.00217425123495765
0.002174251951938919
0.002702129127384884
0.002702127840333544
0.002702127731316822
0.002702126938029375
0.002702126712108694
0.002702126457624729
0.002702126310057578
0.00270212589745819
0.002702125577843448
0.002702124512772233
0.002702124117802835
0.002702123900787742
0.002702123525275835
0.002702123631630132
0.002702123087787517
0.002702123004124266
0.002702123167113192
0.002702122470383176
0.002702122330094355
0.002702122183779226
0.002702121398451551
0.002702121203366427
0.002702120883544889
0.002702120696182457
0.00270212083355287
0.002702120831788482
0.002702120955956863
0.002702121508185552
0.002702121612064432
0.002702122734441065
0.002702123757437693
0.002702123884328036
0.002702124665007644
0.002702124779379006
0.002702124472564971
0.002702124204187778
0.002702123404370387
0.002702123324949063
0.002702123183356867
0.002702123187527131
0.002702123063678253
0.002702123175958737
0.002702123177836143
0.002702123016042293
0.00270212280294496
0.002702123054550607
0.002702123277258531
0.002702123324922786
0.00270212344520035
0.002702123469494848
0.002702123443841747
0.002702123488426643
0.002702123701394472
0.002702124499164477
0.002702125784948863
0.002702126966915004
0.002702128009677029
0.002702128705239835
0.003382552655026702
0.003382551476898054
0.003382551362564178
0.003382550653599214
0.003382550443126411
0.003382550062294736
0.003382549864805636
0.003382549233428448
0.00338254879733779
0.003382547499304093
0.00338254702310968
0.003382546634929557
0.003382546228976824
0.00338254623754207
0.00338254563531931
0.003382545512139723
0.00338254557942303
0.003382544784075877
0.003382544545073024
0.003382544313278276
0.003382543505088416
0.003382543312155286
0.003382542971844673
0.003382542833321635
0.003382542964767329
0.003382542997369782
0.003382543096885952
0.003382543746686057
0.003382543908361037
0.00338254519782729
0.00338254639399261
0.00338254653705859
0.003382547474713771
0.003382547568233991
0.003382547178387839
0.003382546894784343
0.003382546099946679
0.003382545985475014
0.003382545785009486
0.003382545760667757
0.003382545637023022
0.003382545702616047
0.003382545693390145
0.003382545570423538
0.003382545394229926
0.003382545719842609
0.003382546014016996
0.003382546134729497
0.003382546281225923
0.003382546343385474
0.003382546354825442
0.003382546455495251
0.003382546766965474
0.003382547728694342
0.00338254922573624
0.003382550413454375
0.003382551521726082
0.003382552194079143
0.004229481878493031
0.004229480887561332
0.004229480771863784
0.004229480216094164
0.004229479991944366
0.004229479473198033
0.004229479222410702
0.004229478307183768
0.004229477741667915
0.004229476183300397
0.00422947567793387
0.004229475015595109
0.004229474581826782
0.004229474459912512
0.004229473803549245
0.004229473535033557
0.004229473440020243
0.004229472580729895
0.004229472195889304
0.004229471895717634
0.004229471108941263
0.004229470918308409
0.00422947062137229
0.004229470538253659
0.004229470630765637
0.004229470714591612
0.004229470768317188
0.004229471456130549
0.00422947163776907
0.004229473100530529
0.004229474482762171
0.004229474717849505
0.004229475803591166
0.004229475892834554
0.004229475469102584
0.004229475185937808
0.004229474416240121
0.004229474267952707
0.004229473960217291
0.00422947390532894
0.004229473808489846
0.004229473813568432
0.00422947379581548
0.004229473722560076
0.004229473590500929
0.004229474038826001
0.004229474412936466
0.004229474640415286
0.004229474843252663
0.004229474953386951
0.004229474970292807
0.004229475172576516
0.004229475538310176
0.004229476643764343
0.004229478304813886
0.004229479488026396
0.004229480683524652
0.004229481315590969
0.005248117830515312
0.00524811697783311
0.005248116840441821
0.005248116608603105
0.005248116413077398
0.005248115680632219
0.005248115502025896
0.005248114088669769
0.005248113479438397
0.005248111625669863
0.005248111173801232
0.005248110064107481
0.005248109629644533
0.005248109299830072
0.005248108615370592
0.005248108025285398
0.00524810786353812
0.00524810679751714
0.005248106270192535
0.005248105935289269
0.00524810515097147
0.005248105085004192
0.005248104854273701
0.005248104827632886
0.005248104877327436
0.005248105063543716
0.0052481049677264
0.005248105706140437
0.005248105781082531
0.005248107519098396
0.005248109039621747
0.005248109350524525
0.00524811068213134
0.005248110712195705
0.005248110317719722
0.005248110042801898
0.005248109286487539
0.005248109211666269
0.005248108685444581
0.005248108661307792
0.005248108595870754
0.005248108567033129
0.005248108501908168
0.005248108578333814
0.005248108402861945
0.005248109091582998
0.005248109528262338
0.005248109892790004
0.005248110176834644
0.005248110307924805
0.005248110414673281
0.005248110736136532
0.005248111053263264
0.005248112359260229
0.005248114097494948
0.005248115223316435
0.005248116560628352
0.005248117020071209
0.006411083561121847
0.006411083063889282
0.006411083109079493
0.006411082989278561
0.006411082959260839
0.006411081915916904
0.006411081629516336
0.00641107997977397
0.006411079279416952
0.006411077354651134
0.006411076725459739
0.006411075449853641
0.006411074773218815
0.006411074221560835
0.006411073355219678
0.006411072384014733
0.006411071998306313
0.00641107070390799
0.006411069925731593
0.006411069454949754
0.006411068755021183
0.006411068644949503
0.006411068413641208
0.006411068384084942
0.006411068535429597
0.006411068747870958
0.006411068597583437
0.006411069247395525
0.006411069374436208
0.006411071044281383
0.006411072903483061
0.006411073436984664
0.006411075043007305
0.00641107522717833
0.006411075054872931
0.006411074764002904
0.00641107395262991
0.006411073725935388
0.006411073057157999
0.00641107303717996
0.00641107295729281
0.006411072769736924
0.006411072789891695
0.006411072959791072
0.006411072818947477
0.006411073446071626
0.006411073931665742
0.006411074465451561
0.006411074832968436
0.006411075068927417
0.006411075308351693
0.006411075540624386
0.006411075900779073
0.006411077321160689
0.006411079034758605
0.006411080455321336
0.006411082060229259
0.006411082564366185
0.007586249609595243
0.007586249387418253
0.007586249912065829
0.007586249855368472
0.007586249936238101
0.007586248687098423
0.007586248164163352
0.007586246453419181
0.007586245644268018
0.007586243791183385
0.007586242980496531
0.00758624174257817
0.007586240590267252
0.007586239880620521
0.007586238577768155
0.007586237365885673
0.007586236457134827
0.007586234860688765
0.007586233708878648
0.007586232922600531
0.007586232396796331
0.007586232019524059
0.007586231711546163
0.007586231811181552
0.007586231807539883
0.007586232159530086
0.007586232088872154
0.007586232359578476
0.007586232748722687
0.007586234240435504
0.007586236354482694
0.007586237447584488
0.007586239159997499
0.007586239824925149
0.007586239844482273
0.007586239855572521
0.007586238946225945
0.007586238184522976
0.007586237509913382
0.007586237529804176
0.0075862370017876
0.007586236981059052
0.00758623700940224
0.007586237155330812
0.00758623712923505
0.007586237393299485
0.007586237810356557
0.007586238439914912
0.007586238952310199
0.007586239180690594
0.007586239795805417
0.007586239960602679
0.007586240303807354
0.007586241746621466
0.00758624339363803
0.00758624540554538
0.007586247271150561
0.007586248349029303
0.008698288022393927
0.008698288122012589
0.008698289177660426
0.008698288758511077
0.008698289244880518
0.008698288098772995
0.008698287382702827
0.008698285676085583
0.008698284693518745
0.008698283028002362
0.008698282097272031
0.008698280866980322
0.008698279317868969
0.008698278411157999
0.008698276678278589
0.008698275339839695
0.008698273724010656
0.008698271749341777
0.008698270200359785
0.008698269035049154
0.008698268524049854
0.008698267945012743
0.008698267557369094
0.008698267772905683
0.008698267683546757
0.008698268182282521
0.008698267801424036
0.008698268130410643
0.00869826871530258
0.008698270055185123
0.008698272303693853
0.008698273862376099
0.008698275661138467
0.008698276551256314
0.00869827712163449
0.00869827695782025
0.008698276851653966
0.008698275153099112
0.00869827446909395
0.008698274506822444
0.008698273775497792
0.00869827360505479
0.008698273728119365
0.008698273815658783
0.008698273747695998
0.008698274074490343
0.008698274338834949
0.00869827478061954
0.008698275401997415
0.008698275737751129
0.008698276634665639
0.008698276782737525
0.008698277166017416
0.008698278708083824
0.008698280173779167
0.008698282791467411
0.008698284833691632
0.008698286425825541
0.009717830376193821
0.009717830345195969
0.009717831986805224
0.009717831524173414
0.009717832233680165
0.00971783147889075
0.009717830588594994
0.009717829049835106
0.009717827883303044
0.009717826409207883
0.009717825476501334
0.009717824223571649
0.009717822454752195
0.009717821309238081
0.009717819223018847
0.009717817756317908
0.009717815423416154
0.009717813014413754
0.009717811084876774
0.009717809420789789
0.009717808727311854
0.009717808391557852
0.009717807743422735
0.009717807800757983
0.009717807908335322
0.009717808180076273
0.009717807730898463
0.009717808170537467
0.009717808823473971
0.00971781013252249
0.009717812449811816
0.009717814358818067
0.009717816189879148
0.00971781740655866
0.009717818237668137
0.009717818340209261
0.009717818329278921
0.009717816480676045
0.009717816046878961
0.00971781526352695
0.009717814604644496
0.00971781457548968
0.009717814593570925
0.009717814649400662
0.009717814202759833
0.009717814739226406
0.009717814935906731
0.009717815187312025
0.009717815919538124
0.009717816387378878
0.00971781747872507
0.009717817709789212
0.009717818205824739
0.009717820015175332
0.009717821173924139
0.009717824236565059
0.009717826408838788
0.009717828405138343
0.01063414436987528
0.01063414483920136
0.01063414651913792
0.01063414640573893
0.01063414703277235
0.01063414663426495
0.01063414599063899
0.01063414480068538
0.01063414332105419
0.01063414206598966
0.01063414123249419
0.01063413994933095
0.01063413817935262
0.01063413678019869
0.01063413441778249
0.01063413283209545
0.01063412981126132
0.01063412692186412
0.01063412458335047
0.01063412236860397
0.01063412142466022
0.01063412074024339
0.01063412062893326
0.01063412048887486
0.01063412030157339
0.01063412071890679
0.01063412062083994
0.01063412068978666
0.01063412151604753
0.01063412272232235
0.01063412508000371
0.0106341272507986
0.01063412907007553
0.01063413064709468
0.01063413115033965
0.01063413224092319
0.01063413149667283
0.01063413071337127
0.01063412950080436
0.01063412850507837
0.01063412806814613
0.01063412799590073
0.01063412776844525
0.01063412752618059
0.01063412702243405
0.01063412758236835
0.01063412782330463
0.01063412796543607
0.01063412875472948
0.01063412935874326
0.01063413061952751
0.01063413085446613
0.01063413152245177
0.0106341333313708
0.01063413486604104
0.0106341380157617
0.01063414035676836
0.01063414258969479
0.0114439349972836
0.01144393590834118
0.011443937693374
0.01144393771017491
0.01144393839722091
0.01144393789131452
0.01144393764116748
0.01144393701235893
0.01144393550436567
0.01144393444106096
0.01144393378171049
0.01144393245120805
0.01144393088976864
0.01144392930103866
0.01144392672827552
0.0114439250399665
0.01144392138399498
0.01144391797358331
0.01144391519481774
0.01144391238924531
0.01144391135938486
0.01144391014689698
0.01144391036552294
0.01144390974918461
0.01144391001263818
0.01144391056430358
0.01144391015119893
0.01144391040954749
0.01144391131544361
0.01144391244728342
0.01144391471260272
0.0114439171129358
0.01144391888185138
0.01144392051983071
0.01144392116674617
0.01144392236858083
0.01144392177292623
0.01144392162164286
0.01144392018058272
0.01144391914882827
0.01144391832966734
0.01144391851693827
0.01144391743078657
0.0114439172926813
0.01144391677684722
0.01144391699053539
0.01144391730948468
0.01144391778953133
0.0114439183684592
0.01144391906497316
0.0114439205405536
0.01144392086094031
0.01144392168364043
0.01144392345784701
0.01144392570084395
0.01144392871919688
0.01144393128061451
0.01144393367926886
0.01214666482808462
0.01214666600626724
0.01214666783011554
0.01214666812445676
0.01214666865500359
0.01214666801845359
0.01214666853047422
0.0121466675646327
0.01214666673518198
0.01214666604396561
0.01214666551383192
0.01214666409375496
0.01214666293087292
0.01214666128349766
0.01214665857712228
0.01214665678691531
0.01214665257010122
0.01214664859611812
0.01214664535558556
0.01214664192044144
0.012146640827504
0.01214663928663813
0.01214663908010303
0.01214663905475869
0.01214663880591399
0.01214663904786664
0.01214663953474708
0.01214663986448284
0.01214664059011097
0.01214664195793427
0.01214664383024323
0.01214664644688171
0.01214664817449807
0.01214664970724187
0.01214665054654424
0.01214665185394562
0.01214665126931092
0.0121466513597996
0.0121466503689989
0.01214664941327914
0.01214664850008594
0.01214664810047544
0.01214664653262142
0.01214664617510063
0.01214664600498505