/*--------------------------------*- C++ -*----------------------------------*\
| =========                 |                                                 |
| \\      /  F ield         | OpenFOAM: The Open Source CFD Toolbox           |
|  \\    /   O peration     | Version:  v1812                                 |
|   \\  /    A nd           | Web:      www.OpenFOAM.com                      |
|    \\/     M anipulation  |                                                 |
\*---------------------------------------------------------------------------*/
FoamFile
{
    version     2.0;
    format      ascii;
    class       volScalarField;
    location    "10000";
    object      nuTilda_0;
}
// * * * * * * * * * * * * * * * * * * * * * * * * * * * * * * * * * * * * * //

dimensions      [0 2 -1 0 0 0 0];


internalField   nonuniform List<scalar> 
3132
(
0.0004956497838093206
0.0004956496654363946
0.0004956497080015277
0.0004956496865290099
0.0004956496980246158
0.0004956496917583652
0.000495649697497276
0.0004956496896305617
0.0004956496972717617
0.0004956496882412246
0.0004956496952915116
0.0004956496918579841
0.0004956496924434613
0.0004956496963544082
0.0004956496910732151
0.0004956496936779194
0.0004956496964096316
0.0004956496901983941
0.0004956496945223322
0.0004956496927081121
0.0004956496926891834
0.0004956496939887142
0.0004956496917195062
0.000495649694745811
0.0004956496929868019
0.0004956496944072968
0.0004956496913306701
0.0004956496987312661
0.0004956496866334937
0.0004956497021870148
0.0004956496949042891
0.0004956496952270105
0.0004956497004528548
0.0004956496900712431
0.0004956497021149917
0.0004956496881112053
0.0004956496944746687
0.0004956496902286662
0.000495649692915167
0.000495649694869331
0.000495649687700459
0.0004956496977263667
0.0004956496882572873
0.0004956496965201956
0.0004956496824346434
0.0004956496984286291
0.0004956496913191035
0.0004956496964428037
0.000495649696297975
0.0004956496945011451
0.0004956496961954842
0.0004956496952966643
0.0004956496965483176
0.000495649698795548
0.0004956496975368627
0.0004956497015416866
0.0004956497050464081
0.0004956497154092347
0.0003142266372117703
0.0003142271536265499
0.0003142267116443134
0.0003142269281220362
0.0003142268292395951
0.0003142268520800487
0.0003142268579072214
0.0003142268183865291
0.0003142268416092289
0.0003142267583552828
0.0003142267715024212
0.0003142267666095747
0.0003142267241806114
0.0003142267996901312
0.0003142267201659854
0.0003142267495682987
0.0003142267281368119
0.0003142266833251359
0.0003142266594597354
0.0003142266928085484
0.0003142266257215649
0.0003142266850908181
0.0003142266303299895
0.0003142266680231971
0.0003142266652951214
0.0003142266731000314
0.0003142266815111215
0.0003142267093725835
0.0003142267147698363
0.0003142267509844517
0.000314226821227198
0.0003142267252883842
0.0003142268040079352
0.0003142267089688605
0.0003142267072674124
0.000314226696851176
0.0003142266075522411
0.0003142266765689701
0.000314226595408434
0.0003142266786386229
0.0003142266150418887
0.0003142266804098923
0.0003142266664278424
0.0003142266826108261
0.0003142266818661898
0.0003142266872963148
0.000314226735084411
0.0003142267106997892
0.0003142267523779369
0.000314226728607827
0.0003142267609193135
0.0003142267559062812
0.0003142267715918655
0.0003142267394507102
0.0003142266778446967
0.000314226608252527
0.0003142264614042115
0.0003142264105534818
0.000383094484326905
0.000383095778938595
0.0003830940751532386
0.0003830951326218381
0.0003830945723848173
0.000383094791962518
0.0003830947199496963
0.0003830946745851033
0.000383094685486973
0.0003830944897341212
0.0003830944763745695
0.0003830945330132863
0.000383094362560205
0.0003830945804396871
0.0003830943480131506
0.0003830944213784221
0.0003830942903842416
0.0003830943002290915
0.0003830941578876592
0.0003830942810043959
0.0003830940814926829
0.0003830942394562833
0.0003830940921947992
0.0003830941435189461
0.0003830941778939227
0.0003830941877088202
0.0003830942475021632
0.00038309423378723
0.0003830944025287719
0.0003830943510055686
0.0003830946162185374
0.0003830943851368571
0.0003830944430777302
0.000383094395916347
0.0003830941980946914
0.0003830943678315289
0.0003830939955520951
0.000383094269578639
0.0003830940145243707
0.0003830942315971415
0.0003830941352306533
0.0003830941695172135
0.0003830942574197894
0.0003830941890473765
0.0003830943508587508
0.0003830942302751536
0.0003830944437602155
0.0003830943673505537
0.0003830944305108498
0.0003830943989912791
0.000383094479165471
0.0003830944506227839
0.0003830944738279993
0.000383094268375592
0.0003830940773130691
0.0003830938275932588
0.0003830934376228067
0.0003830933624383746
0.0004878627339570353
0.0004878624418067709
0.0004878616593426267
0.0004878623610313723
0.0004878618458402316
0.0004878619929496402
0.0004878619334145062
0.0004878618398216546
0.0004878618142654362
0.0004878617688623342
0.000487861706675902
0.0004878617997779346
0.0004878617016184987
0.0004878617694200731
0.0004878617617341421
0.0004878615852736267
0.0004878615362262105
0.0004878615936106234
0.0004878614980600339
0.0004878615076713625
0.0004878615894187151
0.0004878614689283732
0.0004878615310685311
0.0004878614500609459
0.0004878614799740399
0.000487861562092157
0.0004878615699283887
0.00048786156059882
0.0004878618095422487
0.000487861742188381
0.0004878618587350216
0.0004878619168422752
0.0004878615748763268
0.0004878618686225815
0.0004878614643863313
0.0004878617288994216
0.0004878614948442436
0.0004878615824971371
0.0004878615823981769
0.0004878614735588942
0.0004878617560116303
0.0004878614754420466
0.0004878617414795615
0.0004878615842367017
0.0004878617658095017
0.0004878617315678698
0.0004878618080145126
0.0004878619375339574
0.0004878617968694508
0.0004878619581798149
0.0004878619224152265
0.0004878618829347806
0.0004878619279112442
0.0004878615269363924
0.0004878613661953673
0.000487861256087128
0.0004878612143654247
0.0004878614587511721
0.0005931408741766729
0.0005931400644351871
0.0005931397663152855
0.0005931402101315835
0.0005931397087612318
0.0005931397766779445
0.0005931396721712904
0.0005931395977905358
0.0005931395969822787
0.0005931396913983143
0.0005931395778605655
0.0005931396555084624
0.0005931396429214357
0.0005931395511914234
0.000593139749200584
0.0005931394478948668
0.0005931394448931631
0.0005931394225453137
0.0005931394441037141
0.0005931394650436017
0.000593139665036255
0.0005931394494737333
0.0005931395114643124
0.0005931394640514826
0.0005931395011173165
0.0005931395666792855
0.0005931395103554784
0.000593139520592014
0.000593139796200854
0.0005931396792173733
0.0005931396883762041
0.0005931399761642803
0.0005931393484060323
0.0005931399139980155
0.0005931394080108287
0.0005931396611171867
0.0005931396900860931
0.0005931395733044408
0.0005931397834485633
0.0005931394221527179
0.0005931399754267335
0.0005931394686937911
0.0005931398472159702
0.0005931395856869708
0.000593139822862989
0.0005931398388536481
0.0005931398040022053
0.0005931400778574709
0.0005931397869753435
0.0005931400715643522
0.0005931399509671014
0.0005931399192515978
0.0005931399762436869
0.0005931394761544398
0.0005931394610294055
0.0005931394172494925
0.0005931394335957071
0.0005931397308610225
0.0006949725330965957
0.000694971842560529
0.0006949715234816972
0.0006949718065472411
0.0006949715116739299
0.0006949713235525864
0.0006949713216684964
0.0006949712924138987
0.000694971129447422
0.0006949714566408752
0.0006949712495440609
0.0006949712880099568
0.0006949714161695929
0.0006949711430766892
0.0006949715900165903
0.0006949711084239382
0.0006949711319439349
0.0006949711482959194
0.0006949711882847
0.0006949711933320782
0.0006949715364363928
0.0006949711851551617
0.0006949714389203672
0.0006949711947480361
0.0006949712357938228
0.0006949713096197948
0.0006949711799012458
0.0006949712004279871
0.0006949715626996861
0.0006949713267269068
0.0006949713152868023
0.0006949718272931831
0.0006949709449861323
0.0006949717909125869
0.0006949711490899839
0.0006949714571959995
0.000694971670684417
0.0006949713667773042
0.000694971734154917
0.0006949711142529986
0.0006949719180772691
0.0006949711742625564
0.0006949716647266854
0.0006949714415989855
0.0006949716664848118
0.0006949717033374024
0.0006949716071686348
0.0006949719776447883
0.0006949715589733608
0.0006949719535138032
0.0006949717397505726
0.0006949717480168867
0.0006949717730942441
0.0006949712848113325
0.0006949713190368413
0.0006949712681277414
0.0006949713308223412
0.0006949715241514225
0.0007958894051439891
0.0007958892771497844
0.0007958886117082331
0.0007958888897863108
0.0007958886238145949
0.0007958883873890059
0.0007958883688170016
0.0007958883492339559
0.0007958882568625358
0.000795888703541033
0.0007958882682322495
0.0007958884577981426
0.0007958885782196411
0.0007958880894497797
0.000795888800501636
0.0007958881269591116
0.0007958881636798599
0.0007958883604414027
0.0007958883119504425
0.0007958882775992153
0.0007958887702330089
0.0007958882503719546
0.0007958887208824312
0.0007958881679660488
0.0007958883233390336
0.0007958884301413242
0.0007958882082396271
0.0007958882618571855
0.0007958887173238061
0.0007958881506323451
0.0007958882126474109
0.0007958889792862695
0.0007958878445848399
0.0007958889989372834
0.0007958882623807376
0.0007958886578333723
0.0007958890275458573
0.0007958885211223371
0.0007958890838307594
0.0007958881779556332
0.0007958892615916471
0.0007958882412766714
0.0007958889383888276
0.0007958885456000953
0.000795888846209085
0.0007958888932648047
0.000795888747664121
0.0007958892097366629
0.0007958886362221492
0.0007958891559687797
0.0007958888182946934
0.0007958888981564007
0.0007958888085857672
0.0007958883693964279
0.000795888414078247
0.0007958883395674443
0.000795888564016384
0.0007958886581374708
0.0009035850245808846
0.0009035851899945808
0.0009035843856591628
0.000903584839003164
0.0009035842356699909
0.0009035841590773868
0.0009035839492273329
0.0009035840340914015
0.000903583948693037
0.0009035844857966254
0.0009035838938218252
0.0009035840979115452
0.0009035842583388529
0.0009035836405150956
0.0009035844857136787
0.0009035836861513151
0.000903583691230566
0.0009035841114702424
0.0009035839154271577
0.00090358385158258
0.0009035844182981869
0.0009035837952257528
0.0009035842940710063
0.0009035836938868412
0.0009035837924204771
0.0009035838774588556
0.0009035837417336543
0.0009035837077974628
0.0009035843112881718
0.0009035836133298641
0.0009035836942311283
0.000903584589902277
0.0009035834198373139
0.0009035846977962566
0.0009035839133619702
0.0009035843823747486
0.0009035847512955423
0.0009035841417556425
0.0009035847324239924
0.000903583766340336
0.0009035849348472813
0.0009035838505001971
0.0009035846207719674
0.0009035842354426573
0.0009035845951726516
0.0009035844914477683
0.0009035843850710422
0.0009035848086829303
0.0009035842315194258
0.0009035847514216359
0.0009035843701361201
0.0009035845853390009
0.0009035842116917802
0.0009035839650973036
0.000903583961994691
0.0009035839507236126
0.0009035842581089935
0.0009035844821528909
0.001046769508336869
0.001046768785806524
0.00104676861837608
0.00104676869547368
0.001046768085604009
0.001046767953145839
0.001046767767814422
0.001046767724706845
0.001046767799534382
0.001046767860743884
0.001046767598493546
0.001046767648732894
0.001046767451652758
0.001046767408140812
0.00104676758854408
0.001046767130198334
0.00104676719478361
0.001046767355315604
0.00104676721197699
0.001046767209294736
0.001046767390521407
0.001046767104632848
0.001046767193710658
0.00104676679093613
0.001046766842347563
0.001046766769616214
0.001046766779161098
0.001046766910041447
0.001046767042811147
0.001046766880577166
0.001046767113492384
0.001046767498664639
0.001046767262053041
0.00104676788751351
0.001046767663211622
0.001046767907422142
0.001046767914753458
0.001046767557068287
0.001046767676672526
0.001046767453798415
0.00104676780624441
0.001046767505425946
0.001046767788237935
0.001046767775357874
0.001046767611238575
0.001046767551345623
0.001046767602512507
0.001046767749769613
0.001046767569124877
0.001046767751796008
0.001046767597203175
0.001046767651484908
0.001046767332177392
0.001046767316015007
0.001046767357877217
0.001046767619122842
0.001046768212305721
0.001046768782759931
0.001230995705112669
0.001230994783194665
0.001230994744790595
0.001230994573833439
0.001230993945070846
0.001230993795321371
0.00123099367658161
0.001230993604468828
0.001230993691664721
0.001230993497136995
0.001230993297656507
0.001230993245903041
0.001230992997095761
0.001230993047246938
0.001230992997277415
0.001230992626155301
0.00123099275629116
0.001230992753845867
0.001230992612006817
0.001230992652529768
0.001230992637026894
0.001230992405947818
0.001230992295396915
0.001230991954080514
0.001230991973046224
0.001230991952600838
0.001230991969983798
0.001230992249497605
0.001230992235735929
0.001230992289169486
0.001230992738531315
0.001230992955668071
0.001230992965268152
0.00123099347245939
0.001230993378856014
0.001230993616595536
0.001230993265479049
0.001230992994120515
0.001230992993168138
0.00123099295106527
0.001230993095995506
0.001230993041256537
0.001230993259246624
0.001230993256597569
0.001230992943718703
0.001230992962981796
0.001230992965112129
0.001230993049116774
0.001230992999510025
0.001230993089015106
0.001230992986821006
0.001230992968546369
0.001230992768154815
0.001230992776152107
0.001230992997315794
0.001230993513945243
0.001230994326841162
0.001230995065017204
0.001466402405173139
0.001466401412742976
0.001466401339719005
0.001466401000140891
0.001466400390682518
0.001466400236476368
0.001466400126372213
0.001466400087936339
0.001466400118300625
0.001466399744800011
0.0014663994911631
0.001466399418949459
0.001466399090060917
0.001466399179126966
0.001466398973485409
0.00146639868085509
0.001466398900824753
0.00146639872315069
0.001466398583149777
0.001466398678688982
0.001466398406982307
0.001466398145847436
0.001466397984070858
0.001466397663733178
0.001466397689859047
0.001466397666972711
0.001466397709292292
0.001466398041634463
0.001466397940022698
0.001466398144996471
0.001466398863381394
0.001466398936203603
0.001466399192438353
0.001466399677493818
0.00146639965675109
0.001466399833777218
0.001466399254942897
0.001466399021694819
0.001466398984894494
0.001466399025366818
0.001466399061216521
0.001466399078623408
0.001466399266926216
0.001466399189852037
0.0014663988426915
0.001466398874517977
0.001466398912644449
0.001466398976519794
0.001466398969616126
0.001466399044478554
0.001466398917508927
0.00146639886464924
0.001466398746506128
0.001466398825767015
0.001466399285193476
0.001466400061689105
0.001466401021341605
0.00146640180377562
0.001772031057440728
0.001772030031343836
0.001772029980697652
0.001772029413119302
0.001772028872801884
0.001772028699759673
0.001772028589568391
0.001772028525649831
0.001772028484462607
0.001772027955051999
0.001772027614077025
0.001772027526673199
0.001772027123269149
0.001772027210537046
0.001772026918611587
0.001772026651167189
0.001772026883343261
0.001772026608587165
0.001772026457664012
0.001772026538833508
0.001772026110895683
0.001772025816183078
0.001772025609958944
0.001772025288392116
0.001772025350967278
0.001772025363076341
0.001772025411684386
0.001772025819627718
0.001772025762091097
0.001772026121505583
0.001772027075415328
0.001772027024146995
0.001772027478512519
0.00177202789128181
0.001772027833708105
0.001772027922992318
0.001772027181655
0.001772026986958244
0.001772026930235374
0.001772027021185123
0.001772026976638177
0.001772027061355744
0.001772027220427881
0.001772027100346599
0.001772026779453223
0.00177202682231467
0.001772026901747693
0.001772026941957625
0.001772026944566164
0.001772027028738999
0.00177202689426372
0.001772026865955215
0.00177202681687389
0.001772027023042305
0.001772027728899968
0.001772028703709408
0.001772029769591092
0.001772030534196736
0.002174252134583383
0.002174251106030264
0.002174251031307929
0.002174250289737813
0.002174249882054716
0.002174249661985987
0.002174249542759024
0.002174249382404644
0.002174249256164984
0.002174248540783492
0.002174248104041503
0.002174247977450691
0.002174247491279551
0.002174247580318479
0.0021742472158179
0.002174246971252972
0.002174247188633285
0.002174246824097958
0.002174246637783163
0.002174246667751831
0.002174246080447705
0.002174245789292982
0.002174245536325266
0.002174245233647773
0.002174245326688919
0.002174245352102355
0.002174245392094929
0.00217424587266956
0.002174245850076293
0.002174246370471138
0.002174247504762957
0.002174247433636135
0.002174248090662825
0.002174248427245989
0.002174248336300134
0.002174248351881244
0.002174247489843812
0.00217424735116272
0.002174247269945005
0.002174247348657279
0.002174247261437376
0.002174247381714795
0.002174247467655234
0.002174247328613988
0.002174247032980125
0.00217424709329473
0.002174247230827809
0.00217424725820468
0.0021742473161041
0.002174247396370756
0.00217424728510343
0.00217424727485339
0.002174247296088374
0.002174247656963916
0.00217424864619436
0.002174249769701302
0.002174250902791817
0.002174251625296349
0.002702128864693426
0.002702127899557661
0.002702127783229324
0.002702126945456523
0.002702126640602352
0.00270212634818469
0.002702126198060872
0.002702125895878133
0.002702125677115914
0.002702124781609223
0.002702124223680638
0.002702124008373451
0.002702123458460426
0.002702123510372998
0.002702123077697221
0.002702122835711988
0.002702122996740623
0.002702122541862299
0.002702122305902775
0.00270212226708021
0.002702121573486178
0.002702121281308385
0.002702120992598969
0.002702120713329639
0.002702120815640694
0.002702120851210279
0.002702120893165163
0.002702121471451062
0.002702121536042614
0.002702122178303817
0.002702123514854937
0.002702123497719379
0.002702124258762641
0.002702124541659804
0.002702124389797354
0.002702124321391077
0.00270212342682325
0.002702123294597731
0.002702123183251623
0.002702123211611651
0.002702123104666793
0.002702123220848173
0.002702123272210863
0.002702123163602676
0.002702122902176079
0.002702123014962287
0.002702123199735439
0.002702123270762748
0.002702123352236463
0.00270212343307274
0.002702123374474606
0.002702123393358822
0.00270212350411928
0.002702124019342468
0.002702125270997414
0.002702126495310594
0.00270212767827616
0.002702128367217321
0.003382552361403911
0.00338255149745671
0.003382551388309015
0.003382550579368504
0.003382550346593346
0.003382549956468788
0.003382549765473306
0.003382549275486911
0.003382548953367192
0.003382547824902908
0.003382547148413404
0.003382546764488738
0.003382546152851299
0.003382546132277169
0.003382545613502153
0.003382545350690272
0.00338254542306315
0.003382544864484388
0.003382544554227907
0.003382544441563386
0.003382543650048214
0.003382543385059902
0.003382543058148477
0.003382542841330013
0.003382542934811344
0.003382542998396258
0.003382543023126982
0.003382543662899876
0.003382543784510431
0.003382544550587671
0.003382546063177743
0.003382546148027931
0.003382547019708825
0.003382547285228441
0.003382547101015841
0.003382546985798701
0.003382546085529754
0.003382545937087404
0.003382545787398875
0.003382545773374817
0.003382545661856105
0.003382545746144276
0.003382545773667537
0.003382545694387333
0.003382545484434647
0.003382545655878035
0.00338254590685551
0.003382546064074996
0.003382546160076899
0.003382546278042495
0.003382546261426018
0.00338254631440454
0.003382546496577682
0.003382547157458093
0.00338254864815088
0.003382549927661271
0.003382551168333993
0.003382551835689236
0.004229481506208693
0.004229480805825645
0.004229480717092672
0.004229480053442388
0.00422947983928673
0.004229479350235665
0.004229479105547123
0.004229478379780113
0.004229477944053515
0.004229476514866859
0.004229475797737144
0.004229475132830814
0.004229474478056144
0.004229474338116785
0.0042294737362304
0.004229473359936163
0.004229473272238106
0.004229472631888726
0.00422947219597874
0.004229471988978363
0.00422947118978524
0.004229470953435413
0.00422947061035472
0.004229470488470067
0.00422947054921814
0.004229470658206805
0.004229470634719445
0.004229471313719611
0.004229471463027262
0.004229472346118695
0.004229474036532277
0.00422947424476384
0.004229475267671389
0.004229475544892542
0.00422947534436552
0.004229475205114126
0.004229474329758329
0.004229474159134205
0.004229473926304341
0.004229473860842314
0.00422947377774661
0.004229473808079603
0.004229473816249565
0.004229473779420381
0.00422947362665274
0.004229473911409719
0.004229474241323796
0.00422947451142346
0.004229474643792057
0.004229474818970899
0.004229474824833872
0.004229474942622031
0.004229475185318099
0.004229475952793362
0.004229477655643303
0.004229478952672627
0.004229480277693282
0.004229480909030654
0.00524811733008465
0.005248116817704333
0.005248116699111896
0.00524811627631792
0.005248116246421236
0.005248115531994032
0.005248115373913882
0.005248114251548325
0.005248113794631076
0.005248111868920277
0.00524811129238173
0.005248110141046459
0.005248109496373632
0.005248109157967367
0.005248108523366554
0.005248107848836886
0.005248107663584926
0.005248106828662303
0.005248106232153732
0.005248105979444126
0.005248105142608727
0.005248105002851407
0.005248104733519197
0.00524810471642854
0.005248104722346603
0.005248104961576792
0.005248104776200077
0.005248105584477818
0.00524810553627226
0.005248106632136564
0.005248108499581566
0.005248108731911275
0.005248110040818914
0.005248110315206598
0.005248110081967985
0.005248109971574269
0.005248109105542281
0.005248108987639612
0.005248108657151107
0.005248108519224616
0.005248108484726569
0.00524810853228614
0.005248108451490616
0.005248108552360692
0.005248108359415188
0.005248108831931322
0.005248109271082973
0.005248109679231797
0.005248109882572224
0.005248110149560413
0.005248110138001471
0.005248110416103429
0.005248110643459498
0.005248111513022313
0.005248113411238211
0.005248114589328451
0.005248116108809343
0.005248116545336966
0.006411082844300673
0.006411082507027905
0.006411082608143546
0.006411082366995692
0.006411082451403863
0.006411081556336449
0.006411081264121338
0.006411079896753133
0.006411079310184161
0.006411077299673093
0.006411076597425031
0.006411075272058024
0.006411074386067548
0.0064110738481706
0.006411073035100164
0.006411071995101285
0.006411071570776795
0.006411070486522586
0.006411069654254904
0.006411069264789945
0.00641106832395728
0.006411068174728237
0.006411068089468053
0.006411068046176237
0.006411068007391794
0.006411068350897054
0.006411068144631406
0.006411068839187313
0.006411068783275043
0.006411069877376111
0.00641107190512435
0.006411072469240916
0.006411074040554028
0.006411074533701458
0.006411074385066889
0.006411074339926981
0.006411073547215327
0.006411073245550487
0.006411072862596922
0.006411072538425268
0.006411072509241076
0.006411072508632498
0.00641107240625001
0.006411072610463385
0.006411072436462156
0.006411072875116209
0.006411073394162809
0.006411073971575923
0.006411074243718414
0.006411074652802567
0.006411074637293012
0.006411074926792258
0.006411075188113555
0.006411076167135099
0.006411078041109066
0.006411079438199588
0.006411081261477936
0.00641108176398925
0.007586248487399973
0.007586248046317513
0.007586248838577361
0.007586248757827137
0.007586248925094231
0.007586247982258989
0.007586247445307537
0.00758624590489819
0.007586245135437375
0.007586243358824334
0.007586242412756932
0.007586241177953624
0.007586239859780591
0.007586239144823203
0.00758623788877504
0.007586236629570952
0.007586235727955403
0.007586234259180844
0.007586233060143919
0.007586232413236796
0.007586231287523767
0.00758623124559972
0.00758623108830398
0.007586230746426777
0.007586230988346799
0.007586231271589246
0.007586231242292379
0.007586231444066263
0.007586231727780448
0.007586232719246351
0.007586234782577376
0.007586235955118314
0.007586237691864355
0.007586238749859375
0.007586238548179106
0.007586238765572439
0.007586238154158277
0.007586237371152119
0.007586236914877523
0.007586236441146314
0.007586236344061769
0.007586236134398443
0.007586236129429451
0.007586236348393965
0.007586236265914098
0.007586236472646424
0.007586236825449522
0.007586237479285023
0.007586237885995975
0.007586238272154848
0.007586238852703752
0.007586238694762166
0.007586239105222859
0.007586240198224294
0.007586241864071945
0.007586243801463742
0.007586245872193711
0.007586246963940608
0.008698286419142134
0.008698286124062898
0.008698287397433658
0.008698287426187327
0.0086982877287579
0.008698286928696682
0.008698286363633146
0.008698284683474418
0.008698283736557224
0.008698282143021754
0.008698281095031974
0.008698279942215725
0.008698278233256298
0.008698277341634822
0.00869827564425284
0.008698274280647468
0.008698272745436199
0.008698270808755923
0.008698269193543705
0.008698268198192062
0.008698266901082803
0.008698266832750689
0.008698266374548029
0.008698266189931202
0.008698266456437906
0.008698266691051375
0.008698266751357243
0.008698266785955424
0.00869826724985439
0.008698268144610796
0.008698270204916187
0.00869827182742283
0.008698273624624548
0.008698274871961193
0.008698275631862243
0.00869827519038169
0.008698275465273552
0.00869827407143353
0.008698273330509664
0.008698272824195477
0.008698272732901214
0.008698272582265612
0.008698272390284607
0.008698272555013683
0.008698272491977539
0.008698272866017293
0.008698272700573904
0.008698273455295599
0.008698273897019174
0.00869827435487513
0.008698275290580787
0.008698275000838973
0.008698275459187523
0.008698276777377558
0.008698278125718212
0.008698280624264339
0.008698282867992334
0.00869828448671086
0.009717827921681037
0.009717828123548263
0.009717829763439729
0.009717829809554917
0.009717830235479947
0.009717830031869455
0.009717829198852742
0.00971782761083898
0.009717826552160734
0.00971782510521523
0.009717824077346254
0.009717822973112899
0.009717821038181956
0.009717819953314586
0.009717817879370236
0.009717816428059824
0.009717814245088968
0.009717811786971828
0.009717809815023036
0.009717808300749215
0.009717806768051061
0.009717806496427754
0.009717806438229006
0.009717805962171085
0.009717806246413118
0.009717806131756103
0.009717806157687551
0.009717806439281575
0.009717806874939427
0.00971780785466317
0.009717809901781969
0.009717811861695898
0.009717813714112396
0.009717815257158761
0.009717816396437408
0.00971781604688683
0.009717816534176974
0.009717815142396891
0.009717814040076685
0.009717813912966652
0.009717813110917344
0.009717812826761395
0.009717812882985529
0.009717812834339003
0.009717812856176957
0.009717813277039281
0.009717812909146297
0.00971781351682185
0.009717814017093648
0.009717814582657195
0.00971781570844785
0.009717815539851522
0.009717816046432917
0.00971781786796908
0.009717818646660782
0.009717821606896883
0.009717823959021021
0.009717825954940676
0.0106341414866605
0.01063414227877444
0.01063414432806517
0.01063414382977102
0.01063414470970649
0.01063414439395015
0.01063414428278081
0.01063414314957673
0.01063414164448108
0.01063414037738703
0.01063413947624421
0.01063413839192857
0.01063413646495366
0.01063413517920078
0.01063413279343576
0.01063413128446143
0.01063412847698527
0.01063412547037292
0.01063412311582448
0.01063412101803237
0.01063411918673599
0.01063411873332173
0.01063411860143955
0.01063411869256156
0.01063411802924022
0.010634118567235
0.01063411822098478
0.01063411858133205
0.01063411917411157
0.01063412009002348
0.01063412214759468
0.01063412437257448
0.01063412622252705
0.01063412794024004
0.01063412869558008
0.01063412961757876
0.0106341294959811
0.01063412916812647
0.01063412737963737
0.01063412676705937
0.01063412606514602
0.01063412589603399
0.01063412594449352
0.01063412514278955
0.01063412534764846
0.01063412578483321
0.01063412545055711
0.01063412595300255
0.01063412649529789
0.01063412721094672
0.01063412859018931
0.01063412815060759
0.01063412897438256
0.01063413084745157
0.0106341319220521
0.01063413501503183
0.01063413748537249
0.01063413973157371
0.01144393186552711
0.0114439330036767
0.01144393525684371
0.01144393473311676
0.0114439356890163
0.01144393555297848
0.01144393535609092
0.01144393519456919
0.01144393353210617
0.0114439323726812
0.0114439316976207
0.01144393060319975
0.01144392888297073
0.01144392748177384
0.01144392484724073
0.01144392331644885
0.01144391993191428
0.01144391635156138
0.011443913582545
0.01144391086715188
0.01144390866625204
0.01144390811465534
0.01144390782784295
0.01144390781517315
0.01144390742887327
0.01144390784763025
0.01144390791449196
0.01144390795795562
0.01144390869885049
0.01144390946806054
0.0114439114543322
0.01144391391234866
0.01144391571416952
0.01144391751276536
0.01144391840846222
0.01144391987527305
0.01144391907893779
0.01144391949610276
0.01144391754293393
0.01144391698840867
0.01144391627532422
0.01144391580329112
0.0114439157654281
0.01144391461762334
0.01144391463134281
0.01144391487185016
0.01144391505337626
0.01144391546350395
0.01144391573699158
0.01144391657462383
0.01144391814807022
0.01144391780984582
0.01144391876074011
0.01144392038868948
0.01144392242354227
0.01144392541624085
0.01144392804349515
0.01144393051367903
0.01214666146422637
0.01214666282238898
0.01214666499305263
0.01214666495308598
0.01214666553926658
0.01214666564330332
0.01214666579529319
0.01214666512887326
0.01214666458337367
0.01214666353899848
0.01214666311356643
0.01214666194735374
0.01214666063735399
0.01214665925115496
0.01214665648211448
0.01214665492031034
0.01214665103456967
0.01214664684762446
0.01214664364786771
0.01214664029880442
0.01214663774732596
0.01214663724417019
0.01214663634720849
0.01214663614039755
0.01214663622777955
0.01214663657172091
0.01214663689721982
0.01214663673709509
0.01214663766473252
0.0121466386921343
0.01214664031606569
0.01214664296550032
0.01214664473678202
0.01214664643798696
0.01214664751723876
0.01214664915182372
0.01214664824237011
0.01214664890104165
0.01214664726468095
0.0121466472009504
0.01214664617518025
0.01214664563152189
0.01214664469114563
0.01214664339234697
0.01214664358324905
0.0121466430448365