/*--------------------------------*- C++ -*----------------------------------*\
| =========                 |                                                 |
| \\      /  F ield         | OpenFOAM: The Open Source CFD Toolbox           |
|  \\    /   O peration     | Version:  v1812                                 |
|   \\  /    A nd           | Web:      www.OpenFOAM.com                      |
|    \\/     M anipulation  |                                                 |
\*---------------------------------------------------------------------------*/
FoamFile
{
    version     2.0;
    format      ascii;
    class       volScalarField;
    location    "10000";
    object      p;
}
// * * * * * * * * * * * * * * * * * * * * * * * * * * * * * * * * * * * * * //

dimensions      [0 2 -2 0 0 0 0];


internalField   nonuniform List<scalar> 
3132
(
6.676821304873185e-08
-2.388814829700249e-07
1.664019702423299e-07
1.256216576415952e-07
8.863195922684585e-08
5.339315992985299e-08
-2.378607350018086e-07
-3.660708092426323e-07
-5.374244980483488e-07
-5.784994915482168e-07
-4.156338389611449e-07
-3.768363972492559e-07
-1.765393082816842e-07
-1.483595780830455e-07
-1.971492327518351e-07
-2.486136158443876e-07
-3.403229563101039e-07
-3.213775204916444e-07
-1.600404747980991e-07
-1.289398977487495e-07
-1.035974000923921e-07
-9.105550834887467e-08
-9.448927919188023e-08
-9.192841652055552e-08
-1.328579283187633e-07
-8.48566357451477e-08
1.455024117918377e-07
2.861020231944706e-07
5.68916463384547e-07
5.744015481847648e-07
3.586865068131668e-07
2.330312378980201e-07
9.962374248144586e-08
-3.62455542421625e-08
-1.823538309703311e-07
-1.736292683623735e-07
-5.20529647524637e-08
-5.699100750172135e-08
-9.027533809688873e-09
1.507214423688715e-07
2.950379219999916e-07
4.31357486393057e-07
4.794883631900959e-07
5.157324337814151e-07
7.605726273344088e-07
8.022565175364079e-07
7.293301148004956e-07
6.931608223192508e-07
6.795468186933874e-07
6.233948831635602e-07
6.765937186834714e-07
6.582972237212597e-07
6.897525409205874e-07
7.129349157772839e-07
8.007501245239908e-07
8.183845841001848e-07
9.264663901246505e-07
1.317515590333415e-06
8.595650200774215e-08
-2.111596976987802e-07
1.661262726745609e-07
1.248522373443047e-07
8.939493732058214e-08
5.334490202096502e-08
-2.371959657471861e-07
-3.658820901871302e-07
-5.371039687417248e-07
-5.77560556371999e-07
-4.152886549631807e-07
-3.764590269771156e-07
-1.773384261818725e-07
-1.487732631953421e-07
-1.969540673316792e-07
-2.47234617213745e-07
-3.387665423338084e-07
-3.199719561026258e-07
-1.598781515018927e-07
-1.29077288481885e-07
-1.034794845857142e-07
-9.136114678125837e-08
-9.437806282427426e-08
-9.131852817595649e-08
-1.31873415170152e-07
-8.437327046896769e-08
1.444814421612362e-07
2.838013336218067e-07
5.652699290020214e-07
5.725518583569856e-07
3.578791719301097e-07
2.330084169697485e-07
1.002069240382718e-07
-3.563158181492857e-08
-1.803796521647478e-07
-1.728903630967801e-07
-5.09609086263757e-08
-5.638060645882085e-08
-7.339512231821815e-09
1.508100551810165e-07
2.949802946586613e-07
4.310744510398325e-07
4.781502083682173e-07
5.145865546588705e-07
7.585262266088096e-07
8.018440023420811e-07
7.289967573792473e-07
6.934944215437166e-07
6.794972601499443e-07
6.229833442540609e-07
6.761323477674716e-07
6.57292101324837e-07
6.892264449130171e-07
7.12619475638925e-07
8.010393978440171e-07
8.198750528789134e-07
9.264992302211026e-07
1.290497504858031e-06
7.882108993331107e-08
-1.809183366574461e-07
1.689181340150769e-07
1.231967837542388e-07
9.05986635836962e-08
5.287075126155168e-08
-2.362783948597036e-07
-3.654273975628708e-07
-5.364175753417447e-07
-5.75447781723361e-07
-4.147771419313126e-07
-3.758762915916869e-07
-1.789269536361657e-07
-1.496651995403755e-07
-1.963111959134164e-07
-2.442779491925162e-07
-3.358643723346598e-07
-3.17318224368392e-07
-1.601556301814661e-07
-1.29444623561608e-07
-1.034223507800855e-07
-9.196268158181524e-08
-9.413563687989976e-08
-9.032895328663683e-08
-1.303347475029461e-07
-8.402501767579733e-08
1.42086822855198e-07
2.786225274651652e-07
5.586318992366345e-07
5.69047642621649e-07
3.570362116566723e-07
2.333975050258798e-07
1.014587775091023e-07
-3.374871734183804e-08
-1.76842705166014e-07
-1.711560796475262e-07
-4.933835871389748e-08
-5.525856644690703e-08
-4.466784517630933e-09
1.501624362258271e-07
2.946091152490934e-07
4.297137551380755e-07
4.755718028174945e-07
5.119694945615159e-07
7.549564405924308e-07
8.008953943285877e-07
7.285393234697723e-07
6.940863271241353e-07
6.791631468847019e-07
6.224262234902795e-07
6.750914416368107e-07
6.557466209015447e-07
6.884744079527287e-07
7.125141820600309e-07
8.019953858721139e-07
8.230687638230027e-07
9.307149324099016e-07
1.261439130148214e-06
7.003906175891188e-08
-1.547166073282343e-07
1.729877178527954e-07
1.221810687171655e-07
9.260650782794932e-08
5.246777311934743e-08
-2.345281834631495e-07
-3.649478899648658e-07
-5.352819315159129e-07
-5.717926232659781e-07
-4.138440517044735e-07
-3.741906484938903e-07
-1.812346479861153e-07
-1.508987242871141e-07
-1.954207880095638e-07
-2.402099286106299e-07
-3.310343748245287e-07
-3.122738503933913e-07
-1.601558122189036e-07
-1.296361240043546e-07
-1.034599508763549e-07
-9.275228557331652e-08
-9.374563347901787e-08
-8.87849039363339e-08
-1.27775861447954e-07
-8.294805211076843e-08
1.385937738699033e-07
2.712060701069964e-07
5.479161499453665e-07
5.618518040313026e-07
3.551479651434209e-07
2.331234552491097e-07
1.032223287098682e-07
-3.119810869231654e-08
-1.712304052757041e-07
-1.676738339633659e-07
-4.651129157450371e-08
-5.287956317348524e-08
5.430391156221574e-10
1.502399559942475e-07
2.94265978030865e-07
4.276413761605007e-07
4.71624235728565e-07
5.084994730251295e-07
7.494242989583215e-07
7.985161395416289e-07
7.277162924698975e-07
6.945927134426465e-07
6.78354043469597e-07
6.212929301617726e-07
6.731017398859592e-07
6.531647622968665e-07
6.869301433928979e-07
7.118728563698602e-07
8.028537237476956e-07
8.269434698817443e-07
9.372928421994951e-07
1.237198091677803e-06
6.606237524966616e-08
-1.299005020707258e-07
1.760226198147859e-07
1.220045614593532e-07
9.472277856125586e-08
5.174879175762389e-08
-2.324836365189795e-07
-3.644280659783659e-07
-5.338121168969816e-07
-5.675270530549748e-07
-4.129812122979079e-07
-3.725645515620252e-07
-1.839996836151501e-07
-1.522345909462352e-07
-1.939729202129765e-07
-2.352366647527394e-07
-3.253211847845946e-07
-3.065741271631629e-07
-1.606733991210841e-07
-1.301273840771413e-07
-1.037559501101867e-07
-9.362907709226331e-08
-9.33291693700815e-08
-8.701325140696546e-08
-1.252756597748171e-07
-8.235342443051101e-08
1.33602532811478e-07
2.618209261290854e-07
5.352455771462839e-07
5.534443092036709e-07
3.537560965077604e-07
2.333254191674299e-07
1.060364150041287e-07
-2.751235462319627e-08
-1.643998718489061e-07
-1.634488367261863e-07
-4.366944622219983e-08
-5.019503924913279e-08
6.085353061247127e-09
1.497399423200708e-07
2.93204987727351e-07
4.244496335410941e-07
4.665872352497781e-07
5.043012315920103e-07
7.429327322206788e-07
7.955251646714761e-07
7.26993586296979e-07
6.950342984355795e-07
6.773476016840575e-07
6.200193443713842e-07
6.706168374331598e-07
6.504897832645112e-07
6.855056999063423e-07
7.117529405370392e-07
8.04253996359966e-07
8.308448087108707e-07
9.435913781107119e-07
1.214951093810161e-06
6.553105180504778e-08
-1.040510126458606e-07
1.782601572041119e-07
1.22838357589619e-07
9.786120750101635e-08
5.129767180728828e-08
-2.295080873027138e-07
-3.638111300960953e-07
-5.317677371532452e-07
-5.620000771991019e-07
-4.116976429990217e-07
-3.700483227400824e-07
-1.871543917399834e-07
-1.534889130709944e-07
-1.92133214297891e-07
-2.29260527896122e-07
-3.177517689962319e-07
-2.985641561034984e-07
-1.605411332962952e-07
-1.304236745607898e-07
-1.041604419635679e-07
-9.448101069822479e-08
-9.259872704363953e-08
-8.457445582493473e-08
-1.21998900171146e-07
-8.130187340860484e-08
1.274257283285705e-07
2.504236822692813e-07
5.186608681312682e-07
5.410934502881213e-07
3.507087227602212e-07
2.328478045162497e-07
1.094159557530314e-07
-2.30663198618583e-08
-1.55343911695761e-07
-1.573954589620285e-07
-3.957488838703766e-08
-4.628121098321214e-08
1.387806376083329e-08
1.503241066446985e-07
2.922680208003253e-07
4.204457999194399e-07
4.601312256954834e-07
4.994765453192567e-07
7.344910483471111e-07
7.908578275090222e-07
7.257901564938937e-07
6.953151105942152e-07
6.759403114048018e-07
6.181768576824464e-07
6.671775242074008e-07
6.470149801829562e-07
6.83460549848679e-07
7.112160176448888e-07
8.056454366005837e-07
8.351802327443235e-07
9.497562686750133e-07
1.192412197615335e-06
6.808843923340976e-08
-7.763150999071928e-08
1.793763506783748e-07
1.24262177548229e-07
1.011063659333914e-07
5.064427933143063e-08
-2.263396874053004e-07
-3.631137023104376e-07
-5.294239287914745e-07
-5.562952903771394e-07
-4.106108617053446e-07
-3.679310879411739e-07
-1.905090612137249e-07
-1.54505666935138e-07
-1.896125880251922e-07
-2.225627195672629e-07
-3.095864360442327e-07
-2.902888065503393e-07
-1.608407675151641e-07
-1.311363443904162e-07
-1.048322029993143e-07
-9.528571798812779e-08
-9.175239749165531e-08
-8.198086020698576e-08
-1.191716905089597e-07
-8.114628202971059e-08
1.19640808554426e-07
2.373723721524123e-07
5.006179790381161e-07
5.279039136656359e-07
3.481038269430656e-07
2.331746054346771e-07
1.139959979064021e-07
-1.733732650216663e-08
-1.45191424536955e-07
-1.508218872964006e-07
-3.569009466239389e-08
-4.232442270834626e-08
2.197901493992431e-08
1.502735722155051e-07
2.905171788326298e-07
4.15177066099805e-07
4.525701416913884e-07
4.940559894959708e-07
7.25216937872949e-07
7.856807343259155e-07
7.247384830529054e-07
6.955880871260826e-07
6.744403584463914e-07
6.16278481191906e-07
6.633288851726634e-07
6.436886106620543e-07
6.816725228901859e-07
7.113066897526343e-07
8.076231789086264e-07
8.397650540357582e-07
9.553607593542536e-07
1.169768030221389e-06
7.338352014864515e-08
-4.91177226143668e-08
1.803217713420885e-07
1.268013085058414e-07
1.055729854817685e-07
5.074749902376826e-08
-2.221840042369845e-07
-3.620599180673426e-07
-5.263041228024355e-07
-5.493540181379658e-07
-4.090299853621418e-07
-3.64990897203519e-07
-1.940098425534218e-07
-1.551014484667308e-07
-1.865155328694128e-07
-2.147229181223268e-07
-2.993309645852762e-07
-2.793863829660154e-07
-1.599730906972072e-07
-1.314707505436643e-07
-1.05570092022732e-07
-9.579027175782406e-08
-9.027005426834365e-08
-7.845269631399165e-08
-1.155301354402425e-07
-8.054396168379844e-08
1.10638397826375e-07
2.222119561939237e-07
4.782915422388427e-07
5.098096992355906e-07
3.427688456391675e-07
2.324680894371985e-07
1.190277429919321e-07
-1.069471692220734e-08
-1.325195993822989e-07
-1.42017442002929e-07
-3.021218907102804e-08
-3.675660408242625e-08
3.269268676226603e-08
1.518615799453845e-07
2.893246598877692e-07
4.090068184081234e-07
4.436144266261682e-07
4.879791149339246e-07
7.137983376837871e-07
7.783621198496866e-07
7.229904843353922e-07
6.956571581824778e-07
6.725973961128259e-07
6.138188715161564e-07
6.584507017565216e-07
6.395405337133582e-07
6.789585058356604e-07
7.1051180435138e-07
8.092019691005953e-07
8.451043099163608e-07
9.611119317151499e-07
1.145750626693859e-06
8.178020278626829e-08
-1.983745832230812e-08
1.805126967066509e-07
1.301361249392048e-07
1.09972302740468e-07
5.079701594469905e-08
-2.179967335002025e-07
-3.608756162854e-07
-5.229020083458771e-07
-5.424209595397618e-07
-4.077759196511384e-07
-3.626432487858533e-07
-1.975528104915783e-07
-1.551602402980883e-07
-1.824924361499527e-07
-2.060809713247725e-07
-2.88442349567331e-07
-2.683549580834873e-07
-1.59569448228746e-07
-1.323899345411534e-07
-1.065829778459797e-07
-9.608966138732562e-08
-8.856080338061009e-08
-7.484514182905835e-08
-1.127326458537792e-07
-8.129923572135938e-08
9.949404862064674e-08
2.050961158792354e-07
4.542469732164549e-07
4.908236261945701e-07
3.379314816007544e-07
2.330361811312393e-07
1.256940768415582e-07
-2.358134642830929e-09
-1.1856829347996e-07
-1.327038554371881e-07
-2.499330527485031e-08
-3.115399612696442e-08
4.349601974665533e-08
1.525873563212415e-07
2.870321278600266e-07
4.010548752037691e-07
4.332492725864823e-07
4.811311899864213e-07
7.013753890600241e-07
7.704979122391182e-07
7.214553731073544e-07
6.957633173147366e-07
6.706969459649747e-07
6.112542391888135e-07
6.531395502893496e-07
6.35557854940828e-07
6.764402971180736e-07
7.10334285020668e-07
8.113278165081801e-07
8.510025317486781e-07
9.666765361461799e-07
1.121328896124674e-06
9.429592586421798e-08
1.256013176375555e-08
1.808371178836635e-07
1.352358166311405e-07
1.156566957014575e-07
5.195505941967026e-08
-2.126870152271541e-07
-3.590232262518586e-07
-5.183715243220897e-07
-5.341469549324735e-07
-4.060825837581017e-07
-3.596278089053026e-07
-2.010779900561938e-07
-1.544441246221433e-07
-1.772312287227626e-07
-1.956165858187891e-07
-2.748273908210864e-07
-2.543320580378117e-07
-1.578017661782415e-07
-1.328956850582781e-07
-1.075788342620779e-07
-9.574805415269697e-08
-8.585138905968694e-08
-7.006759823641763e-08
-1.093538123834374e-07
-8.203016596108238e-08
8.611687494505324e-08
1.846581184977833e-07
4.245457723059097e-07
4.658086657468108e-07
3.296842636048396e-07
2.32692864264461e-07
1.332621906480095e-07
7.743105795505063e-09
-1.01375933101213e-07
-1.205700337958032e-07
-1.778091975259835e-08
-2.333835142571431e-08
5.699985242623716e-08
1.549819868750137e-07
2.852610532577248e-07
3.914884270861397e-07
4.210078590566129e-07
4.729713804728101e-07
6.861610694205036e-07
7.600130112126558e-07
7.190722618899725e-07
6.95643064723923e-07
6.685196167054348e-07
6.081130324227052e-07
6.466483480989753e-07
6.306401280968502e-07
6.72633497075193e-07
7.090515775656976e-07
8.129792628907126e-07
8.579988311143606e-07
9.722902283423598e-07
1.094383402954367e-06
1.117417645582994e-07
4.681644834564006e-08
1.807554807758486e-07
1.419173481770334e-07
1.215264598486905e-07
5.335566599732193e-08
-2.0705762274914e-07
-3.569289544929114e-07
-5.133519507818539e-07
-5.257981970317473e-07
-4.047939991588059e-07
-3.571442997161656e-07
-2.045037173047848e-07
-1.52728547247558e-07
-1.702602355586755e-07
-1.836191705738496e-07
-2.597097868261675e-07
-2.396140124484358e-07
-1.563465837913681e-07
-1.34080498706466e-07
-1.088196302819237e-07
-9.495027528576236e-08
-8.264843133620894e-08
-6.512033809161512e-08
-1.07172471558618e-07
-8.472961205076896e-08
6.907816389603548e-08
1.606039564199523e-07
3.909550390917289e-07
4.384533183143744e-07
3.214053885201011e-07
2.340991076783521e-07
1.433768914616246e-07
2.074627190910973e-08
-8.182572307848662e-08
-1.071685857519088e-07
-1.036274643791414e-08
-1.487510654973737e-08
7.079528352843762e-08
1.565356200856536e-07
2.820292550607201e-07
3.790244015363539e-07
4.063153998110438e-07
4.631151188809995e-07
6.688846778512144e-07
7.484366367071796e-07
7.167894431512347e-07
6.955931633024035e-07
6.662920595968778e-07
6.04644548175044e-07
6.393068405282957e-07
6.254440051322484e-07
6.685541116793099e-07
7.08323251624715e-07
8.153343860861641e-07
8.662133586540851e-07
9.778700325485783e-07
1.065910363890716e-06
1.359881259407179e-07
8.510016045406887e-08
1.814838123520786e-07
1.513219161829635e-07
1.293897770122615e-07
5.690685566308471e-08
-1.993405178271517e-07
-3.534965669337128e-07
-5.066215270197524e-07
-5.161362563192493e-07
-4.031253680270193e-07
-3.540509270185024e-07
-2.075720791924126e-07
-1.49701236834394e-07
-1.607124498060093e-07
-1.68558661089857e-07
-2.405416164556162e-07
-2.210632546533846e-07
-1.528760290459119e-07
-1.34466158451222e-07
-1.097565474384259e-07
-9.31075611693227e-08
-7.791257968102828e-08
-5.855784366009687e-08
-1.045426375568318e-07
-8.781124880191729e-08
4.81591245620845e-08
1.310161908162861e-07
3.488509326950144e-07
4.028162788241074e-07
3.081388196023774e-07
2.343162347591586e-07
1.549814213156796e-07
3.704998285044766e-08
-5.783358002052074e-08
-8.976843398054736e-08
-2.083266402316852e-10
-2.932914691363581e-09
8.774260463764893e-08
1.60471058005855e-07
2.796695320040368e-07
3.643317027902073e-07
3.88955585892066e-07
4.506161309800615e-07
6.475428439275274e-07
7.334272603734867e-07
7.133647517268526e-07
6.95384138992531e-07
6.64067185246664e-07
6.006680378861982e-07
6.303878758010069e-07
6.18755340404388e-07
6.621982346893181e-07
7.058168861360302e-07
8.169108079838716e-07
8.756886870907587e-07
9.828626410811778e-07
1.033822750378572e-06
1.680515720759607e-07
1.258392693668556e-07
1.832268637668777e-07
1.634912426660701e-07
1.389683497273655e-07
6.247730710576456e-08
-1.896513825204403e-07
-3.491202413830043e-07
-4.990432645472753e-07
-5.0669864008966e-07
-4.018839357143804e-07
-3.51092109214834e-07
-2.100102248878347e-07
-1.44871152838209e-07
-1.479398519066954e-07
-1.507438303593826e-07
-2.181098478974034e-07
-2.003014089735202e-07
-1.482636653255402e-07
-1.347628357310432e-07
-1.10602468522123e-07
-9.046374355111273e-08
-7.204208751099351e-08
-5.1176424989773e-08
-1.026964073327472e-07
-9.277282452726836e-08
2.218672763351307e-08
9.551816067115539e-08
2.98986857261858e-07
3.611231308446128e-07
2.918459911136083e-07
2.351323430465027e-07
1.694476286317546e-07
5.7869634735545e-08
-2.999844633774075e-08
-6.934933068041977e-08
1.140260060925262e-08
1.147480066011726e-08
1.062517365607706e-07
1.656442746487208e-07
2.770381207971028e-07
3.466498967110153e-07
3.68170213887045e-07
4.348074947778225e-07
6.222517204966575e-07
7.159742344070005e-07
7.094642080177931e-07
6.954165000075781e-07
6.6233255585348e-07
5.964151951542624e-07
6.19851100607534e-07
6.104311402856585e-07
6.537175740066797e-07
7.022671606512005e-07
8.181689347948871e-07
8.86414877617826e-07
9.874147364277027e-07
9.999668712088086e-07
2.085521986263964e-07
1.688673841091768e-07
1.875097143227729e-07
1.788043090926367e-07
1.521888226097193e-07
7.274685908011174e-08
-1.754959360577357e-07
-3.419071978397145e-07
-4.893752278631527e-07
-4.971216335947008e-07
-4.007235042926888e-07
-3.477236407115564e-07
-2.113629893222675e-07
-1.380532496218387e-07
-1.307771423135793e-07
-1.288018820142548e-07
-1.905469435953098e-07
-1.752855510663901e-07
-1.401242826322801e-07
-1.330784426323499e-07
-1.104179297483894e-07
-8.65792134573702e-08
-6.416903998950379e-08
-4.170154915067531e-08
-1.000616696042563e-07
-9.793215047076374e-08
-8.135123782545215e-09
5.31257086885359e-08
2.386511838232854e-07
3.092028427333196e-07
2.678901476989696e-07
2.330203525974428e-07
1.849262817963942e-07
8.313300464173798e-08
2.349653149022546e-09
-4.418078105285979e-08
2.616544114936734e-08
3.060865593538178e-08
1.282315090927272e-07
1.753567009787856e-07
2.771706580841285e-07
3.284970873642626e-07
3.449979218129048e-07
4.151236650325741e-07
5.919236129836427e-07
6.944422384119274e-07
7.0397464495008e-07
6.956418794241392e-07
6.618497955071032e-07
5.926473814012632e-07
6.079110993145758e-07
5.998104975654108e-07
6.412009506529967e-07
6.949057303144067e-07
8.168036114378273e-07
8.966400943479602e-07
9.897843363147244e-07
9.644222838909585e-07
2.564944106961736e-07
2.121897962314967e-07
1.953258811524766e-07
1.969663331956471e-07
1.69650093552e-07
8.86383927327484e-08
-1.559332579400569e-07
-3.313585873479648e-07
-4.783628380946929e-07
-4.889827700094041e-07
-4.005578589063479e-07
-3.444967049364835e-07
-2.11325478389595e-07
-1.289737699686478e-07
-1.087229986798225e-07
-1.030372516409143e-07
-1.586020782368321e-07
-1.471265315293639e-07
-1.283299925205622e-07
-1.292296323707413e-07
-1.08969541573171e-07
-8.172092380433957e-08
-5.456885082466158e-08
-3.043755963200958e-08
-9.659151539554113e-08
-1.032502010373324e-07
-4.194761923102201e-08
4.59526773100223e-09
1.691589893369314e-07
2.482355505908289e-07
2.363226484201927e-07
2.274794558718797e-07
2.010568235050417e-07
1.127519140509632e-07
3.793950084258459e-08
-1.52614929065975e-08
4.314680686732208e-08
5.368721529516173e-08
1.529343638394746e-07
1.902457823533655e-07
2.810526012152237e-07
3.117795043131374e-07
3.201395826757209e-07
3.915308973962951e-07
5.567251901379438e-07
6.691365269702239e-07
6.969468573216414e-07
6.963925119172774e-07
6.638186824993192e-07
5.904968407262893e-07
5.952770226340158e-07
5.86739010004955e-07
6.241376178784318e-07
6.829024598985461e-07
8.11575751422222e-07
9.045697962664698e-07
9.892866871439353e-07
9.300661137528349e-07
3.087284964867212e-07
2.538848846472981e-07
2.073765598462651e-07
2.169812050968101e-07
1.923483042170459e-07
1.124246275983377e-07
-1.28593298467329e-07
-3.150622093836583e-07
-4.650421941551204e-07
-4.824047025396501e-07
-4.01860111743603e-07
-3.417394195208299e-07
-2.09905669095506e-07
-1.181892678293681e-07
-8.157664306544209e-08
-7.302647364816433e-08
-1.222539839771894e-07
-1.157877761167493e-07
-1.117141092865151e-07
-1.216759800805972e-07
-1.052430228062026e-07
-7.596286713739683e-08
-4.330856928283108e-08
-1.695661703484021e-08
-9.104693325415584e-08
-1.069301243261713e-07
-7.640015402880161e-08
-4.83481166454865e-08
9.224316793249158e-08
1.781875668193798e-07
1.952242869057512e-07
2.153190425522731e-07
2.152765838420763e-07
1.44920924501515e-07
7.518421888428219e-08
1.665855273108248e-08
6.196508358281208e-08
8.032615792261031e-08
1.802044453967224e-07
2.117779593503304e-07
2.915526843447152e-07
3.011182656113923e-07
2.967977468511796e-07
3.654385427282387e-07
5.176049716248547e-07
6.396175459922865e-07
6.875116685957855e-07
6.974528544561545e-07
6.694997954604039e-07
5.919997894782171e-07
5.840939892041366e-07
5.725117437372583e-07
6.024372137147525e-07
6.644355657816573e-07
7.998758119166631e-07
9.065295922816111e-07
9.833885024965335e-07
8.983010031211756e-07
3.613879521586488e-07
2.927727385449501e-07
2.237164991000473e-07
2.380960831566241e-07
2.204896695097651e-07
1.452019209352599e-07
-9.198492560420699e-08
-2.913845246454935e-07
-4.493274419696452e-07
-4.779342226831019e-07
-4.057369497723302e-07
-3.401711565934049e-07
-2.075010470134796e-07
-1.062408204823703e-07
-4.99540148724398e-08
-3.920126011168733e-08
-8.246488271329527e-08
-8.214626644661166e-08
-9.032641947663391e-08
-1.098223912818453e-07
-9.880679425693312e-08
-6.963108979137617e-08
-3.109071281919457e-08
-1.460315196329723e-09
-8.250566384402268e-08
-1.074697666450949e-07
-1.081725796435012e-07
-1.027742978728112e-07
1.104259488355529e-08
1.007180479408321e-07
1.446406113502924e-07
1.946074534089338e-07
2.257083547215311e-07
1.775136413602186e-07
1.120652994156161e-07
4.973866183183629e-08
8.108139898127474e-08
1.084899966305503e-07
2.09113714605656e-07
2.401247413662418e-07
3.107626415223747e-07
3.005528503867101e-07
2.782159612039503e-07
3.389949848791094e-07
4.757768670218663e-07
6.05664932613319e-07
6.749560503838433e-07
6.983873587256883e-07
6.801800568983253e-07
5.993581807521e-07
5.767086862940674e-07
5.588422176400469e-07
5.768834827141933e-07
6.388874754249331e-07
7.796955765806347e-07
8.993364368126625e-07
9.704188734849391e-07
8.699688344286978e-07
4.097671717639196e-07
3.276126731649597e-07
2.433739645860228e-07
2.590730302276843e-07
2.534544508146461e-07
1.878373760045087e-07
-4.439029626801253e-08
-2.580409674084331e-07
-4.298646898240574e-07
-4.748658841542482e-07
-4.131029379954546e-07
-3.405314068895841e-07
-2.049586109574776e-07
-9.437401805841902e-08
-1.530950697936568e-08
-2.044784160775006e-09
-3.999929606356862e-08
-4.689895439915247e-08
-6.467710268308144e-08
-9.304291831271089e-08
-8.920584119018202e-08
-6.304949452123001e-08
-1.90424512900909e-08
1.552256650399875e-08
-7.043974890432819e-08
-1.033271857421009e-07
-1.335483961609468e-07
-1.548947023810547e-07
-7.044288442508628e-08
1.840233198697424e-08
8.545910174586804e-08
1.63585129827995e-07
2.302604400454454e-07
2.078815494934103e-07
1.466704647497451e-07
8.204736205093667e-08
9.866021896671376e-08
1.354050292228426e-07
2.377636299776855e-07
2.737876212103729e-07
3.39840330522199e-07
3.13949773131983e-07
2.687945044203198e-07
3.157691196520613e-07
4.336421443448679e-07
5.672473479870877e-07
6.58033200366506e-07
6.978388586717365e-07
6.961915332191758e-07
6.146272802297828e-07
5.761311305510597e-07
5.489520374478411e-07
5.499136186443766e-07
6.068204039168692e-07
7.49721335654367e-07
8.802329654203489e-07
9.484463022846846e-07
8.438116648432315e-07
4.499265052711039e-07
3.577957644839938e-07
2.650665207874964e-07
2.793399241568954e-07
2.900596123935219e-07
2.402557298822623e-07
1.537488212709891e-08
-2.132592169043084e-07
-4.052799559854133e-07
-4.722357582784656e-07
-4.249141186818328e-07
-3.436589913204014e-07
-2.031014826346677e-07
-8.360055201780246e-08
2.063929810802721e-08
3.769603902472932e-08
4.443980949048739e-09
-1.067921535558037e-08
-3.59873452134215e-08
-7.141356683723056e-08
-7.623621150768876e-08
-5.629753661078082e-08
-8.416098639706346e-09
3.308369196062774e-08
-5.498244559832443e-08
-9.379255759167871e-08
-1.498917211236269e-07
-2.013621829826925e-07
-1.487534379266082e-07
-6.596862132391087e-08
1.950919542491331e-08
1.218860991796054e-07
2.277667878640873e-07
2.341077920985263e-07
1.777562230597075e-07
1.120298822556462e-07
1.129498301567453e-07
1.581538390624027e-07
2.639057543728025e-07
3.103116375306325e-07
3.785511565146895e-07
3.433382790437598e-07
2.721438433047617e-07
2.993461404703493e-07
3.93571375085612e-07
5.242965288119431e-07
6.352251699074608e-07
6.93761347898309e-07
7.169575343158237e-07
6.390458107607755e-07
5.846778921579055e-07
5.458314811621578e-07
5.244291045627803e-07
5.699190818455207e-07
7.0991776560268e-07
8.480909501625295e-07
9.165620504036008e-07
8.172798937402816e-07
4.790020898538193e-07
3.821704571626523e-07
2.870545338469995e-07
2.982368833215101e-07
3.281903243199615e-07
3.012242975540564e-07
8.784315986031014e-08
-1.557779417049912e-07
-3.736038130376303e-07
-4.682695488157072e-07
-4.417094395645772e-07
-3.503807002761555e-07
-2.026247847623991e-07
-7.496546601612529e-08
5.590948951560937e-08
7.889774579905202e-08
5.029853680122589e-08
2.593582514295096e-08
-6.115395368019539e-09
-4.583331238890517e-08
-5.993447087868077e-08
-4.919637945964865e-08
-3.627636143569955e-10
4.995191540884878e-08
-3.728089741629644e-08
-7.951885907892807e-08
-1.562458963971036e-07
-2.398332489591252e-07
-2.210232252812773e-07
-1.490685075223644e-07
-5.012441528286531e-08
7.081423052899098e-08
2.182004606060411e-07
2.553774501387918e-07
2.0483320698618e-07
1.388858987863968e-07
1.227451091286907e-07
1.740727139955938e-07
2.845310366493363e-07
3.456331077713167e-07
4.241044468662752e-07
3.882663792989204e-07
2.906868588780925e-07
2.93117392738087e-07
3.587499817612572e-07
4.777835801780104e-07
6.051569173052699e-07
6.835233307050096e-07
7.403967011086274e-07
6.724103467941021e-07
6.035803311943424e-07
5.522244853352934e-07
5.041432567116642e-07
5.311984283210127e-07
6.618636432433906e-07
8.036524626124505e-07
8.750397075187939e-07
7.878828620494576e-07
4.957743125484081e-07
3.997411450216617e-07
3.077392481320806e-07
3.155988461776603e-07
3.656130617325932e-07
3.688184471254459e-07
1.730872868407722e-07
-8.485436626459687e-08
-3.331266363767176e-07
-4.612789294454733e-07
-4.639002886217202e-07
-3.615956089783929e-07
-2.03739693733767e-07
-6.878317858126361e-08
8.912150783696999e-08
1.204150636394921e-07
9.724877023338762e-08
6.265414359910499e-08
2.286749567288062e-08
-1.791113131861237e-08
-4.054192645155908e-08
-4.115120863953293e-08
4.568613062956708e-09
6.504501646544328e-08
-1.876399118267166e-08
-6.213667640046128e-08
-1.534279978469819e-07
-2.696552652604933e-07
-2.860084975331538e-07
-2.2845456841975e-07
-1.201875633876311e-07
1.279305569528424e-08
2.025228997221992e-07
2.72080229685804e-07
2.280915921771524e-07
1.626096831375122e-07
1.27658488763819e-07
1.81480202703528e-07
2.970218884539766e-07
3.758483550162371e-07
4.725511965468573e-07
4.463705455136263e-07
3.252291529008805e-07
2.993829402808185e-07
3.320623131543023e-07
4.290819714204773e-07
5.667638364167929e-07
6.64499327144124e-07
7.63824103489311e-07
7.13460964885795e-07
6.326471178731759e-07
5.696405063529664e-07
4.921505903764121e-07
4.937055000443931e-07
6.077468967246619e-07
7.488084277421487e-07
8.253235484054357e-07
7.539814606992945e-07
5.005558837642909e-07
4.095874396675643e-07
3.256957082420273e-07
3.313714822877744e-07
3.999336575489789e-07
4.400812208075091e-07
2.70408131233819e-07
-1.797690265362202e-10
-2.819915250581325e-07
-4.490180971581446e-07
-4.913578410515516e-07
-3.782178412124993e-07
-2.063809875070283e-07
-6.488721877295073e-08
1.193472728833377e-07
1.609975654303401e-07
1.452022265767611e-07
9.972758571287473e-08
4.916772198222718e-08
1.017201220729007e-08
-1.880030484190701e-08
-3.140986763051536e-08
6.426516358665037e-09
7.753484196778867e-08
-8.964841837640955e-10
-4.374189847635932e-08
-1.4342491602358e-07
-2.91511246167367e-07
-3.438700789053882e-07
-3.028443642779752e-07
-1.877022281219467e-07
-4.919484450439519e-08
1.824747579234854e-07
2.856111524791984e-07
2.483338286479986e-07
1.84053375008092e-07
1.28390706052517e-07
1.799603499582099e-07
2.994280634579355e-07
3.973981040730239e-07
5.188264209727521e-07
5.13546489204286e-07
3.750712603275768e-07
3.193981682100502e-07
3.16431617338698e-07
3.805474596079135e-07
5.197322855506779e-07
6.343736778374716e-07
7.840949724381359e-07
7.599840930028268e-07
6.702065402628699e-07
5.98282544244037e-07
4.910248086997659e-07
4.60514061139578e-07
5.499774243994862e-07
6.856933871170477e-07
7.694451581543079e-07
7.152922103915768e-07
4.946354332508022e-07
4.11392605026653e-07
3.398412380501985e-07
3.458618062094579e-07
4.292533743827664e-07
5.119253350421583e-07
3.787526203165816e-07
9.831546823560425e-08
-2.188012575398256e-07
-4.295827318112248e-07
-5.238830502173675e-07
-4.01347595237001e-07
-2.102263560751853e-07
-6.244521867031002e-08
1.464670441817999e-07
1.996792420461339e-07
1.94173419232085e-07
1.377670715177703e-07
7.142186059506898e-08
3.603578088654434e-08
4.205355793206006e-09
-1.921209752200588e-08
5.754264715340756e-09
8.707677112408229e-08
1.538686261227571e-08
-2.617098443405115e-08
-1.285445530160261e-07
-3.069148502684092e-07
-3.95851490189509e-07
-3.723174690640053e-07
-2.505761107096487e-07