/*--------------------------------*- C++ -*----------------------------------*\
| =========                 |                                                 |
| \\      /  F ield         | OpenFOAM: The Open Source CFD Toolbox           |
|  \\    /   O peration     | Version:  v1812                                 |
|   \\  /    A nd           | Web:      www.OpenFOAM.com                      |
|    \\/     M anipulation  |                                                 |
\*---------------------------------------------------------------------------*/
FoamFile
{
    version     2.0;
    format      ascii;
    class       surfaceScalarField;
    location    "10000";
    object      phi;
}
// * * * * * * * * * * * * * * * * * * * * * * * * * * * * * * * * * * * * * //

dimensions      [0 3 -1 0 0 0 0];
oriented        oriented;


internalField   nonuniform List<scalar> 
6152
(
-0.001309258858151106
-1.224566145734712e-08
-0.001309256136948924
-1.949935160948777e-09
-0.001309257113416306
8.894389608915703e-10
-0.001309256539554565
-4.052269140234354e-10
-0.001309256799410935
2.888307200334699e-10
-0.001309256560121163
-2.622769120125163e-10
-0.001309256559189716
-1.770005315397121e-10
-0.001309256528841828
8.355982726969433e-11
-0.001309256541071134
-2.199978448528436e-10
-0.001309256660750234
3.34867328566516e-10
-0.001309256719008185
6.436644661421638e-11
-0.001309256771644443
1.335774838893141e-10
-0.001309256804593751
1.561421732266452e-10
-0.001309256746536452
-2.453616650028837e-10
-0.001309256599162611
-9.427280149002876e-11
-0.00130925668992741
-3.839298441046555e-12
-0.001309256607243454
-3.186893841460538e-10
-0.001309256655624877
1.696273492622181e-10
-0.001309256689822545
-2.633707147608352e-11
-0.001309256612990478
4.453232764258075e-12
-0.001309256634314912
-4.852933903037141e-11
-0.001309256583667514
1.205956835583927e-10
-0.001309256642551259
4.600029944680794e-11
-0.001309256612001299
1.456461050207782e-10
-0.001309256700454272
1.414238367631759e-10
-0.001309256763505734
3.074726570265424e-10
-0.001309256949121511
4.978766421406841e-10
-0.001309256996401463
-6.665784582874083e-11
-0.00130925696247015
7.292685931264108e-10
-0.001309257063203927
-3.733451034889178e-10
-0.001309256778737726
-7.073999282084457e-11
-0.001309256939608661
-1.641432357608289e-10
-0.001309256705663111
-3.74137491218112e-10
-0.001309256686843198
-7.572450344388521e-11
-0.001309256656146547
-4.670108130348151e-10
-0.00130925648458059
1.441813410595273e-10
-0.001309256536837447
-5.474996500887962e-11
-0.001309256432150618
2.770185725261644e-10
-0.001309256723114694
2.130139998671657e-11
-0.001309256538424473
1.64078993800661e-10
-0.001309256741207724
2.617114106864313e-10
-0.001309256646311192
6.087452818163976e-11
-0.001309256594737716
1.697221596158152e-10
-0.001309256526202711
1.23021708440171e-10
-0.001309256631439435
5.754216921058658e-10
-0.001309256765945314
-1.976586989130222e-10
-0.001309256740607441
7.862354948075424e-11
-0.001309256884845652
-1.533028901545265e-10
-0.00130925680388977
-1.030542985488881e-10
-0.001309256809354705
2.071581332587138e-11
-0.001309256866838567
-1.275027755617675e-11
-0.001309256897814466
8.761528807288699e-11
-0.001309257072872617
1.629998665742428e-10
-0.001309257281150947
1.188984099733999e-10
-0.001309257417493286
4.566038796623476e-10
-0.001309258041805346
5.397858142112393e-10
-0.001309259297776915
1.482051230606597e-09
2.029309916914352e-09
-0.001360628235860037
-1.458777452190177e-08
-0.001360628341199236
-1.363615793764394e-09
-0.001360628585382005
1.061791548545552e-09
-0.001360628028313894
-7.640200530802403e-10
-0.001360628309909964
6.211521964719858e-10
-0.001360628061789194
-3.904255706390828e-10
-0.00136062802682205
-2.865701283164212e-10
-0.001360627996223516
2.162906944647929e-10
-0.001360627897405865
-4.457561823387247e-10
-0.001360627899637215
5.596076067619694e-10
-0.001360628056232091
2.997035811872158e-10
-0.001360627941806307
1.838560280802628e-10
-0.001360628133278502
4.532965078104834e-10
-0.00136062799964181
-4.951434607916516e-10
-0.001360627772958683
-3.421497066582701e-10
-0.001360628006685046
1.296123740047014e-10
-0.0013606277638287
-7.08147595261266e-10
-0.001360627730689681
2.882863907941969e-10
-0.00136062791509705
2.135143728163234e-10
-0.001360627697330957
-1.025000341492807e-10
-0.001360627800890242
6.496087617731039e-11
-0.001360627746222603
2.202196245744049e-10
-0.001360627785879944
1.186454778008116e-10
-0.001360627868469053
4.064012844386592e-10
-0.001360627914592307
3.439062694351099e-10
-0.001360628002774545
7.08106360659871e-10
-0.001360628285354161
1.172616866864017e-09
-0.00136062823991064
-8.540523761744202e-11
-0.001360628275201135
1.270441486997206e-09
-0.001360628630094149
-4.93850973364503e-10
-0.00136062806620572
-6.7742692177795e-10
-0.001360628408789899
-2.083888214313862e-10
-0.001360628124414529
-8.766448377862761e-10
-0.001360627995481066
-3.082735486331742e-10
-0.00136062803229959
-7.323394987411001e-10
-0.001360627544006224
-3.73208698636649e-11
-0.001360627720647155
1.546187011940232e-10
-0.001360627467362743
3.954241518601934e-10
-0.001360627868557468
3.961271264877711e-10
-0.001360627627335213
3.774083672742457e-10
-0.00136062786772122
7.456832969617419e-10
-0.001360627930798935
4.019320130725714e-10
-0.001360627745790268
3.025510779278896e-10
-0.001360627632908378
2.060365749152974e-10
-0.001360627621827468
9.882720418092801e-10
-0.001360627964050667
-1.326657328554668e-10
-0.001360627822365225
2.94697980055734e-11
-0.001360628147307758
-8.753043474597711e-11
-0.00136062814168849
-9.540280902494781e-11
-0.001360628139679661
-3.373173060736905e-11
-0.001360628300156713
9.494894440479118e-11
-0.001360628338438029
6.086054372364334e-11
-0.001360628660865617
3.687474263822495e-10
-0.001360628912485718
1.527394385062237e-10
-0.001360629088199348
7.10307278733855e-10
-0.001360629517347776
8.307672688902387e-10
-0.001360629879141134
1.853913201832574e-09
1.634631042322368e-09
-0.00140870438623256
-1.512356535345937e-08
-0.001408704787296154
-3.83876628131113e-10
-0.001408704601622161
8.232944881264234e-10
-0.001408704331066269
-9.444215740787098e-10
-0.001408704463759039
7.61387675783139e-10
-0.001408704283531529
-6.50484563229056e-10
-0.00140870419274366
-5.320194236111222e-10
-0.001408704138451375
2.064542798419225e-10
-0.00140870401512302
-7.573380640114384e-10
-0.001408703969105638
6.49456570652762e-10
-0.001408704167830019
4.816716860291564e-10
-0.001408703955401887
-1.484030824491026e-11
-0.001408704190926979
7.722574937633967e-10
-0.001408704033963407
-8.111283217604608e-10
-0.001408703778689642
-5.368028785615279e-10
-0.001408704103978075
3.978604642656807e-10
-0.001408703797067515
-1.205959717764488e-09
-0.001408703681894809
2.254382506783326e-10
-0.001408703858480925
3.030192264274575e-10
-0.001408703543981669
-3.760806239227598e-10
-0.001408703655148045
1.08844776018035e-10
-0.001408703615519037
2.965031972398346e-10
-0.001408703641133702
1.221276952859252e-10
-0.001408703807672945
6.893185033528816e-10
-0.00140870380878606
3.490120883249902e-10
-0.001408703872500448
9.089568441894147e-10
-0.001408704120893469
1.59807919414444e-09
-0.001408704006076596
-3.221081016107144e-10
-0.001408704037026311
1.899195758621803e-09
-0.001408704559378207
-2.343906823205553e-10
-0.001408703965636152
-1.034999346326764e-09
-0.001408704383795673
2.941685123040709e-11
-0.001408704146557501
-1.182177061470984e-09
-0.001408703969615451
-5.145672625260289e-10
-0.001408704084718639
-9.4830827781659e-10
-0.001408703453564809
-4.814007742284089e-10
-0.001408703661375994
2.595121206752698e-10
-0.001408703370654927
3.506929813296223e-10
-0.001408703775513611
5.391858640707314e-10
-0.001408703481239592
2.478231835025215e-10
-0.001408703669598904
9.05987847831676e-10
-0.001408703773795854
5.756303421300708e-10
-0.00140870352444401
1.938327168554022e-10
-0.001408703420473564
2.360406095053054e-10
-0.001408703380199808
1.264822987936475e-09
-0.001408703829334501
1.021529020668118e-10
-0.001408703686734791
-5.118945434506893e-11
-0.001408704037502625
5.047781211717302e-11
-0.001408704049566133
-1.126894367359853e-10
-0.001408704038779216
-8.17212232696527e-13
-0.001408704226098932
2.329080057805433e-10
-0.001408704264529328
1.929605283821288e-10
-0.001408704635598529
7.746017540075662e-10
-0.001408704880960729
3.884250100020898e-10
-0.001408704984160929
1.133179472880241e-09
-0.001408705164120577
9.800752472249235e-10
-0.001408705087861661
1.973112949947914e-09
9.413556196221425e-10
-0.001453724480346025
-1.565650650626275e-08
-0.001453724706144027
2.017664234162303e-10
-0.001453724456680771
5.280787017432671e-10
-0.00145372430438256
-9.314630946364018e-10
-0.001453724325702859
8.490801867001356e-10
-0.001453724225017754
-6.189685571974627e-10
-0.001453724127129173
-6.586892706754949e-10
-0.001453724063335511
2.888587902342037e-10
-0.001453723892998077
-9.952028071090045e-10
-0.001453723817361429
7.741019251209359e-10
-0.001453723989997029
7.521300670576899e-10
-0.001453723786487821
-5.722288242190826e-11
-0.001453724030401345
1.098048594178119e-09
-0.001453723852286963
-1.078779402309891e-09
-0.001453723586235156
-8.350149406024688e-10
-0.001453723835553151
5.606844641857829e-10
-0.001453723497247574
-1.650533874834184e-09
-0.001453723401406088
2.636405161680283e-10
-0.001453723598879014
5.805217557761737e-10
-0.001453723298417834
-5.621911462876035e-10
-0.001453723416886153
2.626248025811326e-10
-0.001453723377655782
3.918587076008935e-10
-0.001453723372883672
1.677176140164906e-10
-0.00145372354879033
1.039416024186932e-09
-0.001453723562096441
5.427663323001553e-10
-0.001453723691108319
1.338454426835264e-09
-0.001453723981981507
2.258094098942257e-09
-0.001453723991813662
-2.553559180528756e-10
-0.001453724046623102
2.344734442702067e-09
-0.0014537245227738
-1.557791758122184e-10
-0.001453723921355422
-1.750955665445688e-09
-0.001453724243148683
-2.523566025553306e-11
-0.001453723998925218
-1.647961564172291e-09
-0.001453723691817812
-9.410977763092794e-10
-0.001453723790025533
-1.072708097247228e-09
-0.001453723139055693
-8.7139993180149e-10
-0.001453723326526053
5.339403068960058e-10
-0.001453723057032941
4.090665426493336e-10
-0.001453723426457424
9.535721954295367e-10
-0.001453723237492125
4.898149592683546e-10
-0.001453723422698634
1.369845211844745e-09
-0.001453723591965008
1.047361521515643e-09
-0.00145372334986669
2.81613711372228e-10
-0.001453723319967568
3.996075535797003e-10
-0.001453723265951649
1.574441910959236e-09
-0.001453723666550604
2.941780943022295e-10
-0.001453723550085626
-1.033686505801448e-10
-0.001453723881738247
1.671738695640687e-10
-0.001453723937564914
-4.428292030281217e-11
-0.001453723932103512
-5.651006595318796e-11
-0.001453724129261307
3.857666032869992e-10
-0.001453724153512748
1.391051237549319e-10
-0.001453724472836877
9.708184106297509e-10
-0.001453724628992028
3.26590860265366e-10
-0.001453724606599645
1.142574413067119e-09
-0.001453724684313993
9.327503527098311e-10
-0.00145372459390887
1.826288655641608e-09
4.651366406154946e-10
-0.001497599914657536
-1.559941636917873e-08
-0.001497599967212821
6.624957406601106e-10
-0.00149759974324153
2.769598092379098e-10
-0.001497599643882486
-9.927257854932961e-10
-0.001497599606171688
8.002990947864815e-10
-0.001497599535163666
-7.975549666733412e-10
-0.001497599417474708
-9.166837086521483e-10
-0.001497599336385573
2.019998246989516e-10
-0.001497599203753791
-1.288457583466223e-09
-0.001497599109236181
7.600256888604695e-10
-0.001497599283910156
9.022337800950139e-10
-0.001497599052946538
-3.101732961512842e-10
-0.001497599253558954
1.355112877493239e-09
-0.001497599100146336
-1.364493540342926e-09
-0.001497598859846692
-1.02053481068847e-09
-0.001497599130290326
7.943534149096598e-10
-0.001497598828010075
-2.10992913306717e-09
-0.001497598680798611
1.203156052494889e-10
-0.001497598796210305
6.016081533879175e-10
-0.001497598487110023
-8.586034398641045e-10
-0.00149759857728075
2.980108143246776e-10
-0.001497598557422387
4.459807444971799e-10
-0.001497598564782377
1.494356417182895e-10
-0.001497598762757902
1.310436086064482e-09
-0.00149759876938523
5.288880122534386e-10
-0.001497598842886415
1.479993011091066e-09
-0.001497599049685747
2.564286836384625e-09
-0.00149759901004392
-4.01273377104889e-10
-0.001497599022240786
2.821960641841097e-09
-0.001497599537100621
2.500075319814301e-10
-0.00149759906668443
-1.992008784748282e-09
-0.001497599367163726
1.944173703970661e-10
-0.001497599208272018
-1.836384948893603e-09
-0.001497598945366759
-1.220543098390019e-09
-0.001497599065977792
-1.204149319298796e-09
-0.001497598451689233
-1.387713317569934e-09
-0.001497598593675962
5.970679856714094e-10
-0.001497598376831752
3.333024728714871e-10
-0.001497598673637487
1.024675182114624e-09
-0.001497598469282459
3.34697184368062e-10
-0.001497598569455123
1.400339371630302e-09
-0.001497598691922324
1.194164180544999e-09
-0.001497598460381876
1.545021608820627e-10
-0.001497598409747815
4.380304946479875e-10
-0.001497598376346015
1.754682867876274e-09
-0.001497598793512632
5.79911276776314e-10
-0.00149759874985642
-1.131287377560639e-10
-0.001497599048023314
3.053972745466528e-10
-0.001497599100508186
-2.133851169740117e-11
-0.001497599106532746
-8.661555691087945e-13
-0.001497599278758161
5.219453137822034e-10
-0.001497599311239189
2.690284592059157e-10
-0.001497599596500179
1.312872575947147e-09
-0.001497599772762396
5.312580928787604e-10
-0.001497599773344502
1.454903507805114e-09
-0.001497599862446984
1.033300442186235e-09
-0.001497599777397804
1.889107576539019e-09
1.735280854758391e-10
-0.001545004305441681
-1.583112364938594e-08
-0.001545004305695684
9.048100547653672e-10
-0.001545004096073983
4.436310499048031e-11
-0.001545003998979788
-9.609078518491125e-10
-0.001545003925235313
8.083645603706547e-10
-0.001545003882443241
-6.998418438953092e-10
-0.00154500379239033
-9.886199538617107e-10
-0.001545003697147634
2.373590863152387e-10
-0.001545003557619468
-1.430233443731377e-09
-0.001545003447738405
8.299700657807478e-10
-0.001545003579896635
1.148969993086868e-09
-0.001545003399259799
-3.398719897104998e-10
-0.001545003565096125
1.575839688248795e-09
-0.001545003420780755
-1.57339643616651e-09
-0.001545003184031044
-1.295370253390927e-09
-0.001545003341005534
8.832722132865023e-10
-0.00154500305996528
-2.456788735866392e-09
-0.00154500294763552
1.238881553703187e-10
-0.001545003074661366
8.281606288881197e-10
-0.001545002836970414
-9.779071450894035e-10
-0.001545002922154599
4.402677923264273e-10
-0.001545002896095268
5.36702246272514e-10
-0.00154500289426649
2.160960469411228e-10
-0.001545003058627593
1.648152836949948e-09
-0.001545003107850272
7.776888829280932e-10
-0.00154500323553927
1.891311861793027e-09
-0.001545003487635878
3.154352949379424e-09
-0.001545003591440209
-2.174330431009974e-10
-0.001545003627452002
3.139894609976245e-09
-0.001545004039491439
3.42409270564117e-10
-0.001545003598622185
-2.612857378306584e-09
-0.001545003760389219
-1.07102787443217e-11
-0.001545003578625994
-2.241394755749171e-09
-0.001545003236831054
-1.694159646434309e-09
-0.001545003290426904
-1.295403027751216e-09
-0.001545002748060997
-1.714407075704568e-09
-0.001545002837569265
8.225535101079489e-10
-0.001545002663612196
4.421033776955717e-10
-0.001545002908523206
1.379772039532304e-09
-0.001545002815968389
6.422725660759352e-10
-0.001545002935863264
1.831794382810721e-09
-0.001545003077309433
1.660415763167843e-09
-0.001545002899700585
3.145552012329003e-10
-0.001545002898921167
6.310798125529491e-10
-0.001545002881301019
2.042488046525792e-09
-0.001545003214284434
7.770582099774653e-10
-0.0015450031989665
-9.304682189951363e-11
-0.001545003468327146
4.104726195666426e-10
-0.001545003554586142
7.295567187439917e-11
-0.001545003582209289
-1.33447182577159e-11
-0.001545003749961403
6.547752828716296e-10
-0.001545003790299031
2.293372025580106e-10
-0.001545004012249169
1.411341771730089e-09
-0.001545004141815932
4.48587504140195e-10
-0.001545004076298937
1.377868109580204e-09
-0.00154500416217127
1.001544304835541e-09
-0.001545004123884698
1.73195420873937e-09
-1.656031898916487e-10
-0.001605547161975029
-1.556823389553346e-08
-0.001605547046235101
1.052754758252415e-09
-0.001605546816638083
-1.968287724020072e-10
-0.001605546770595069
-1.030728600850201e-09
-0.001605546653727804
6.517447955298768e-10
-0.001605546609663354
-9.003556238767198e-10
-0.001605546517888622
-1.235509055151206e-09
-0.001605546403801541
5.622013177789817e-11
-0.001605546326175828
-1.673690770097364e-09
-0.001605546202844792
7.262356583338424e-10
-0.001605546333524335
1.233708241910784e-09
-0.001605546147764672
-5.889395854343384e-10
-0.0016055462536887
1.718884082621006e-09
-0.001605546160311273
-1.77835726343872e-09
-0.001605545964127975
-1.436106161496954e-09
-0.001605546135838223
1.030926859728715e-09
-0.001605545918010993
-2.813921358657282e-09
-0.001605545745882606
-9.960932604646663e-11
-0.001605545776880356
7.3838515394351e-10
-0.001605545537990031
-1.245717837806588e-09
-0.001605545592102748
4.377036474036182e-10
-0.001605545589403376
5.620987401864641e-10
-0.001605545611595396
1.95152321667236e-10
-0.001605545771965486
1.823475724854395e-09
-0.001605545809910602
7.40434352833019e-10
-0.001605545848282547
1.903435089030533e-09
-0.001605545985180195
3.297118633096185e-09
-0.001605546013948999
-2.924554444822241e-10
-0.001605545987863672
3.474054729451378e-09
-0.00160554643371176
8.342885294029633e-10
-0.001605546164219261
-2.608146148917049e-09
-0.00160554633744469
2.100791530765114e-10
-0.001605546259230246
-2.285966868842902e-09
-0.001605546024717356
-1.916994640964857e-09
-0.001605546094134957
-1.421709245927578e-09
-0.001605545623358964
-2.173031694393858e-09
-0.001605545659118165
7.721090705286285e-10
-0.001605545528314497
3.317550903917794e-10
-0.001605545691782473
1.320239456518991e-09
-0.00160554555529217
4.194033977308503e-10
-0.001605545584047246
1.704891635105286e-09
-0.001605545638248678
1.661268509027578e-09
-0.001605545483361849
1.925110830561294e-10
-0.001605545440609425
6.150423456693852e-10
-0.001605545446601282
2.168678521873193e-09
-0.00160554580182153
1.069707319173818e-09
-0.001605545867725454
-7.708633495247403e-12
-0.001605546110588879
5.416807984692742e-10
-0.001605546186290799
1.141513814863845e-10
-0.001605546226464025
7.889534601651952e-11
-0.001605546369010384
7.681540532462558e-10
-0.001605546428484217
3.960327034737621e-10
-0.001605546625438126
1.702844917613078e-09
-0.001605546815358724
7.236993913558126e-10
-0.001605546802250051
1.707746582839423e-09
-0.001605546893492168
1.15908665049974e-09
-0.00160554681167547
1.793870939136376e-09
-2.538164952334329e-10
-0.001696178037329475
-1.553165713928599e-08
-0.001696177939132232
1.107615639760341e-09
-0.001696177697661225
-4.471647197210477e-10
-0.001696177655327569
-9.819210899972494e-10
-0.001696177502099319
5.973986981641084e-10
-0.001696177474174594
-7.825431087569873e-10
-0.001696177418685463
-1.228261130864863e-09
-0.001696177289353376
5.47618328067051e-11
-0.00169617722016756
-1.684660577275783e-09
-0.001696177096324991
7.671430880727294e-10
-0.001696177174263968
1.434700309228793e-09
-0.001696177046775745
-5.863771546973158e-10
-0.001696177106316377
1.809870061896885e-09
-0.00169617701514149
-1.91941465764216e-09
-0.001696176819231349
-1.666206527775209e-09
-0.001696176864278404
1.033388591891298e-09
-0.001696176680242245
-3.027910153953477e-09
-0.001696176556192615
-1.189053701351193e-10
-0.001696176612592878
9.052441751798805e-10
-0.001696176459680532
-1.274448608939746e-09
-0.001696176512975191
5.624380570125985e-10
-0.001696176497894721
6.510004845256559e-10
-0.001696176518032945
2.991001577652135e-10
-0.001696176643249613
2.127512258395053e-09
-0.001696176741412834
1.047257541136565e-09
-0.001696176855056332
2.281924123045782e-09
-0.001696177058040101
3.802931236075602e-09
-0.001696177247699953
-1.516304079783232e-11
-0.00169617724800247
3.66638515862131e-09
-0.001696177569779414
8.941392914445311e-10
-0.001696177295209941
-3.10813280332258e-09
-0.001696177320661487
-1.255254924241374e-10
-0.00169617717776198
-2.650601666314344e-09
-0.001696176863826622
-2.364539940135414e-09
-0.001696176856549308
-1.510893556043931e-09
-0.001696176467202976
-2.382575056923459e-09
-0.001696176461125616
9.329725277708533e-10
-0.001696176357706824
4.720625345077259e-10
-0.001696176486805822
1.612115937272671e-09
-0.001696176455023833
7.554532209149939e-10
-0.001696176540864975
2.128828661216464e-09
-0.001696176616386666
2.08407325111586e-09
-0.00169617653689172
4.525688909629363e-10
-0.001696176557511115
8.300347591865305e-10
-0.001696176572423622
2.436885722028347e-09
-0.001696176837394559
1.262236792491179e-09
-0.001696176902048167
6.892778113271417e-11
-0.001696177118199042
6.495479583676915e-10
-0.001696177224603579
2.235611725846485e-10
-0.001696177288999379
1.292506818227357e-10
-0.001696177433639574
8.870167910210174e-10
-0.001696177511766912
4.077524384814536e-10
-0.001696177653271612
1.723835503057019e-09
-0.001696177792808115
6.527325329066059e-10
-0.001696177698586883
1.563758574071958e-09
-0.001696177772094571
1.098789623228069e-09
-0.001696177716291349
1.568510290543984e-09
-6.174357087829832e-10
-0.001842314069991707
-1.504042763778482e-08
-0.001842313866613718
1.05187318077331e-09
-0.001842313572769733
-7.45812181307656e-10
-0.001842313593472967
-1.019586579952987e-09
-0.001842313389229898
3.514349751100616e-10
-0.001842313354255339
-9.666173600086789e-10
-0.00184231330097901
-1.419336655384657e-09
-0.001842313157159223
-1.749622444740103e-10
-0.001842313150340989
-1.833748774527913e-09
-0.001842313019342571
6.240435212472289e-10
-0.001842313084506206
1.456029434583052e-09
-0.001842312964820884
-7.770225360598201e-10
-0.001842312964123673
1.830981172060991e-09
-0.00184231292734108
-2.038178024855986e-09
-0.001842312781629096
-1.7682518444885e-09
-0.001842312819560443
1.054589348543902e-09
-0.001842312698826115
-3.25444100962977e-09
-0.001842312521912031
-3.61541023962236e-10
-0.001842312480332365
7.559117262734039e-10
-0.001842312321949695
-1.474517569481519e-09
-0.001842312349349475
5.456670375480049e-10
-0.00184231235961249
6.605220829283887e-10
-0.001842312406850952
3.034714274928112e-10
-0.001842312521627254
2.233532327737182e-09
-0.001842312606340392
1.044954373814775e-09
-0.001842312628976241
2.234929601637835e-09
-0.001842312704127408
3.849589418707737e-09
-0.001842312820934832
2.604096363575676e-11
-0.001842312746401173
3.834262146083903e-09
-0.001842313087621844
1.341694385269493e-09
-0.00184231298364477
-2.969708654708549e-09
-0.001842313049857559
3.354737656420241e-11
-0.001842313008202677
-2.637717085526051e-09
-0.001842312812773489
-2.53747245903815e-09
-0.001842312829635239
-1.6270036876274e-09
-0.001842312509816984
-2.72482172501202e-09
-0.001842312462641865
8.211845408580469e-10
-0.001842312377947666
3.319253871543302e-10
-0.001842312424187423
1.502368515622992e-09
-0.001842312340563223
5.504204766629912e-10
-0.001842312338500586
1.970014834862109e-09
-0.001842312319414098
2.002427378205111e-09
-0.001842312261619486
3.970377418547949e-10
-0.001842312261108155
8.176433722337153e-10
-0.001842312290118695
2.531113113326137e-09
-0.001842312579396855
1.532490058946352e-09
-0.001842312727582204
2.278912009881295e-10
-0.001842312929412166
7.867452821434375e-10
-0.001842313029160859
2.900869899817647e-10
-0.001842313100997781
2.454133511495053e-10
-0.001842313224475301
9.8458111764399e-10
-0.001842313315680222
5.818139681877245e-10
-0.001842313433873966
1.937467343618968e-09
-0.001842313634738401
9.36785568139076e-10
-0.001842313581607428
1.819118259637893e-09
-0.001842313641521133
1.234627879306299e-09
-0.001842313529595031
1.568591860007484e-09
-6.26876322288568e-10
-0.002076009489430355
-1.463384684876159e-08
-0.002076009318516615
9.51384042546377e-10
-0.002076008994770906
-1.076330615392256e-09
-0.002076009019777671
-9.584035156647932e-10
-0.002076008767065649
2.006181365179733e-10
-0.002076008739449368
-8.653093132224353e-10
-0.002076008720397367
-1.353140588958656e-09
-0.002076008568633032
-2.06783279866591e-10
-0.00207600859237224
-1.719575665897113e-09
-0.002076008470369935
6.373803082642443e-10
-0.002076008474851498
1.570790027775053e-09
-0.002076008404277071
-7.572346982829742e-10
-0.002076008345125806
1.785574778545192e-09
-0.002076008302562246
-2.123473055581553e-09
-0.002076008157186373
-1.936560762222906e-09
-0.002076008068517076
9.498111257212184e-10
-0.0020760079910767
-3.339993725070338e-09
-0.002076007859483454
-4.121389440538662e-10
-0.002076007829480828
8.22103909044597e-10
-0.002076007753896958
-1.437268165996291e-09
-0.002076007782624597
6.464750193152883e-10
-0.002076007782511961
7.446915036799876e-10
-0.002076007838785477
4.41706675082307e-10
-0.002076007929960878
2.490602720587323e-09
-0.002076008082633921
1.37710144267043e-09
-0.0020760081891119
2.556758509429666e-09
-0.002076008327692775
4.23192035137102e-09
-0.002076008599446304
3.815427523541171e-10
-0.002076008536034959
3.890541994637318e-09
-0.002076008753911644
1.373468346004869e-09
-0.002076008637633455
-3.296426634042854e-09
-0.002076008568096122
-3.478995904744959e-10
-0.002076008440422151
-2.958155968319653e-09
-0.002076008174930685
-2.916641490729151e-09
-0.002076008124573396
-1.718030441491569e-09
-0.002076007875781701
-2.841551228347902e-09
-0.002076007792652966
8.941982654712757e-10
-0.002076007717096625
4.325835833080483e-10
-0.002076007731773548
1.695479645322602e-09
-0.002076007728343499
8.433824780758604e-10
-0.002076007787710993
2.342474661985052e-09
-0.002076007791642417
2.341132018335936e-09
-0.002076007828882886
7.396814032621628e-10
-0.002076007908558657
1.070826224988092e-09
-0.002076007938258708
2.757715657714732e-09
-0.002076008151532853
1.730864641437792e-09
-0.002076008292836627
3.699761304169144e-10
-0.002076008475068068
9.227712083117421e-10
-0.00207600860516414
4.195618965422608e-10
-0.002076008705996402
3.692029464720994e-10
-0.002076008839210551
1.104430103658269e-09
-0.002076008957725914
6.646891239626812e-10
-0.002076009030324497
1.91111437495196e-09
-0.002076009180225919
8.930429163615505e-10
-0.002076009039912399
1.620810730128541e-09
-0.002076009075364323
1.119338038523239e-09
-0.002076008963568328
1.268363990435755e-09
-1.026769576680399e-09
-0.00242926681789407
-1.37999730569185e-08
-0.00242926655590357
7.684288708298203e-10
-0.002429266167941525
-1.459113494268245e-09
-0.002429266246804188
-9.38305718157084e-10
-0.002429265943914937
-1.341099090993396e-10
-0.002429265902208876
-1.02206652159756e-09
-0.002429265889205273
-1.472627245191735e-09
-0.002429265729780913
-4.514481153738217e-10
-0.002429265810379317
-1.754549373514675e-09
-0.002429265681388918
4.721481251911384e-10
-0.002429265661514423
1.507277856322131e-09
-0.002429265610225825
-8.763163542159384e-10
-0.002429265489721111
1.675013996593564e-09
-0.002429265503556232
-2.15374758885743e-09
-0.002429265409018582
-2.001199385013885e-09
-0.002429265274861786
8.072058578630822e-10
-0.002429265251484498
-3.424855047687762e-09
-0.002429265071314419
-6.430387351030639e-10
-0.002429264945935707
6.200559909653797e-10
-0.002429264863762837
-1.559561715216357e-09
-0.002429264864515728
6.147485014753611e-10
-0.002429264890526381
7.517411938692168e-10
-0.002429264976628758
4.904179487073952e-10
-0.002429265050924479
2.549994170741709e-09
-0.002429265197970995
1.446053656826952e-09
-0.002429265230221094
2.504143964966909e-09
-0.002429265247501212
4.213193812164774e-09
-0.002429265475304767
5.614506089722413e-10
-0.002429265333270314
3.868245965973886e-09
-0.002429265547575019
1.683382505964827e-09
-0.002429265584575218
-3.085738026970893e-09
-0.002429265565605106
-2.732389698036012e-10
-0.002429265526836303
-2.940100359000283e-09
-0.002429265369431856
-3.046048493781506e-09
-0.002429265340986677
-1.818416245976907e-09
-0.002429265153719463
-3.055769466932732e-09
-0.002429265029869248
7.300439424496936e-10
-0.002429264942628009
2.489799339876814e-10
-0.002429264869891786
1.553224275048463e-09
-0.002429264824307105
6.972621770228565e-10
-0.002429264805487755
2.201244862924437e-09
-0.002429264724372935
2.203149675301914e-09
-0.002429264784633501
7.756446362562813e-10
-0.002429264882456429
1.118576127240386e-09
-0.002429264927001464
2.817662880563079e-09
-0.002429265166074152
1.959886718694357e-09
-0.002429265397427877
5.995666424872125e-10
-0.002429265586473659
1.083881663417391e-09
-0.002429265725039098
5.345080120620914e-10
-0.002429265840803514
5.171702508822113e-10
-0.002429265959229722
1.197577014709102e-09
-0.002429266079158583
8.244752181529499e-10
-0.002429266124766671
2.030041932981632e-09
-0.002429266324584158
1.147290122965006e-09
-0.00242926620118118
1.734078730974886e-09
-0.002429266215239323
1.203362345011028e-09
-0.002429266052224867
1.198433069914229e-09
-1.056839563821031e-09
-0.002922557038470281
-1.292234654099957e-08
-0.002922556768129935
4.998394055801158e-10
-0.002922556353659177
-1.88748202599143e-09
-0.002922556407960491
-9.194672400732565e-10
-0.002922556039415632
-4.346416072520392e-10
-0.002922555990570907
-1.017748719191161e-09
-0.00292255599992198
-1.419203007249364e-09
-0.002922555847541552
-5.374833310220287e-10
-0.002922555987370492
-1.563310918059502e-09
-0.002922555864132209
4.24285526740284e-10
-0.002922555794542041
1.497872421705688e-09
-0.00292255576878389
-8.704344645006697e-10
-0.002922555584694
1.493555378793933e-09
-0.00292255558992493
-2.187915481863375e-09
-0.002922555487559493
-2.110651419347154e-09
-0.002922555247956443
5.598749915148073e-10
-0.002922555264846523
-3.421579442190098e-09
-0.002922555094203668
-7.885700713204044e-10
-0.002922554949879175
5.118947825419702e-10
-0.002922554929693664
-1.518272614989154e-09
-0.002922554928447367
6.548812309630097e-10
-0.002922554951248191
8.187947708926594e-10
-0.002922555054771468
6.374905494567972e-10
-0.002922555115603139
2.710037643600885e-09
-0.002922555319636845
1.731505733629216e-09
-0.002922555420796761
2.70400573321784e-09
-0.002922555477205347