/*--------------------------------*- C++ -*----------------------------------*\
| =========                 |                                                 |
| \\      /  F ield         | OpenFOAM: The Open Source CFD Toolbox           |
|  \\    /   O peration     | Version:  v1812                                 |
|   \\  /    A nd           | Web:      www.OpenFOAM.com                      |
|    \\/     M anipulation  |                                                 |
\*---------------------------------------------------------------------------*/
FoamFile
{
    version     2.0;
    format      ascii;
    class       volVectorField;
    location    "10000";
    object      U;
}
// * * * * * * * * * * * * * * * * * * * * * * * * * * * * * * * * * * * * * //

dimensions      [0 1 -1 0 0 0 0];


internalField   nonuniform List<vector> 
3132
(
(-1.0217799473091 -3.570182115144765e-07 -2.894059628513636e-06)
(-1.021770882511893 -6.220530277875937e-09 -2.89399857515173e-06)
(-1.021775274931986 1.211732410200173e-08 -2.893968601032893e-06)
(-1.021772881090681 2.697111204890226e-09 -2.894004588479476e-06)
(-1.021774073813542 1.507489007583318e-09 -2.893963191747151e-06)
(-1.021773376998571 2.358198950073081e-09 -2.894008005076354e-06)
(-1.021773814627984 -2.823887117021855e-09 -2.893962045007174e-06)
(-1.021773312574703 7.492643504246722e-09 -2.894003185889904e-06)
(-1.021773874355939 -4.233303538020615e-09 -2.893963272242185e-06)
(-1.021773309209688 1.134162312240208e-08 -2.893995872594007e-06)
(-1.021773893617114 2.268372294529944e-09 -2.893963272445186e-06)
(-1.021773573779426 8.302846053430895e-09 -2.893997177366669e-06)
(-1.021773686160841 3.875219738525213e-09 -2.893959483005092e-06)
(-1.021773811802526 -7.740813782608397e-09 -2.894001346943043e-06)
(-1.021773464872403 -5.110544676227411e-09 -2.893956494913041e-06)
(-1.021773695598765 -6.059858764955549e-09 -2.893996257247399e-06)
(-1.021773782861384 -4.999251146378711e-09 -2.893962913685384e-06)
(-1.021773478812465 8.394942923864626e-09 -2.893988427029971e-06)
(-1.021773792411955 2.633354294575002e-09 -2.893962975270056e-06)
(-1.021773582361905 3.369153622075132e-09 -2.893990454410206e-06)
(-1.021773628262112 1.316672999482888e-09 -2.893957372011735e-06)
(-1.021773650040178 2.770519874630354e-09 -2.893990678413705e-06)
(-1.021773548642226 1.026761595132876e-09 -2.893955422435967e-06)
(-1.021773716517442 2.522585147650658e-09 -2.89398863408292e-06)
(-1.021773617843427 8.484231948347586e-09 -2.893957060100263e-06)
(-1.021773778258052 1.503093971065177e-08 -2.893986223448739e-06)
(-1.021773665925039 2.126435418600632e-08 -2.89395761576979e-06)
(-1.021774066507678 7.270121228210521e-09 -2.893989653911055e-06)
(-1.021773342735641 1.3870823221337e-08 -2.893954678713947e-06)
(-1.021774240027356 -1.930289212204906e-08 -2.893992150501866e-06)
(-1.021773595207114 -5.570842750176535e-09 -2.893960849924272e-06)
(-1.021773776801213 -1.155431071249129e-08 -2.893981748566773e-06)
(-1.02177397469614 -1.36730342982555e-08 -2.893964936323413e-06)
(-1.021773390482996 -3.483386361783851e-09 -2.893977467227335e-06)
(-1.021774150996966 -1.262524433363407e-08 -2.893960563565314e-06)
(-1.021773231337759 1.030639305975907e-08 -2.893977199366405e-06)
(-1.021773793489581 -1.414461572962232e-09 -2.893952872031871e-06)
(-1.021773419808659 1.185635422977986e-08 -2.893979038689821e-06)
(-1.021773710023156 5.922469889376711e-09 -2.893952365593289e-06)
(-1.021773738443948 1.490482305785709e-08 -2.893980599863294e-06)
(-1.02177339768222 1.349065639882506e-08 -2.893949920484824e-06)
(-1.021773997246505 8.941979336214493e-09 -2.893979895108538e-06)
(-1.021773310628923 1.458524864792574e-08 -2.893951014277332e-06)
(-1.021773921000471 5.443625111964121e-09 -2.893974977264468e-06)
(-1.02177301963753 1.637750971302533e-08 -2.893947944517604e-06)
(-1.021774107970492 -1.166815938710893e-08 -2.893975597791174e-06)
(-1.021773389190461 5.549886040028876e-09 -2.893950888764915e-06)
(-1.021773944614291 -8.345571764744818e-09 -2.893971710120965e-06)
(-1.021773770570423 1.053210416517606e-09 -2.893953028424398e-06)
(-1.021773759920909 -2.089818618727537e-09 -2.893967538702907e-06)
(-1.021773847158366 1.353702559099275e-10 -2.893951379465224e-06)
(-1.021773793016501 -3.279898703473866e-09 -2.893965192372634e-06)
(-1.0217739070767 -4.365474658213743e-09 -2.893950501254116e-06)
(-1.021774031044023 -8.904227772730128e-09 -2.893968772603335e-06)
(-1.021774052614383 -4.80865372475355e-09 -2.893953877972479e-06)
(-1.02177441385449 -1.706630515092324e-09 -2.893973898006017e-06)
(-1.021774897078899 1.830694956036021e-08 -2.893948073725629e-06)
(-1.021775933961424 9.595016065458633e-09 -2.893975292875879e-06)
(-1.061736364757616 -8.145453075079588e-07 -8.618331058209497e-06)
(-1.061732862334076 -5.795850673030729e-08 -8.618233580140885e-06)
(-1.061736227499179 6.182018354531868e-08 -8.618176121299105e-06)
(-1.061733587937672 -2.12768104582188e-08 -8.618268968177176e-06)
(-1.061735130869125 2.225443651414713e-08 -8.618149205138077e-06)
(-1.061734095189931 -1.049124768499106e-09 -8.618280436087531e-06)
(-1.061734832235113 -7.448149224399947e-09 -8.618147659237454e-06)
(-1.06173399150569 2.038358353909751e-08 -8.618267623784346e-06)
(-1.061734867641813 -1.345198666244951e-08 -8.61815328029895e-06)
(-1.061733818480303 3.114466621269715e-08 -8.618247986614944e-06)
(-1.06173474431797 1.559540248089895e-08 -8.618148740527815e-06)
(-1.061734194674407 1.776451369998091e-08 -8.618252572803029e-06)
(-1.061734345709189 1.901470139397692e-08 -8.618135768553538e-06)
(-1.061734635848145 -2.156044944239171e-08 -8.618262394806676e-06)
(-1.061734037211876 -1.726741802170175e-08 -8.618132016550032e-06)
(-1.061734367894994 1.185800204408016e-09 -8.618242970388769e-06)
(-1.061734536908717 -1.714800712291995e-08 -8.618151752711093e-06)
(-1.061733921586229 2.525349702978104e-08 -8.618224526918885e-06)
(-1.061734435759403 1.585591688700433e-08 -8.618146349335951e-06)
(-1.061734248048166 3.176288092195102e-09 -8.618233538519669e-06)
(-1.061734060994802 7.052646720503037e-09 -8.618130736475656e-06)
(-1.061734437478214 6.165916764991354e-09 -8.618231811463069e-06)
(-1.061733973911389 5.157601241463042e-09 -8.618127099746085e-06)
(-1.061734480349938 1.206878042183734e-08 -8.618222942298103e-06)
(-1.061734191029069 2.281689120960358e-08 -8.618132387553966e-06)
(-1.061734494717722 3.706628385110523e-08 -8.618216995507622e-06)
(-1.06173429008813 5.888086562808643e-08 -8.618131833038099e-06)
(-1.061734935913256 1.969880465581071e-09 -8.61822704852283e-06)
(-1.061733917384519 3.139841575439762e-08 -8.618124525698082e-06)
(-1.061735161462645 -4.368161552487522e-08 -8.618227323432647e-06)
(-1.061734544684989 -3.785933723519935e-08 -8.618147178648944e-06)
(-1.061734265266858 -1.876763139124851e-08 -8.618200083786138e-06)
(-1.061735178722488 -4.227114873607048e-08 -8.618153910668525e-06)
(-1.061733804360013 -8.053103237951506e-09 -8.618195142560872e-06)
(-1.061735134245452 -2.665397708933445e-08 -8.618137650968009e-06)
(-1.061733778020145 1.430743572421336e-08 -8.618197556444082e-06)
(-1.061734303076423 9.196957588322011e-09 -8.618116104510254e-06)
(-1.061734136101092 2.563083375125278e-08 -8.618197836483603e-06)
(-1.061733966536204 3.204403138022814e-08 -8.618115825588307e-06)
(-1.061734661668749 3.057937945436086e-08 -8.618201869199414e-06)
(-1.0617335702392 4.191744164048139e-08 -8.618111713855053e-06)
(-1.061734993336778 2.37561222283041e-08 -8.618196207817552e-06)
(-1.061733715437914 2.647561284837749e-08 -8.618117327436022e-06)
(-1.061734708713652 2.123830489335703e-09 -8.618183869407421e-06)
(-1.06173339788707 3.707302600957578e-08 -8.61810746235489e-06)
(-1.061734708513238 -1.796366109923924e-08 -8.618181378557127e-06)
(-1.061734053438638 4.772904917102329e-09 -8.618115436745376e-06)
(-1.061734393325058 -8.732763119364421e-09 -8.618171198704167e-06)
(-1.061734679341652 -7.06573371544612e-10 -8.618120352665708e-06)
(-1.0617343414921 -7.143985193621941e-09 -8.618162483709814e-06)
(-1.061734726361881 1.089944007492911e-09 -8.618115056205013e-06)
(-1.061734550865547 -1.010391812003139e-08 -8.618155671804282e-06)
(-1.061734793400874 -2.675463787980619e-09 -8.618109254614907e-06)
(-1.061735028068929 -1.470235829504501e-08 -8.618164126197294e-06)
(-1.061735048857723 2.199717083475219e-09 -8.618119294403712e-06)
(-1.061735430404225 1.812997665387006e-08 -8.618175696705095e-06)
(-1.061735616083251 7.37353523468151e-08 -8.618126717718935e-06)
(-1.061735679479799 8.053972812564382e-08 -8.618225702252997e-06)
(-1.098799332583668 -7.95900743174864e-07 -1.436243917779566e-05)
(-1.098797783375431 -5.236143097050049e-08 -1.43623213769285e-05)
(-1.098799702431145 5.515543862468436e-08 -1.436223821741194e-05)
(-1.098797812796751 -2.103668038056179e-08 -1.436237414347623e-05)
(-1.098799061271818 3.343374423293475e-08 -1.436219208529207e-05)
(-1.09879808570855 -6.06537910876973e-10 -1.436239422996607e-05)
(-1.098798868494702 -1.227250904851866e-08 -1.436218793505077e-05)
(-1.098797894442627 2.94426178466434e-08 -1.436237623892844e-05)
(-1.098798867804052 -2.607821837372086e-08 -1.436219600975705e-05)
(-1.098797679940345 4.195183698603339e-08 -1.436234769029057e-05)
(-1.098798674773918 2.838387983195083e-08 -1.436218571639029e-05)
(-1.098798116982599 2.003600215137523e-08 -1.436235617991955e-05)
(-1.098798130115527 3.680002196867895e-08 -1.436216297553261e-05)
(-1.098798623653082 -3.51842052366113e-08 -1.436236992937214e-05)
(-1.098797786594262 -3.228884375667387e-08 -1.436215973692439e-05)
(-1.098798307816993 6.642336793435444e-09 -1.436233706523457e-05)
(-1.098798426953203 -3.554557967513219e-08 -1.436219249335103e-05)
(-1.098797762179041 3.232444209305031e-08 -1.436231031358725e-05)
(-1.098798201696988 3.128646516294659e-08 -1.436218000644446e-05)
(-1.098798074960598 -2.631640395162114e-09 -1.43623246442215e-05)
(-1.098797675693854 1.362412427745297e-08 -1.436215490760202e-05)
(-1.098798277668579 1.038283164821855e-08 -1.436231957748386e-05)
(-1.098797610074589 6.606322506685804e-09 -1.436215016599445e-05)
(-1.098798299512579 2.54711850852331e-08 -1.436230389832478e-05)
(-1.098797954636326 3.371995728019233e-08 -1.436215873976446e-05)
(-1.098798246097623 5.954946893577582e-08 -1.436229515811413e-05)
(-1.098798016052706 9.674882195099826e-08 -1.436215545484142e-05)
(-1.098798636470501 4.299669338760632e-09 -1.436230996110906e-05)
(-1.098797542462112 5.277335250049992e-08 -1.436214320980557e-05)
(-1.098798848546794 -5.187751821592475e-08 -1.436230682073938e-05)
(-1.098798428575302 -7.124269943278637e-08 -1.436218233167199e-05)
(-1.098797905811191 -2.323506476718863e-08 -1.436226739197754e-05)
(-1.098799179725742 -6.621388420349754e-08 -1.436219051969505e-05)
(-1.098797517633518 -2.267981121128048e-08 -1.436226444462015e-05)
(-1.098799057205953 -3.638165874787217e-08 -1.436216406361151e-05)
(-1.098797616224934 5.065714548276438e-09 -1.43622692089875e-05)
(-1.098798005061802 2.03748200678323e-08 -1.436213097374117e-05)
(-1.098798021301125 3.188148331822451e-08 -1.436226573264937e-05)
(-1.098797605921687 5.47167581784489e-08 -1.436213221381192e-05)
(-1.098798559320209 4.728618461624293e-08 -1.436227042585011e-05)
(-1.098797124903591 6.673369642890701e-08 -1.436212612956223e-05)
(-1.09879881156008 4.719112880357325e-08 -1.436225827456469e-05)
(-1.098797333122491 3.539938192419727e-08 -1.436213431022028e-05)
(-1.098798428297515 7.347815417882017e-09 -1.436223951829925e-05)
(-1.098797030618683 5.476161906181368e-08 -1.436211735387634e-05)
(-1.098798382262447 -1.727756914871162e-08 -1.436223531822347e-05)
(-1.098797848701213 3.164777111950889e-09 -1.436212981421024e-05)
(-1.0987980692087 -8.349525209000836e-09 -1.436222086037265e-05)
(-1.098798511312826 2.808904735065142e-09 -1.436213675807917e-05)
(-1.098798047956853 -1.221628243351056e-08 -1.436220780454711e-05)
(-1.098798541332695 7.159962040762535e-09 -1.436212917357706e-05)
(-1.098798302860467 -1.588228663232823e-08 -1.436219719068106e-05)
(-1.09879860614547 4.490806615217245e-09 -1.436212016830389e-05)
(-1.09879885754274 -1.981554063858423e-08 -1.436221083479174e-05)
(-1.098798854008919 3.420798120343441e-09 -1.436213857058815e-05)
(-1.098799142140952 1.340957382141201e-08 -1.436222877857403e-05)
(-1.098799028453191 7.15370263973376e-08 -1.436215697816032e-05)
(-1.098798732187186 9.694635179003246e-08 -1.436232645878854e-05)
(-1.132503671095926 -7.726021294342099e-07 -2.00438398924149e-05)
(-1.132502600616932 -1.186813187572082e-08 -2.004372307774622e-05)
(-1.132503805178716 3.671098283725074e-08 -2.004360124062228e-05)
(-1.132502508989432 -1.69044217805916e-08 -2.004378080468325e-05)
(-1.132503357697016 4.119499729843279e-08 -2.004354377344051e-05)
(-1.13250260476236 1.676675300637888e-09 -2.00438046918425e-05)
(-1.132503290005647 -1.68451129680262e-08 -2.004353808020458e-05)
(-1.132502401892868 3.642132804207082e-08 -2.004378408246536e-05)
(-1.132503276037884 -3.838746792981176e-08 -2.004354722396546e-05)
(-1.132502109746716 4.986618965043994e-08 -2.00437482967485e-05)
(-1.132503043974437 4.121382847417344e-08 -2.004353045362398e-05)
(-1.132502499049695 1.875105959634119e-08 -2.004375961497415e-05)
(-1.132502522949078 5.396812428775645e-08 -2.004350016672543e-05)
(-1.132503013688044 -4.81749735886095e-08 -2.00437757875135e-05)
(-1.132502149102075 -4.662126870828602e-08 -2.004349777422939e-05)
(-1.13250267728325 1.49542414885385e-08 -2.004373066261854e-05)
(-1.132502667399337 -5.419761217851892e-08 -2.0043538581255e-05)
(-1.132502084066973 3.732297705956081e-08 -2.004369725845987e-05)
(-1.132502477268212 4.706822536815708e-08 -2.004352023791661e-05)
(-1.132502427587919 -1.06839526506735e-08 -2.004371731606667e-05)
(-1.132501973177607 2.096572606947212e-08 -2.004348808809161e-05)
(-1.132502643359821 1.439479332976931e-08 -2.004370886094283e-05)
(-1.132501905618158 8.272365970700586e-09 -2.004348208752627e-05)
(-1.132502618864147 4.190533598156349e-08 -2.004368608609924e-05)
(-1.132502259944988 4.422133600132377e-08 -2.004349199139358e-05)
(-1.132502587628732 8.061114191038213e-08 -2.004367612692917e-05)
(-1.132502423605318 1.303705259449796e-07 -2.004348757067127e-05)
(-1.132503046739753 5.192676547135726e-09 -2.00436965421137e-05)
(-1.132502154464911 6.962949030102125e-08 -2.004347543461693e-05)
(-1.132503287281768 -5.43445821669379e-08 -2.004369080901729e-05)
(-1.132502964316828 -1.073281063252745e-07 -2.004352621285431e-05)
(-1.132502333987112 -2.660453439297948e-08 -2.004364197219302e-05)
(-1.132503562818326 -8.791485259389234e-08 -2.004353206234428e-05)
(-1.132501935305272 -4.039566351998652e-08 -2.004364076132473e-05)
(-1.132503233110472 -4.028092174396409e-08 -2.004349411820876e-05)
(-1.132502011135019 -9.083109259742219e-09 -2.004364533346204e-05)
(-1.132502153620132 3.413973334167607e-08 -2.004345263497701e-05)
(-1.132502382271005 3.543301532723256e-08 -2.004363601900114e-05)
(-1.132501782192745 7.814400936104979e-08 -2.004345606784207e-05)
(-1.132502872644711 6.309664652330065e-08 -2.004364026906127e-05)
(-1.132501464176148 8.978142811213056e-08 -2.004345141174473e-05)
(-1.132503121313119 7.156220949038081e-08 -2.004362316448438e-05)
(-1.132501772856484 4.000121417818778e-08 -2.004346216157985e-05)
(-1.132502751527722 1.317946037917783e-08 -2.004359982421826e-05)
(-1.132501587096998 6.721942338472661e-08 -2.004344009784976e-05)
(-1.132502684420756 -1.279612271867086e-08 -2.004359431994186e-05)
(-1.132502322333675 1.935496639901681e-10 -2.004345361416402e-05)
(-1.132502417915156 -5.366353976253571e-09 -2.004357676922063e-05)
(-1.132502949219037 7.236975074522603e-09 -2.004346212835911e-05)
(-1.132502469893293 -1.625991703846382e-08 -2.004356095279315e-05)
(-1.132502982546639 1.352394222255892e-08 -2.004345369395618e-05)
(-1.132502745355991 -2.153080709078205e-08 -2.004354805062246e-05)
(-1.132503021379836 1.286382668969089e-08 -2.004344267300672e-05)
(-1.132503221182689 -2.43014498007835e-08 -2.004356514380412e-05)
(-1.132503132199066 3.907712841285354e-09 -2.004346659559748e-05)
(-1.132503304428499 6.542552662711028e-09 -2.004358337805813e-05)
(-1.132503144250719 5.809805576447772e-08 -2.004348903229395e-05)
(-1.132502891378095 7.435661606299497e-08 -2.004372039333097e-05)
(-1.162686549033429 -7.710547175511036e-07 -2.561489328502165e-05)
(-1.162685489457543 2.18791904123781e-08 -2.561477998939593e-05)
(-1.162686445030046 2.503091027540307e-08 -2.561461373692723e-05)
(-1.162685416970479 -1.612522066049966e-08 -2.561483773420423e-05)
(-1.162686089987441 4.725907820350068e-08 -2.561455191205674e-05)
(-1.162685417966584 4.139462288206167e-09 -2.561486029685772e-05)
(-1.162686068894947 -2.078410948218924e-08 -2.561454586747475e-05)
(-1.162685184940308 4.106425992699721e-08 -2.561483668228091e-05)
(-1.162686029606216 -4.907647988288957e-08 -2.561455494464153e-05)
(-1.16268494702685 5.524503213419444e-08 -2.561479752743115e-05)
(-1.162685776489655 5.296872740522037e-08 -2.561453205249729e-05)
(-1.162685331204157 1.546911588768584e-08 -2.561481179737386e-05)
(-1.162685223794069 6.835024670580314e-08 -2.561449415521262e-05)
(-1.162685772366493 -6.02281524444606e-08 -2.561482783436645e-05)
(-1.162684891408416 -5.944733292411574e-08 -2.561449347735439e-05)
(-1.162685473105253 2.26994551537885e-08 -2.561477329776508e-05)
(-1.162685437920534 -7.248348461982039e-08 -2.561454244669527e-05)
(-1.162684938445956 4.004254048959354e-08 -2.561473611929272e-05)
(-1.162685174228365 6.041205453176171e-08 -2.561451640721496e-05)
(-1.162685151457861 -1.842249002280051e-08 -2.561475792100378e-05)
(-1.162684657972067 2.778705219522608e-08 -2.561447712427236e-05)
(-1.162685324348515 1.813687753858914e-08 -2.561474537724668e-05)
(-1.162684617967772 1.037751138484321e-08 -2.561447033852545e-05)
(-1.162685319560012 5.901144383098235e-08 -2.561471715561709e-05)
(-1.162685001231346 5.483951210504212e-08 -2.56144815358563e-05)
(-1.162685281260387 1.001179303504079e-07 -2.56147056806906e-05)
(-1.162685078940371 1.601541787111474e-07 -2.561447300157496e-05)
(-1.162685611387599 7.697419200063376e-09 -2.561472689009899e-05)
(-1.162684743199759 8.553294624923684e-08 -2.561445746579908e-05)
(-1.16268577626197 -5.264483175415167e-08 -2.561471733724581e-05)
(-1.162685606187575 -1.403274223395376e-07 -2.56145202199446e-05)
(-1.162685031004121 -3.165156403253526e-08 -2.561466585038011e-05)
(-1.162686167366824 -1.073418984030314e-07 -2.561452539436727e-05)
(-1.162684766773669 -5.993180484841454e-08 -2.56146690044645e-05)
(-1.162685902614446 -4.293656574815367e-08 -2.561448175360413e-05)
(-1.162684881171548 -2.476078404287552e-08 -2.56146737050254e-05)
(-1.162684886344457 4.690905543872384e-08 -2.561443458449941e-05)
(-1.162685178364151 3.797222134840905e-08 -2.561465749240293e-05)
(-1.162684591656183 9.864153383318641e-08 -2.561444072623192e-05)
(-1.162685563142531 7.81683992056527e-08 -2.561465981442047e-05)
(-1.162684249364071 1.107478329163551e-07 -2.561443454214311e-05)
(-1.162685680040634 9.524651136336222e-08 -2.561463642088286e-05)
(-1.162684484181412 4.345524927355019e-08 -2.561444417073564e-05)
(-1.162685329029301 2.006502123396425e-08 -2.561460922362956e-05)
(-1.162684268195179 7.890017051598731e-08 -2.561441560460439e-05)
(-1.162685293925822 -5.88116362338973e-09 -2.561460318856797e-05)
(-1.162685020004105 -1.750922481605093e-09 -2.561443120929254e-05)
(-1.162685147446378 -9.324638927414648e-10 -2.561458450934628e-05)
(-1.162685587528026 1.1653984158538e-08 -2.561444070674375e-05)
(-1.162685199330852 -1.810376626804796e-08 -2.561456529772623e-05)
(-1.162685633933552 1.929045306149392e-08 -2.561443224295074e-05)
(-1.162685440370943 -2.592381818341617e-08 -2.561455013923835e-05)
(-1.162685681423919 2.061860971509953e-08 -2.561442046229022e-05)
(-1.16268586410194 -2.75086086104601e-08 -2.561456968431302e-05)
(-1.162685824689212 4.809249778463821e-09 -2.561444969866245e-05)
(-1.162685978197733 3.947465232011034e-09 -2.561458674305546e-05)
(-1.162685851512708 5.181363104699727e-08 -2.56144722165585e-05)
(-1.162685591375831 5.248057318590034e-08 -2.561475802638678e-05)
(-1.18924963296046 -7.719069970102894e-07 -3.10307656779805e-05)
(-1.189248685835345 4.553129381111766e-08 -3.103065645747056e-05)
(-1.189249478465422 1.814912178212561e-08 -3.103044651178231e-05)
(-1.189248616177194 -1.689786964773554e-08 -3.103071239159207e-05)
(-1.18924913790877 5.202717257779139e-08 -3.10303827191268e-05)
(-1.189248559308148 6.781323189117939e-09 -3.103073052944949e-05)
(-1.189249161390153 -2.325855931480274e-08 -3.103037796280332e-05)
(-1.189248370827372 4.401272193204672e-08 -3.103070534952037e-05)
(-1.189249102704185 -5.664496987402337e-08 -3.103038627281e-05)
(-1.18924811838816 5.921176525109989e-08 -3.103066248638622e-05)
(-1.189248835332939 6.367298573259802e-08 -3.103035813011443e-05)
(-1.18924842656935 1.162632686467751e-08 -3.103067683611828e-05)
(-1.189248374268341 7.927554207760615e-08 -3.103031685020026e-05)
(-1.189248805488416 -7.044130490061225e-08 -3.10306917151333e-05)
(-1.189248060913196 -7.022185657864021e-08 -3.103031665892415e-05)
(-1.189248510359237 2.988561418849616e-08 -3.103062956038797e-05)
(-1.189248425330388 -8.791540753863341e-08 -3.103036595750184e-05)
(-1.189248013223895 4.199237195867367e-08 -3.103058920365129e-05)
(-1.189248223363528 7.169446208830331e-08 -3.103033599827899e-05)
(-1.18924824084866 -2.433662091910726e-08 -3.103061404696785e-05)
(-1.189247820715552 3.352582517635599e-08 -3.103029352038032e-05)
(-1.189248406719138 2.203704272133405e-08 -3.103059863709841e-05)
(-1.189247768225665 1.350541805769574e-08 -3.103028489297749e-05)
(-1.189248388571592 7.620844342935917e-08 -3.103056519044309e-05)
(-1.189248092375157 6.634237506617565e-08 -3.103029505893289e-05)
(-1.189248419505155 1.178433958218698e-07 -3.103055406514107e-05)
(-1.189248253426076 1.857351455701273e-07 -3.103028680708904e-05)
(-1.189248819769978 1.078759377367118e-08 -3.103057891719342e-05)
(-1.189248150480947 9.838898187000206e-08 -3.103027573985019e-05)
(-1.18924901150208 -5.082290205408923e-08 -3.103056867076671e-05)
(-1.18924884326382 -1.704288609756794e-07 -3.103034263595366e-05)
(-1.189248319326538 -3.992109274139247e-08 -3.10305139903022e-05)
(-1.189249183740639 -1.246150677015859e-07 -3.103034258702701e-05)
(-1.189248023455761 -7.954641585807876e-08 -3.103051718867782e-05)
(-1.18924879477417 -4.447078929652271e-08 -3.10302906678367e-05)
(-1.189248038109341 -3.862918993158296e-08 -3.103051805475237e-05)
(-1.189247900450426 5.857120234493876e-08 -3.103024062906183e-05)
(-1.189248250665525 4.124219774942837e-08 -3.103049505956336e-05)
(-1.18924766669544 1.169035044483872e-07 -3.103024870780485e-05)
(-1.189248561411369 9.323366362146123e-08 -3.1030495528126e-05)
(-1.189247498374074 1.301099218236615e-07 -3.103024572346454e-05)
(-1.189248708584658 1.166877885439812e-07 -3.103047050355711e-05)
(-1.189247761059798 4.695935694554114e-08 -3.103025586078404e-05)
(-1.1892484441269 2.693358433160341e-08 -3.103044171706681e-05)
(-1.189247624417484 8.972912913544508e-08 -3.103022466751434e-05)
(-1.189248434016527 1.140321492635797e-09 -3.103043484033098e-05)
(-1.189248232653244 -2.529880807355449e-09 -3.103023798051363e-05)
(-1.189248338921881 4.080806945154461e-09 -3.103041420397185e-05)
(-1.189248745714426 1.587126627959963e-08 -3.103024791632268e-05)
(-1.189248448570027 -1.783887685850851e-08 -3.103039343117031e-05)
(-1.189248819811322 2.400796564305782e-08 -3.10302400891027e-05)
(-1.189248686629056 -2.863953092247183e-08 -3.103037719895448e-05)
(-1.189248874141303 2.686872139255051e-08 -3.103022791751296e-05)
(-1.189249011973291 -2.955301115874591e-08 -3.103039637107152e-05)
(-1.189248944889414 5.531600837323891e-09 -3.1030257497668e-05)
(-1.189249018577596 4.057015126841152e-09 -3.103040608719112e-05)
(-1.189248964156857 4.994185090235646e-08 -3.103027693120198e-05)
(-1.189248720615117 3.566049789082612e-08 -3.10306127784338e-05)
(-1.212194886603444 -7.709987542303773e-07 -3.626068636617072e-05)
(-1.21219397923653 5.998175799254022e-08 -3.626057339820038e-05)
(-1.212194585971246 1.138858095495664e-08 -3.626032617154498e-05)
(-1.212193864112654 -1.771314641780731e-08 -3.626062580706331e-05)
(-1.212194333671612 5.40334416728354e-08 -3.626026409366437e-05)
(-1.212193742820026 9.044387828567264e-09 -3.626063791554843e-05)
(-1.212194355868826 -2.467780273008629e-08 -3.626025950243145e-05)
(-1.212193555574134 4.46955136360572e-08 -3.626061044552363e-05)
(-1.212194272705897 -6.193680346861036e-08 -3.626026561600539e-05)
(-1.212193394933056 6.082695653936989e-08 -3.626056774410037e-05)
(-1.212193996231193 7.277814079981876e-08 -3.626023319107138e-05)
(-1.212193689123899 7.111378919179413e-09 -3.626058222090659e-05)
(-1.212193542928217 8.654160050191874e-08 -3.626018796834305e-05)
(-1.212193966979472 -7.893745616140822e-08 -3.626059388381255e-05)
(-1.212193313176595 -7.979009561450861e-08 -3.626018900968569e-05)
(-1.212193736175319 3.446828518693745e-08 -3.626052861401571e-05)
(-1.212193691783983 -1.019098250910162e-07 -3.626024048685844e-05)
(-1.212193343398613 4.104208055260486e-08 -3.626048780803471e-05)
(-1.212193409397816 7.990419951083771e-08 -3.626020406755361e-05)
(-1.212193420236616 -2.888961586832637e-08 -3.626050901715666e-05)
(-1.212193011689779 3.801570954582948e-08 -3.62601570827414e-05)
(-1.212193538150456 2.545838690809939e-08 -3.626049008104786e-05)
(-1.212192992021988 1.699849788130537e-08 -3.62601477344549e-05)
(-1.212193556977763 9.20802298190228e-08 -3.626045397948933e-05)
(-1.212193301269017 7.79782458604201e-08 -3.626015765287102e-05)
(-1.212193573076849 1.334376962162162e-07 -3.62604410107513e-05)
(-1.21219332473568 2.082156892401104e-07 -3.62601446084445e-05)
(-1.212193794912739 1.695380088427432e-08 -3.626046131021154e-05)
(-1.212193115620266 1.115133462121839e-07 -3.626013005235245e-05)
(-1.212193882708704 -4.532933958507531e-08 -3.626044762437305e-05)
(-1.212193841517717 -1.945940389648777e-07 -3.626020306132774e-05)
(-1.212193464315891 -5.001212156081073e-08 -3.626039804039773e-05)
(-1.212194191262531 -1.394858469115587e-07 -3.626020361911281e-05)
(-1.212193332115611 -9.923025578887017e-08 -3.626040545759256e-05)
(-1.212193968404436 -4.723541253587255e-08 -3.626015304374414e-05)
(-1.212193374234268 -5.214814543709811e-08 -3.626040512621507e-05)
(-1.212193201278977 6.712242689501332e-08 -3.62601019402656e-05)
(-1.212193501225376 4.359883686250223e-08 -3.626037622660519e-05)
(-1.21219302927408 1.313458771674974e-07 -3.626011142422053e-05)
(-1.212193692088805 1.066501467728498e-07 -3.62603730051854e-05)
(-1.212192796410261 1.476077620470899e-07 -3.626010560681616e-05)
(-1.212193699149634 1.361002816485434e-07 -3.626034275205673e-05)
(-1.212192923813064 5.154447565282657e-08 -3.626011146161191e-05)
(-1.212193473856728 3.491724270237682e-08 -3.626031181547502e-05)
(-1.212192726053225 1.014626847521372e-07 -3.62600755091587e-05)
(-1.212193499631065 9.90887014427063e-09 -3.626030414033537e-05)
(-1.21219334971542 -1.462851809258315e-09 -3.62600900194491e-05)
(-1.212193534674086 9.889691804397868e-09 -3.626028449869396e-05)
(-1.212193809499524 2.009092680712528e-08 -3.626009966030154e-05)
(-1.212193631809676 -1.523524143407713e-08 -3.62602611267244e-05)
(-1.212193897341628 2.846931526203399e-08 -3.626009236721525e-05)
(-1.212193831954746 -2.89077980020238e-08 -3.626024346958068e-05)
(-1.212193974868504 3.25545965083205e-08 -3.626008091052279e-05)
(-1.212194115568477 -2.962829787313682e-08 -3.626026245382293e-05)
(-1.212194133871859 5.13439976780692e-09 -3.626011373502629e-05)
(-1.21219419825801 3.673584828943358e-09 -3.626026848996585e-05)
(-1.212194156659743 4.87101569751992e-08 -3.626012986978628e-05)
(-1.21219385114789 2.189666182261598e-08 -3.626050858557913e-05)
(-1.231593432728527 -7.634138663170823e-07 -4.129129324919845e-05)
(-1.231592733565228 6.995198296738805e-08 -4.129117392640349e-05)
(-1.231593193371567 2.673369576083229e-09 -4.129090156241364e-05)
(-1.231592593372114 -1.663274817496229e-08 -4.12912229200748e-05)
(-1.2315929566643 5.377637940829074e-08 -4.129084002088729e-05)
(-1.231592424716887 1.163020314415719e-08 -4.129122943165026e-05)
(-1.231593005309927 -2.469955988408304e-08 -4.129083540837355e-05)
(-1.231592296645855 4.404131561257697e-08 -4.129120236722439e-05)
(-1.231592908225905 -6.394854620563995e-08 -4.129083783616263e-05)
(-1.231592146768681 6.134306008622417e-08 -4.129115850435918e-05)
(-1.231592645549843 8.060117452174425e-08 -4.129080261169226e-05)
(-1.23159234883465 2.538142366900712e-09 -4.129116933991835e-05)
(-1.231592297929337 9.055520688077261e-08 -4.129075789878181e-05)
(-1.231592546795562 -8.518304137911648e-08 -4.129117764433317e-05)
(-1.23159207974052 -8.712300414650625e-08 -4.129075692921997e-05)
(-1.231592324026438 3.826153310820341e-08 -4.129111055725132e-05)
(-1.231592260979774 -1.121954944623585e-07 -4.129080118643928e-05)
(-1.231591993202015 3.941133494289992e-08 -4.129106879678059e-05)
(-1.231592065094808 8.62584287423452e-08 -4.129076474744617e-05)
(-1.231592103626054 -3.158180323861112e-08 -4.129108947037765e-05)
(-1.231591805858358 4.154309266968192e-08 -4.129071904982572e-05)
(-1.231592218637451 2.927587113574616e-08 -4.129106875307348e-05)
(-1.231591764683698 2.188870905665162e-08 -4.129070734204451e-05)
(-1.231592233738705 1.075660182659956e-07 -4.129103013409313e-05)
(-1.231592009753758 9.02489178330382e-08 -4.129071525268581e-05)
(-1.231592338822169 1.468887197551387e-07 -4.129101820804496e-05)
(-1.231592141250249 2.265218128211831e-07 -4.129070554900859e-05)
(-1.231592651712632 2.318919317411209e-08 -4.129104038694928e-05)
(-1.231592173943036 1.208796468007679e-07 -4.129069859108453e-05)
(-1.231592771235579 -4.0841847546333e-08 -4.129102793095046e-05)
(-1.231592687425454 -2.157539492574875e-07 -4.129076695538709e-05)
(-1.231592362732077 -6.244370760735467e-08 -4.129097727936595e-05)
(-1.231592808810892 -1.5238599085978e-07 -4.129076093912801e-05)
(-1.231592143944905 -1.170827162581965e-07 -4.129098000255412e-05)
(-1.231592477861343 -4.927973589104398e-08 -4.129070553303712e-05)