/*--------------------------------*- C++ -*----------------------------------*\
| =========                 |                                                 |
| \\      /  F ield         | OpenFOAM: The Open Source CFD Toolbox           |
|  \\    /   O peration     | Version:  v1812                                 |
|   \\  /    A nd           | Web:      www.OpenFOAM.com                      |
|    \\/     M anipulation  |                                                 |
\*---------------------------------------------------------------------------*/
FoamFile
{
    version     2.0;
    format      ascii;
    class       volVectorField;
    location    "10000";
    object      wallShearStress;
}
// * * * * * * * * * * * * * * * * * * * * * * * * * * * * * * * * * * * * * //

dimensions      [0 2 -2 0 0 0 0];


internalField   uniform (0 0 0);

boundaryField
{
    inlet
    {
        type            cyclic;
    }
    outlet
    {
        type            cyclic;
    }
    bottomWall
    {
        type            calculated;
        value           nonuniform List<vector> 
58
(
(0.001046070800849844 2.525443504358844e-08 1.389990158304244e-07)
(0.001045635127821181 2.610324445204125e-09 1.389960800622894e-07)
(0.001045846360012097 -1.722133978373231e-09 1.389946420956541e-07)
(0.001045731393072108 3.959067625533694e-10 1.389963696333609e-07)
(0.001045788674553702 -3.31307545448931e-10 1.389943818379847e-07)
(0.001045755208024218 -2.831405279467947e-11 1.389965339170702e-07)
(0.001045776221485558 2.113374262453283e-10 1.389943266630127e-07)
(0.00104575211154689 -5.080957292858627e-10 1.389963024316058e-07)
(0.001045779091247097 2.726885959546698e-10 1.389943856285865e-07)
(0.001045751944300911 -7.354221021666219e-10 1.389959511794789e-07)
(0.00104578002128953 -2.705148240404176e-10 1.389943856456273e-07)
(0.001045764655570674 -4.334913143241662e-10 1.389960139466528e-07)
(0.001045770066000374 -3.608478035185657e-10 1.389942035637885e-07)
(0.001045776095800436 6.004732648304303e-10 1.389962142976577e-07)
(0.001045759424504062 3.822854957943583e-10 1.389940599647216e-07)
(0.001045770507850069 2.375254221111155e-10 1.389959698002855e-07)
(0.001045774689056027 4.227755905795907e-10 1.38994368372801e-07)
(0.001045760089845716 -5.421231913830011e-10 1.389955936401081e-07)
(0.001045775161621931 -2.176585372615312e-10 1.389943713342711e-07)
(0.001045765069879732 -1.380455971211093e-10 1.389956910525064e-07)
(0.001045767274045127 -1.163579697291799e-10 1.389941021528094e-07)
(0.001045768319868325 -1.397275049622769e-10 1.389957018368059e-07)
(0.001045763449499691 -9.722382567011019e-11 1.389940084863463e-07)
(0.001045771507397734 -1.94304075876238e-10 1.389956036746483e-07)
(0.001045766764308088 -5.725486526626453e-10 1.389940871680455e-07)
(0.001045774469138378 -9.853254009859285e-10 1.389954879174836e-07)
(0.00104576908815405 -1.498204526083203e-09 1.389941138745402e-07)
(0.001045788328648594 -3.125671903534405e-10 1.389956527885348e-07)
(0.001045753578104007 -9.704171204945552e-10 1.389939726881236e-07)
(0.001045796671688452 1.116609900544867e-09 1.389957727631709e-07)
(0.00104576568042242 5.760477183837187e-10 1.389942691812272e-07)
(0.001045774413992555 5.60268374191432e-10 1.389952729924805e-07)
(0.001045783907782045 1.058492798612314e-09 1.38994465590854e-07)
(0.001045755851887266 1.396084741811699e-10 1.38995067217466e-07)
(0.001045792371789073 8.838467196292428e-10 1.389942556380522e-07)
(0.001045748200618187 -4.907596818668349e-10 1.389950542921124e-07)
(0.001045775208712791 1.355590900586362e-12 1.389938860854717e-07)
(0.001045757255989285 -7.197521521864931e-10 1.389951427044597e-07)
(0.00104577119859561 -5.301141341009728e-10 1.389938617300996e-07)
(0.001045772560491417 -8.066199173247777e-10 1.38995217806793e-07)
(0.00104575620265827 -9.864458249353711e-10 1.389937441755682e-07)
(0.001045784995873507 -5.314210941962426e-10 1.389951840560368e-07)
(0.001045752019570709 -8.97925427962059e-10 1.389937966764614e-07)
(0.001045781333134304 -2.108436168306237e-10 1.389949478276625e-07)
(0.00104573805236112 -1.13730982008739e-09 1.389936491285887e-07)
(0.001045790322626006 5.722629915171124e-10 1.389949777017615e-07)
(0.001045755788188942 -2.780727393463338e-10 1.389937906779531e-07)
(0.001045782471817407 3.538894842710378e-10 1.389947909187132e-07)
(0.001045774104519819 1.999015780580081e-11 1.389938935881849e-07)
(0.001045773598097314 9.75715985198728e-11 1.389945904994414e-07)
(0.001045777788473632 -2.433686539262994e-11 1.389938144191878e-07)
(0.001045775190286653 1.816744914897348e-10 1.38994477819891e-07)
(0.00104578066961542 1.668740332198148e-10 1.389937722621993e-07)
(0.001045786620325378 5.013161958093677e-10 1.389946498651682e-07)
(0.00104578765096544 1.267123827218663e-10 1.389939344979565e-07)
(0.001045804990719603 -2.904909186528138e-10 1.389948961784359e-07)
(0.001045828209307771 -1.891994638126683e-09 1.389936560449921e-07)
(0.001045878287324121 -3.005303393470565e-09 1.389949637481717e-07)
)
;
    }
    topWall
    {
        type            calculated;
        value           nonuniform List<vector> 
58
(
(0.01074307957029789 -2.444617687219203e-09 3.434560818289973e-07)
(0.01074320015621345 -1.106015432353719e-08 3.434807887038444e-07)
(0.01074269507982739 -3.574856847374985e-08 3.434613301916568e-07)
(0.01074164588966274 -2.352089637338421e-08 3.434303559232038e-07)
(0.01074276976751493 -6.177747346106002e-09 3.434599756930561e-07)
(0.01074141672047027 3.769513969886204e-08 3.434203206099801e-07)
(0.01074137723291086 -2.237839980876022e-08 3.434149974453884e-07)
(0.01074237630773584 -3.177451597611449e-08 3.434517974092617e-07)
(0.01074301094008299 -3.083176354954676e-08 3.434735525162389e-07)
(0.01074252574339709 1.708270290630469e-08 3.434601947373661e-07)
(0.01074280438316819 9.211061104827745e-08 3.434698877986767e-07)
(0.01074266325358394 -4.231371067635613e-09 3.43463802179665e-07)
(0.01074196516884889 -2.836950787965933e-09 3.434305514492383e-07)
(0.01074318802227976 2.847788100885876e-08 3.434668161757821e-07)
(0.01074178280921372 -1.570944524049432e-08 3.434307250035304e-07)
(0.01074230144479 -1.95903395449648e-08 3.434556301222911e-07)
(0.01074185690729921 1.540975991385939e-08 3.434345274584617e-07)
(0.01074267468024271 7.166260264100862e-08 3.434555477672486e-07)
(0.01074350066263283 2.902384629886712e-08 3.43484735410131e-07)
(0.01074219667440211 -7.312793182577543e-08 3.434465913330465e-07)
(0.01074258626923451 -5.127474678439123e-08 3.434580947319164e-07)
(0.01074249648377595 2.057111953858772e-08 3.434547990641062e-07)
(0.01074231889275862 -3.972836043373227e-08 3.434517628350803e-07)
(0.01074068715844035 5.319047744248314e-09 3.433956723931302e-07)
(0.01074135490292702 3.259585570560356e-08 3.434156122333789e-07)
(0.0107405786283537 -5.523839557405919e-08 3.43389137361788e-07)
(0.01074156740324911 -2.661711511860782e-09 3.434202119769076e-07)
(0.01074086006191439 3.010727684793578e-08 3.434022404551636e-07)
(0.01074150291737136 -1.423695774136484e-08 3.434242132712225e-07)
(0.0107422358101349 -8.483214602976726e-09 3.434424676175554e-07)
(0.0107405277675399 7.778889141800225e-08 3.43383228666738e-07)
(0.01074237350740851 1.086311956543957e-07 3.434473068309406e-07)
(0.01074194221272188 -1.274970120230518e-08 3.434331056895696e-07)
(0.01074193802589103 -1.108109061443311e-07 3.434295872372385e-07)
(0.01074258341184018 -8.285546843832105e-09 3.434588080764984e-07)
(0.01074289314614012 7.505520129837646e-09 3.434728275376379e-07)
(0.01074174044505944 -5.591596267273822e-08 3.434285174782242e-07)
(0.0107424518845297 -5.641976076522429e-09 3.434501085795386e-07)
(0.01074114779043565 3.967401496972116e-08 3.434066185863904e-07)
(0.01074203463350517 -2.057146181881336e-08 3.434309637896703e-07)
(0.01074196227935142 -2.174204922680205e-08 3.434303239322401e-07)
(0.01074228420276864 3.994545705335275e-08 3.4344442554657e-07)
(0.01074260176925389 -2.276713120643215e-08 3.434555473112192e-07)
(0.01074083629459316 -2.245114952547176e-08 3.433963028270037e-07)
(0.01074144778724101 4.633014256777473e-08 3.434128685729049e-07)
(0.010741760300375 3.110297921627367e-08 3.434209949160441e-07)
(0.01074231964480823 -9.562434139195084e-09 3.434527490621405e-07)
(0.01074332011645524 2.918295711533493e-08 3.434930005988852e-07)
(0.01074172590753162 9.353409581957309e-09 3.434210550922204e-07)
(0.01074179343159657 -4.646941040875175e-08 3.434156052560631e-07)
(0.0107428217728911 -6.69356616995734e-08 3.434652396799149e-07)
(0.01074315598575034 4.636316614286931e-09 3.434764186268149e-07)
(0.01074307482153225 4.126584679382019e-08 3.43464565077562e-07)
(0.01074198824167139 -5.325281483878091e-08 3.434296455186869e-07)
(0.01074128843576399 -3.405276876201955e-08 3.434055607922929e-07)
(0.01073999958791457 7.987293925352103e-08 3.433655646340219e-07)
(0.01074251792541136 7.368640319828488e-08 3.434540980932654e-07)
(0.0107433198756597 -2.686496516070426e-08 3.434789946647202e-07)
)
;
    }
    left
    {
        type            cyclic;
    }
    right
    {
        type            cyclic;
    }
}


// ************************************************************************* //
