/*--------------------------------*- C++ -*----------------------------------*\
| =========                 |                                                 |
| \\      /  F ield         | OpenFOAM: The Open Source CFD Toolbox           |
|  \\    /   O peration     | Version:  v1812                                 |
|   \\  /    A nd           | Web:      www.OpenFOAM.com                      |
|    \\/     M anipulation  |                                                 |
\*---------------------------------------------------------------------------*/
FoamFile
{
    version     2.0;
    format      ascii;
    class       volScalarField;
    location    "0";
    object      p;
}
// * * * * * * * * * * * * * * * * * * * * * * * * * * * * * * * * * * * * * //

dimensions      [0 2 -2 0 0 0 0];


internalField   nonuniform List<scalar> 
1856
(
-1.577996057251942
-2.040008012954347
-2.112438804728943
-2.143560240687007
-2.158034710744745
-2.163027953232212
-2.158952913918144
-2.16651843085418
-2.17231286877482
-2.163748921118391
-2.179727520125475
-2.174572111416605
-2.178627762308162
-2.185654468528486
-2.186778376529024
-2.194687234472285
-2.194310791874691
-2.188249325758581
-2.181275088575273
-2.193591739029451
-2.199980947682508
-2.193935563001023
-2.185432624673052
-2.175667681425243
-2.189452092375618
-2.193701894575478
-2.189885233197552
-2.203621815628858
-2.189351469027611
-2.196711713408602
-2.192556086099327
-2.198741134405916
-2.195707873646612
-2.196478575195864
-2.190897853126329
-2.171848248632143
-2.17311194856672
-2.184719745985827
-2.183852804896061
-2.183995097146529
-2.174690723025163
-2.176319109869828
-2.177992935267965
-2.177148496614709
-2.179133591146696
-2.178876028913979
-2.172342721425949
-2.16840795384612
-2.164700122181633
-2.163017058953955
-2.165721300464222
-2.159459515122049
-2.160511426012092
-2.153341482847796
-2.150422313521957
-2.141598555918482
-2.089761422562288
-1.96478046043028
-1.758943700316391
-2.049019234265449
-2.114314618392095
-2.144108451114858
-2.158507318639094
-2.163823764330449
-2.159692469729654
-2.166126021273487
-2.172151744250635
-2.163014666171525
-2.181116247562046
-2.174487135672072
-2.177346292360285
-2.186170298177142
-2.188005157743283
-2.1955458853238
-2.194675397694047
-2.187480523778628
-2.180495514337416
-2.193865976309064
-2.200315633924033
-2.194200592260538
-2.187037041004288
-2.174075271509104
-2.188429843472228
-2.19657953189323
-2.190538835159451
-2.204460625351388
-2.189110655681107
-2.196766984954794
-2.192784788978882
-2.199167888408144
-2.197357775287544
-2.197448618403825
-2.192102081854744
-2.171744144617642
-2.173477498718256
-2.185051642777634
-2.183961036339185
-2.184310622539092
-2.17407992569573
-2.176674844215572
-2.17821227437586
-2.177153283199398
-2.179432898428217
-2.179363586798306
-2.172527932428317
-2.168383602948765
-2.164801142855036
-2.163185524259255
-2.165968919480171
-2.159479587424477
-2.160909808563588
-2.153969321671489
-2.150459822159827
-2.142088541305623
-2.091637061031589
-1.977245777166809
-1.881029891966119
-2.06226668720844
-2.1171397284066
-2.146792563519636
-2.159647328483443
-2.164273175859103
-2.160993199053683
-2.16821075370879
-2.172825832207589
-2.164403296063254
-2.179099784345674
-2.174316632761887
-2.175020266222453
-2.187026071835379
-2.188911913678002
-2.19749807331489
-2.195763874642744
-2.187490351611162
-2.1811915534297
-2.194624267592576
-2.200574460276571
-2.194911634913084
-2.18968280204925
-2.174531010824259
-2.185977469070734
-2.205378964615343
-2.18946802467721
-2.20354553942403
-2.191406414745501
-2.197044662325827
-2.193106378934177
-2.198331889166444
-2.198845514548516
-2.199698994084519
-2.193085259884397
-2.171554798902521
-2.173406246168016
-2.184909626141598
-2.185361612021143
-2.183973784852123
-2.173921954480585
-2.176689190964399
-2.179178179768805
-2.177521336767823
-2.180185280330147
-2.180335082641998
-2.173532032920176
-2.168512990609448
-2.164619907482703
-2.163501782483699
-2.166016112312816
-2.160899856042088
-2.161395113159405
-2.155231035826393
-2.152017529130879
-2.142300793466191
-2.09622013556779
-2.000074712193806
-1.954825620779353
-2.076267049304791
-2.120546921610329
-2.149249936977808
-2.161330961854738
-2.165261843289744
-2.162272070534863
-2.169984963899918
-2.172864371198263
-2.166353723423151
-2.176493249205371
-2.17446411825716
-2.176448706462889
-2.184543729689299
-2.188029514637338
-2.199407272608989
-2.197080230355516
-2.187629553171545
-2.182126039211012
-2.197272224839899
-2.201206600316621
-2.196593180173414
-2.191574818562356
-2.178405753795094
-2.185981317265543
-2.211057947702745
-2.190562407150614
-2.2003928400245
-2.19366989175497
-2.196950124979581
-2.19175828866581
-2.197823219567505
-2.199333055090055
-2.200946044017802
-2.193514601655508
-2.17258924658007
-2.173682363661923
-2.185494483489118
-2.187323371860146
-2.184381613641206
-2.174313843365507
-2.17716601814408
-2.179977793311488
-2.178652396470811
-2.181102693315666
-2.182108740575349
-2.174933344755769
-2.168538375059539
-2.16463274089611
-2.163669514481454
-2.166347765021674
-2.162671176378893
-2.162620228217415
-2.156521273899535
-2.152723700466701
-2.143671379085654
-2.103127917841253
-2.019045903411142
-2.008148841721593
-2.089905980755486
-2.124721929360049
-2.150421659830642
-2.1639530006849
-2.166827781252317
-2.163115375461031
-2.170052246240513
-2.172374034102303
-2.168158934907197
-2.175292789657255
-2.174606023710188
-2.177460128251665
-2.182650278583159
-2.186478243929392
-2.198893560946733
-2.198886296785297
-2.187113300698096
-2.180335818669848
-2.20166638643275
-2.200841690204173
-2.197935051221207
-2.191755700722264
-2.182172851214078
-2.188965591156536
-2.208507719600735
-2.193510661850098
-2.197703298732279
-2.195156032897648
-2.198546386629381
-2.190399711438103
-2.196698081076063
-2.197907591625644
-2.199728298264283
-2.193652495644728
-2.175783228029857
-2.174667857284001
-2.186231779048076
-2.188419454635006
-2.184714908961232
-2.174767127090658
-2.1779055761037
-2.180752938285517
-2.179756095219706
-2.182493566022536
-2.183892525074973
-2.176222812387013
-2.16833016420117
-2.164937615864373
-2.163496811281597
-2.166041227508353
-2.165286167456383
-2.164552183623407
-2.157677983347922
-2.152976332712076
-2.145744099808145
-2.110270305418928
-2.043354735556587
-2.052925173298997
-2.102765483735192
-2.129550919143279
-2.150977859793845
-2.167203041416102
-2.169292633811574
-2.16402763822904
-2.168847955209305
-2.171439685519277
-2.169351762163557
-2.17492891572367
-2.175014956379376
-2.178912348988286
-2.182982627843246
-2.187968140531894
-2.195821034034845
-2.199797894483833
-2.189174480025494
-2.178938210074391
-2.207575899985464
-2.199195547876871
-2.197131247292229
-2.192485859860986
-2.18437383343911
-2.191060729516126
-2.204885763459913
-2.195529690950461
-2.197547949549723
-2.195625735461544
-2.20329198913803
-2.193632274613203
-2.19539819001131
-2.195926791614498
-2.197955798172472
-2.194096365805224
-2.178875433917838
-2.1759400819225
-2.186228856456973
-2.188958509445714
-2.184782111384567
-2.174955648719143
-2.17812972077522
-2.181961616067048
-2.180611823685886
-2.184120418670003
-2.185528088734883
-2.177616012663358
-2.1684259325875
-2.166205569887961
-2.164025453528073
-2.165530033077653
-2.167888996990738
-2.167289282325377
-2.158944515279145
-2.153120095510338
-2.148276022833864
-2.117471294112759
-2.073152680621311
-2.088989330993347
-2.114480568885369
-2.1343087982203
-2.151844854323346
-2.170376448349499
-2.172536221588512
-2.165108117684185
-2.167352355895502
-2.170622708124953
-2.169368876371334
-2.174444525200569
-2.175253290277499
-2.180373029088678
-2.184534428810741
-2.190112871697489
-2.194740887919223
-2.198238853053093
-2.190962372655001
-2.180473222907998
-2.210505206939233
-2.199062148816609
-2.195053294212984
-2.193487013802024
-2.185165056307981
-2.191237100259915
-2.204425997691689
-2.196779059192409
-2.199178296742017
-2.197071608641049
-2.208350328251079
-2.202875349914864
-2.196604102285892
-2.193103648234401
-2.195553703765885
-2.194027244150466
-2.18147384861233
-2.177323871912851
-2.185822364823597
-2.189732224570305
-2.184632823748514
-2.174857146199631
-2.177667352657256
-2.183415886796797
-2.181479688521072
-2.185777328487007
-2.187756240809524
-2.179577205239127
-2.168752006247724
-2.166534119840832
-2.164333087572861
-2.16428557607866
-2.169558674734712
-2.169057890072779
-2.160446470201425
-2.15458292730428
-2.150435756626103
-2.125668286532727
-2.102130048202363
-2.117106672849161
-2.125257341273523
-2.138783626702395
-2.153347565163765
-2.172840407687312
-2.176437999746978
-2.16608221471671
-2.166525782522327
-2.169633832238327
-2.168817468059349
-2.173673105928254
-2.174960273607124
-2.181364608764475
-2.186647326490222
-2.191587292606546
-2.194919363432714
-2.197105391209384
-2.191832514079792
-2.183583623497199
-2.207647342946581
-2.198977917286519
-2.193719448708968
-2.193565870484795
-2.185315670227768
-2.189659844851803
-2.205408753707821
-2.196875925965136
-2.199821921575516
-2.200405093616848
-2.210028530524851
-2.209902415799418
-2.198269997769104
-2.190003620176623
-2.192581193574733
-2.192816668708269
-2.183173570736362
-2.178446215934953
-2.185343467149943
-2.190002842437771
-2.184415674545204
-2.174643268737223
-2.176806483625147
-2.184085837315207
-2.181829669463766
-2.187349278507687
-2.190349790495178
-2.181967946429452
-2.169236716540767
-2.164981525911124
-2.163200885429829
-2.162137045642871
-2.167768701515603
-2.167341107649787
-2.161519714918957
-2.15710316386997
-2.153184456332997
-2.136044608797987
-2.126490917068559
-2.139366666835628
-2.135717149029217
-2.143279071979007
-2.155058545651773
-2.173974832741076
-2.180133106733526
-2.166549070408997
-2.166165717305404
-2.168916264475496
-2.168650097315169
-2.172730193610169
-2.174214536381531
-2.181787000952181
-2.189319934280893
-2.192394458636565
-2.194823177334176
-2.196447270224982
-2.192971060201713
-2.187338755902936
-2.20329241775555
-2.198777064469601
-2.193936630034463
-2.192733751777914
-2.185373428049891
-2.187241679161824
-2.203252988496067
-2.195436926832421
-2.198441907147072
-2.203394535198984
-2.209211589214428
-2.210887478827403
-2.199106868868648
-2.188223178158361
-2.190248393634159
-2.191366397598711
-2.184554291978446
-2.17932719766211
-2.184727483023025
-2.188971875654596
-2.183891244503673
-2.173679196885323
-2.175574686305214
-2.183376449027414
-2.182137417937164
-2.188479350753764
-2.192732881677201
-2.184548702757523
-2.169661478539706
-2.162588942653729
-2.161021206067072
-2.159841290362603
-2.16157176437342
-2.162584023658879
-2.162461525938999
-2.159706223315636
-2.157135173492685
-2.148120305114674
-2.147341552272275
-2.158194567884858
-2.146500059948225
-2.148217318291596
-2.156570770976796
-2.173123790003458
-2.181205237761427
-2.166585879449253
-2.165865976191327
-2.168646651885718
-2.169284893931532
-2.172000256970885
-2.172902036319975
-2.181466088366559
-2.192455413368173
-2.19292215273769
-2.19459175252112
-2.19598866329867
-2.193838318710039
-2.19052408296908
-2.200645906903964
-2.198817896249641
-2.194862126894836
-2.192555026319595
-2.185802991411784
-2.184888138158432
-2.198906460160075
-2.194157751904445
-2.196547293298123
-2.203951591878396
-2.207384686051246
-2.209143053797539
-2.198756426160659
-2.189103828517142
-2.190302978512126
-2.190255526272533
-2.186570723090927
-2.180896265683249
-2.184625285190599
-2.18792575252776
-2.183338522334262
-2.172988061528587
-2.173964282995925
-2.181469373246782
-2.183001347949158
-2.189457303326141
-2.19519619292402
-2.187394143038908
-2.170369966333934
-2.159702021708239
-2.158782481477778
-2.157191789683039
-2.152428831416746
-2.159012165773398
-2.163372736853905
-2.161970863678588
-2.161239804654757
-2.159812498730018
-2.167771405081268
-2.177270119570311
-2.157097818887985
-2.15378254429452
-2.157899259525388
-2.170554193365895
-2.177917644570384
-2.166855177768698
-2.165862567989283
-2.168918165663202
-2.169388729455895
-2.171436095336223
-2.171072534467804
-2.179954588129942
-2.195234976347163
-2.19342935786131
-2.194842254842082
-2.195566439644516
-2.194301339087141
-2.192930144334536
-2.199433462230412
-2.199205321840858
-2.196193915948648
-2.193414896037663
-2.18709197841775
-2.183354976181337
-2.196158255779313
-2.193587396940592
-2.195207032029854
-2.202272163541593
-2.205409911880211
-2.206918890993854
-2.198013384790101
-2.192483302255222
-2.192685778372058
-2.189218155247216
-2.189798061710118
-2.184493896735764
-2.185505238221216
-2.185947329167688
-2.181525722961286
-2.173573913544216
-2.171923996809388
-2.179386731798833
-2.183842874157263
-2.190794933115127
-2.198200817342126
-2.189909545914877
-2.171405516259965
-2.15684048561742
-2.156476091333055
-2.154448446944714
-2.143496444095267
-2.156962714754785
-2.163660741801828
-2.163275359118387
-2.164998037873503
-2.171314970789731
-2.188974832078467
-2.203482671769826
-2.167528476472162
-2.160067765597325
-2.160038929692178
-2.168065500891801
-2.172845292681964
-2.166925729277202
-2.166343474542306
-2.169191344175395
-2.168347081726091
-2.170807333887504
-2.168538138478556
-2.176906511352867
-2.19622894127702
-2.19414598000669
-2.195652457031716
-2.196163766059077
-2.194925570118509
-2.194879460791558
-2.198145073643454
-2.199587871123649
-2.197696288476283
-2.195044513934096
-2.188887700658831
-2.183584155389022
-2.193101231696977
-2.190310601252254
-2.192124449355978
-2.200003707367725
-2.204613802366635
-2.20569533769195
-2.200981987221133
-2.198567963782688
-2.196170591009489
-2.190631974044369
-2.191967329814912
-2.188293000948847
-2.185720016856262
-2.187104309482184
-2.180273597689756
-2.171659626234722
-2.172002799171454
-2.179198696474918
-2.18587690492301
-2.192663691508526
-2.19556303197476
-2.187589081325005
-2.172815872842458
-2.157973819267687
-2.157842076545123
-2.155382603320303
-2.146164462377076
-2.15768527907224
-2.162607234672745
-2.163796011532181
-2.167619458215952
-2.181957171721627
-2.213376922707409
-2.233085782299085
-2.177896284587439
-2.167226366599134
-2.163341963018039
-2.167172009363242
-2.169368892568468
-2.166059430985065
-2.166864199830671
-2.16907525165338
-2.165537761040242
-2.169514000152081
-2.166494940483447
-2.174149917586233
-2.195260263144358
-2.196248987376336
-2.197443405760822
-2.197615468043876
-2.195700801435033
-2.196235771067495
-2.197477965958933
-2.200311588489663
-2.199617265738839
-2.196425855969844
-2.189783662818543
-2.183177197030666
-2.190017381278019
-2.187115112863791
-2.189883373363569
-2.197749168865077
-2.204313437753693
-2.206692098195633
-2.205451306150406
-2.206526774617164
-2.202630448564313
-2.194236518319511
-2.193884624558261
-2.192990405761185
-2.190020050726362
-2.190142801400904
-2.179615181969127
-2.169607608494744
-2.172298161221759
-2.17978737750042
-2.188571786061326
-2.193506798219714
-2.192117097286569
-2.183911751791718
-2.173681037907301
-2.16069364540534
-2.160355315554137
-2.15817360161303
-2.15406745599594
-2.160233855143034
-2.162197607275161
-2.164119519806425
-2.168605744441694
-2.192319375418388
-2.239084371640153
-2.250209717455221
-2.189624903790913
-2.174552699550002
-2.167844832823977
-2.168644695326653
-2.16909461961019
-2.166729033834518
-2.16710436032339
-2.167366833059365
-2.161376276799967
-2.168729511403479
-2.166989979012428
-2.17555166273394
-2.192293417928802
-2.197289445578798
-2.202277146425652
-2.198690142831402
-2.194493778327173
-2.19515153868788
-2.20070141327213
-2.201121905734177
-2.20174411107477
-2.197345130937796
-2.190004492190539
-2.18338578623758
-2.187249546217144
-2.184954706827308
-2.188555820079094
-2.19850042913768
-2.204765722984201
-2.208196963083329
-2.20804666176149
-2.211045882090782
-2.205867658195136
-2.196011495073171
-2.194548705835038
-2.19371342558874
-2.193780058883887
-2.196160261821797
-2.186814336719027
-2.172963651451022
-2.172212511147739
-2.184276542966185
-2.194676041571525
-2.193441054895262
-2.188220486950455
-2.180561683743759
-2.171842831392219
-2.164299610158621
-2.163015130259482
-2.161024964101211
-2.159640297228747
-2.163502979894828
-2.165197148411223
-2.1649479834027
-2.16607468824898
-2.195850581872698
-2.251218543023776
-2.237712045481794
-2.198138121833842
-2.18012755057047
-2.17513040690331
-2.17298531145794
-2.171871153039921
-2.16986328972579
-2.169061602134586
-2.167322274702659
-2.157671276254237
-2.169102514023348
-2.163438287814238
-2.17103161824903
-2.192297952191791
-2.198487798140816
-2.206417937040486
-2.199351679005046
-2.193576466681895
-2.192036592067081
-2.20442254259943
-2.200986642160382
-2.202704404691179
-2.201454710911944
-2.190274455119936
-2.18481112751571
-2.185892426760396
-2.185595932239222
-2.189358037647005
-2.199591505561659
-2.205422420641519
-2.206963200474996
-2.206563371993907
-2.206163714590716
-2.199815081648477
-2.186871377241714
-2.18849575001569
-2.189348490891579
-2.191869465929178
-2.191458118152665
-2.187419298160487
-2.178443742113625
-2.172383273235469
-2.186756760034775
-2.199593026539783
-2.195701962663868
-2.18312208560942
-2.177141094439292
-2.168565816512606
-2.167316036501615
-2.166655005335754
-2.164656752531672
-2.164275771081111
-2.165905100898699
-2.165747377082868
-2.166996757035466
-2.167446903655364
-2.190472922908651
-2.23348675180945
-2.223387055031463
-2.205779670610417
-2.188758985638594
-2.182527367353766
-2.178616724354064
-2.175913574929909
-2.173153371591215
-2.171852026322161
-2.169674573010867
-2.163184017137783
-2.170389196208939
-2.166207436373059
-2.173141357938467
-2.188465353126146
-2.190988906022118
-2.197701456510729
-2.197121890385858
-2.197179994352177
-2.186457086000712
-2.207571330865748
-2.20147114694198
-2.200643514540238
-2.200725221796084
-2.192019031962214
-2.188073657277484
-2.190111373648173
-2.186163887298951
-2.191141353392648
-2.201761097257579
-2.206041558932882
-2.20467363300888
-2.199604104392174
-2.19495751169381
-2.19036014331656
-2.184663678173927
-2.180111094600167
-2.179030566217356
-2.182795736292104
-2.18481255016712
-2.18348402566169
-2.178847134383186
-2.172254795748885
-2.182079895159508
-2.19543848851977
-2.198826861298352
-2.18536962956465
-2.177078358480287
-2.167170203448281
-2.165830399926333
-2.166638240785423
-2.165939481289297
-2.167267033913093
-2.167986682105524
-2.166167335720499
-2.167499936498396
-2.170243401485277
-2.188028658323827
-2.218409445455882
-2.197139871496399
-2.1999984326102
-2.197226941109655
-2.189290650465769
-2.183695224998651
-2.180113401125558
-2.176666763611907
-2.174521927728079
-2.172041989882268
-2.166831792664015
-2.167021319227552
-2.164318677014628
-2.171005584811081
-2.189645927845634
-2.194714892376975
-2.201115417099169
-2.199770570089708
-2.199145146782134
-2.197697269099209
-2.209968309262094
-2.203521149091464
-2.199499089212402
-2.200063270498121
-2.194639157500442
-2.191013056249634
-2.188633334484637
-2.186629662920268
-2.19433015490345
-2.202334341586396
-2.20459554373173
-2.20395962165185
-2.193335142666582
-2.189772053657685
-2.186859546832304
-2.184501378315211
-2.179647560988716
-2.175049678423778
-2.178563774185577
-2.174898842414613
-2.176290411251356
-2.176919047193906
-2.17179970693358
-2.177039262082471
-2.188131195366632
-2.197609486787066
-2.187692387934528
-2.177218175918267
-2.166325304485512
-2.165056354722207
-2.165313186143831
-2.165782061490393
-2.167875399281763
-2.169173286251082
-2.167612262831673
-2.169218345137355
-2.170308849364797
-2.18049663737904
-2.195544149668793
-2.176236860330149
-2.188285372853972
-2.196545230607713
-2.19224676256968
-2.187801453088914
-2.184314568235113
-2.180564136558709
-2.177334703497697
-2.174971795231917
-2.171860598341591
-2.170993363197541
-2.170027191059245
-2.17421706761192
-2.190632801822786
-2.196574683037609
-2.198616479051211
-2.199436806454635
-2.199880798018404
-2.198106269267015
-2.208189056844819
-2.208258210260763
-2.202512413411793
-2.200479194309894
-2.196631549657051
-2.192160969126864
-2.184678336823745
-2.186946771176742
-2.196422059602011
-2.201037679712504
-2.201293484651246
-2.203523908746379
-2.190178512896046
-2.187214924026152
-2.187169679755248
-2.188155977627997
-2.185259010682034
-2.180040183423221
-2.176066567709631
-2.171429018557391
-2.174796054806742
-2.177389374359175
-2.172034307498337
-2.173786122396916
-2.183203533835031
-2.193149177192095
-2.183413407870876
-2.174764312834723
-2.167011960182974
-2.165420948805022
-2.165779727098228
-2.165889524130219
-2.165604085941295
-2.171078749225722
-2.169573359719768
-2.170250556447111
-2.171648835286226
-2.178437112514058
-2.180070307030288
-2.170339449679626
-2.182920212569373
-2.19333635440178
-2.192528006939244
-2.190441669708165
-2.187885292170179
-2.183581065442957
-2.180509549239569
-2.178629908089429
-2.177947805386614
-2.17935434033027
-2.176595449215434
-2.178524992338213
-2.192540010978058
-2.196311791578401
-2.197847544909573
-2.199293178847524
-2.199287615550205
-2.198358836583538
-2.203477863474016
-2.208486520885088
-2.204391293271782
-2.201835442356287
-2.1977713580446
-2.194034573333079
-2.18169464120421
-2.187818811265917
-2.195801650381525
-2.202083428576401
-2.204264533890588
-2.208087438098652
-2.193066565252783
-2.183685272764772
-2.184367649524194
-2.191647478724171
-2.190012072959674
-2.183780538013267
-2.176334361762978
-2.172908056239151
-2.175958841405462
-2.178965831484379
-2.174000796169527
-2.170650029917064
-2.178786312256059
-2.188663070651222
-2.181755130434916
-2.174361279500991
-2.167155725970189
-2.16601289458502
-2.166816802970359
-2.167108417469374
-2.163434908216181
-2.171525702514606
-2.171809914895823
-2.171970175945173
-2.172455990452248
-2.176305584989281
-2.171755060532233
-2.167057383893998
-2.18099500381514
-2.189871462218126
-2.192953262974214
-2.191953345662404
-2.190630574421882
-2.186516192615657
-2.184412107831934
-2.182503368762543
-2.183726856227814
-2.18906454833252
-2.183232662627613
-2.180855787277498
-2.193917243881661
-2.196333803238229
-2.197830795498694
-2.199719213216381
-2.197930153332734
-2.1954518584692
-2.199865908394944
-2.204376405341112
-2.204109572201365
-2.20368804336032
-2.200418282040889
-2.196651089673084
-2.179089008456155
-2.185288115157681
-2.19280851365755
-2.201379865903873
-2.206214702077843
-2.209523667612026
-2.196884257606442
-2.181241100733314
-2.184130934648745
-2.195499898824988
-2.191547170490982
-2.18512544512247
-2.175034090696355
-2.175293010973833
-2.177036594169226
-2.179325471575281
-2.175412259861785
-2.172542005084273
-2.176637517835752
-2.184292397303241
-2.179035816707949
-2.17398394986016
-2.168224631606912
-2.166703527213052
-2.168586623647603
-2.169094868458695
-2.164111702021871
-2.171358589404633
-2.172002624901296
-2.17252838406727
-2.174130149102475
-2.177046309470374
-2.167303746295948
-2.170958659987507
-2.180988998095108
-2.186934935335465
-2.192840010649994
-2.192965381247391
-2.192884125426968
-2.189482437262071
-2.187254794078054
-2.185263797759707
-2.185395977214757
-2.196407662788621
-2.192354063353361
-2.181216350659548
-2.193413610729147
-2.196358886286893
-2.197703392343292
-2.199194998330156
-2.198676373068773
-2.194108166813531
-2.195930262505451
-2.200234347310247
-2.203441276005679
-2.207228803940907
-2.204792674731154
-2.200955419511739
-2.175366447741502
-2.180495244043239
-2.18872121587147
-2.199344517645965
-2.207057390162706
-2.212068236810289
-2.201978718084876
-2.181165848942788
-2.184143001122032
-2.199629301268774
-2.192294363261605
-2.18438850280188
-2.17258158870266
-2.174958761455792
-2.176353963691764
-2.178844839335174
-2.176667153337171
-2.174740079109749
-2.176658028980285
-2.181403787974456
-2.178029486833525
-2.174480151454254
-2.170253800253645
-2.166051240486624
-2.167997081229289
-2.169265637830391
-2.166364825140563
-2.171251298353041
-2.173932041092459
-2.173718402120869
-2.175187708690708
-2.178859987226802
-2.170545546004402
-2.177792835735663
-2.18128631284064
-2.184734437586012
-2.192552658155681
-2.193596047523632
-2.194116334972484
-2.191232165151461
-2.187930606826544
-2.184465385810283
-2.179579801442738
-2.194360089864228
-2.196457787886731
-2.18533365601038
-2.199247687666354
-2.201729707973339
-2.199000931467714
-2.197690627857834
-2.198347207526634
-2.194149972280213
-2.193066012770787
-2.196892191185337
-2.203100134973127
-2.211738213733883
-2.209718733571221
-2.207510873554355
-2.174004117506357
-2.176072845006704
-2.184735533661721
-2.196903860449219
-2.206505264733527
-2.214625455038309
-2.20629153841274
-2.181704592914651
-2.181908341524531
-2.196838710358811
-2.193988842851121
-2.185120375644594
-2.170424136091079
-2.173132789292055
-2.174889359524292
-2.178471838422869
-2.176441264163381
-2.175735968809204
-2.177180800387516
-2.180164019322715
-2.177314271930586
-2.175441262994233
-2.172268546634856
-2.166201672233548
-2.165778398647141
-2.167959969319887
-2.166855249921634
-2.170987297573098
-2.17480288896662
-2.174832403490567
-2.176211357284162
-2.180787965676127
-2.176402309983668
-2.183455176802426
-2.181612818703203
-2.183140497497226
-2.192369999925615
-2.193561668611637
-2.193055805832757
-2.189708748305077
-2.185675357321188
-2.181112684448693
-2.176057483467946
-2.188402255805142
-2.194139268892655
-2.193144299817386
-2.205260560429807
-2.206451993198726
-2.201107595698514
-2.19509734078324
-2.196690098124249
-2.196707958600665
-2.194534327921232
-2.19638288559219
-2.201468231233053
-2.20926124832695
-2.208928426198842
-2.209940919673735
-2.177571350427738
-2.172672353837571
-2.181608900428007
-2.195362750164241
-2.204161915638371
-2.21225582608651
-2.208683693985585
-2.187439054952383
-2.181270871187503
-2.193371929598717
-2.195372260362282
-2.18759355442487
-2.170426853533534
-2.172987775711611
-2.173903295871639
-2.1792170131458
-2.175979698866363
-2.175679703302523
-2.176639891225066
-2.18035088010574
-2.176515015789841
-2.17568865367146
-2.174911513002908
-2.167393894274977
-2.163695669005493
-2.166189870313138
-2.166660696366193
-2.170963105843945
-2.174254071430196
-2.175070025807535
-2.17702971512668
-2.182283156175397
-2.181290822880107
-2.188184220199116
-2.182049001526774
-2.18191629494117
-2.19223227111762
-2.193372834277463
-2.191774093903396
-2.186169217571745
-2.183370528780776
-2.179152761239804
-2.17461415208271
-2.183762205448617
-2.189133553978239
-2.197154278028573
-2.210659001056408
-2.211276827367824
-2.204369986980797
-2.193793536140284
-2.194407271523453
-2.198732109519701
-2.197031217259946
-2.196414582032805
-2.200209655472453
-2.206393552119259
-2.205582282911403
-2.210833157778461
-2.182377408347148
-2.17194127962148
-2.179114951284687
-2.193369989798841
-2.201386901890455
-2.209761273824114
-2.210473726310646
-2.19631120946474
-2.182266659614951
-2.190526619524721
-2.195622682972517
-2.190882622171998
-2.172572087205282
-2.172593369730165
-2.173240909007391
-2.180870463477555
-2.175407976704022
-2.175258142368284
-2.175286274432317
-2.181266581736627
-2.176563218081892
-2.176532797956714
-2.179000169717491
-2.169905941263909
-2.162172899376044
-2.164415510953162
-2.166227091333008
-2.170898763214536
-2.172890138792926
-2.174535818733214
-2.177524474125451
-2.183399185403574
-2.185292408178484
-2.19223952352146
-2.182217913412126
-2.180810968219341
-2.192155700490207
-2.192871627823433
-2.190314181139936
-2.182338762408753
-2.180586306091772
-2.177732045423551
-2.175110014581146
-2.181304412793866
-2.185324896381094
-2.195526779908213
-2.211168323466259
-2.212583887909794
-2.206475234393062
-2.193648677817038
-2.192405697989426
-2.198738197719302
-2.200028172538776
-2.197218504187103
-2.199199276681953
-2.203158430942487
-2.20091304317645
-2.209168071009297
-2.187896580019855
-2.172676599876011
-2.177248534905184
-2.191222898521334
-2.198625412019155
-2.207490472931707
-2.211488455621553
-2.20729949348337
-2.186842476305754
-2.189455090594259
-2.194863157795901
-2.192852271336468
-2.176289545377349
-2.17092416765441
-2.172861879132862
-2.181953382076636
-2.175039137096461
-2.174489762178213
-2.173832227976884
-2.181702121405656
-2.177171962433442
-2.176870899953943
-2.182956868342627
-2.173223929184203
-2.161930208686201
-2.163232361191277
-2.166285118219657
-2.17096462111201
-2.171751793459586
-2.173528799040948
-2.177732220894376
-2.184184421540108
-2.189296206597239
-2.193298186229917
-2.181977070718072
-2.179716707993114
-2.192159816699784
-2.19210892568204
-2.188439209315782
-2.178640597745837
-2.177034881204785
-2.175631492513713
-2.177737392947286
-2.181493138358743
-2.183928514387922
-2.190651366106015
-2.206285810751808
-2.207583148886571
-2.206378220275983
-2.193602878303405
-2.190993557589687
-2.196676965331231
-2.202850406640488
-2.198875348999161
-2.199449418967778
-2.200333865452226
-2.196177850041557
-2.205744356793772
-2.192967718455177
-2.174976492656641
-2.176418885221627
-2.189616785295458
-2.196051462757813
-2.205265107673015
-2.211819152332653
-2.216429763001201
-2.19729811511383
-2.18953634412508
-2.193398265291285
-2.193844646152667
-2.180337402882778
-2.166959573350373
-2.171530438643358
-2.182856352602802
-2.175049451520574
-2.173271675459195
-2.17246740090097
-2.181071184632553
-2.177606963998083
-2.177469805643842
-2.182472086857719
-2.175897922890555
-2.162685957092468
-2.162821292407806
-2.167534146928634
-2.171227759976443
-2.171640978036819
-2.172791299843146
-2.177538240095768
-2.184573404760364
-2.190881786621284
-2.189822590137858
-2.18186550830113
-2.178698835119854
-2.192826947956084
-2.191069157830837
-2.186065345970337
-2.174935584205272
-2.172332050983363
-2.172509539939783
-2.179962344219345
-2.183612103365064
-2.184730144566674
-2.185825596935906
-2.20047778515048
-2.201016417572957
-2.203323014211532
-2.193946523700598
-2.190259427573328
-2.19442505661682
-2.203746423742819
-2.201111733328358
-2.200479577590495
-2.198599565601653
-2.19279846553317
-2.202181973202277
-2.196108153157834
-2.177897271075903
-2.176947127837458
-2.188487932476344
-2.193563448080957
-2.203261039984815
-2.21115881533899
-2.219565970940858
-2.207358869665852