/*--------------------------------*- C++ -*----------------------------------*\
| =========                 |                                                 |
| \\      /  F ield         | OpenFOAM: The Open Source CFD Toolbox           |
|  \\    /   O peration     | Version:  v1812                                 |
|   \\  /    A nd           | Web:      www.OpenFOAM.com                      |
|    \\/     M anipulation  |                                                 |
\*---------------------------------------------------------------------------*/
FoamFile
{
    version     2.0;
    format      ascii;
    class       volScalarField;
    location    "20000";
    object      p;
}
// * * * * * * * * * * * * * * * * * * * * * * * * * * * * * * * * * * * * * //

dimensions      [0 2 -2 0 0 0 0];


internalField   nonuniform List<scalar> 
3770
(
3.369068353884986e-18
3.250127565045543e-17
1.76541898013433e-16
1.974788257621374e-16
2.548058372506715e-16
2.696061097297281e-16
3.09269476448499e-16
2.686450047878923e-16
2.464907788920469e-16
2.854771130236848e-16
2.975666850847938e-16
2.496655259537155e-16
3.719538690387508e-16
3.794591327741131e-16
2.8883641992247e-16
3.005338081172828e-16
3.154962925535261e-16
2.81735074976764e-16
3.301606809753621e-16
3.158911666489662e-16
2.969163248418572e-16
3.283959532487321e-16
2.930599378923358e-16
3.429144539255731e-16
3.771042900176375e-16
3.639631669837811e-16
3.078678932942139e-16
2.646132678088179e-16
2.867045503911557e-16
2.825084175853718e-16
3.346422122749341e-16
3.822685275331189e-16
3.148059268208839e-16
2.858249095922602e-16
3.302915937792375e-16
3.084823016302785e-16
2.844974813949935e-16
3.027721655793751e-16
2.573459798481602e-16
2.709635520192784e-16
2.73684795677606e-16
2.645880790183774e-16
2.567955138148462e-16
2.735202106240475e-16
2.721621536434782e-16
2.744713635154597e-16
3.453440733626176e-16
2.615321998580734e-16
2.571539241057368e-16
2.17902050675452e-16
2.042557503359649e-16
2.095344525928548e-16
1.978646550886454e-16
1.964423145236027e-16
1.461493294744994e-16
1.54768843890531e-16
1.818648979744267e-16
2.864678039550611e-16
3.126580297667085e-18
3.375478544877833e-17
1.765924640524007e-16
1.976649106087472e-16
2.545527510140088e-16
2.698988541271221e-16
3.092107089847183e-16
2.687406566051089e-16
2.465066599105354e-16
2.851698762550865e-16
2.97146188656442e-16
2.504896964530024e-16
3.719106839085266e-16
3.792485610081844e-16
2.88689743583811e-16
3.004300246550924e-16
3.152296322198611e-16
2.823873411442325e-16
3.307365533893861e-16
3.144475478408284e-16
2.976102663109657e-16
3.286398874069314e-16
2.923317294259164e-16
3.433164550548161e-16
3.770363717935732e-16
3.637640043814862e-16
3.081624842224357e-16
2.645813165149875e-16
2.87101629108934e-16
2.820896664785575e-16
3.345264647517886e-16
3.827583991788264e-16
3.150137191071013e-16
2.854721643450969e-16
3.296692399174956e-16
3.087501508968278e-16
2.857235445483293e-16
3.030220248067082e-16
2.561147523416317e-16
2.701446727900407e-16
2.740885973431479e-16
2.648612555378829e-16
2.570805608351981e-16
2.736139772968094e-16
2.723580068059391e-16
2.740865654783367e-16
3.453344093460544e-16
2.616878281631283e-16
2.565371588845309e-16
2.181596577237477e-16
2.039406578190665e-16
2.102175665343471e-16
1.995417404677878e-16
1.955197131954041e-16
1.447871363878015e-16
1.544882467357934e-16
1.832200146855249e-16
2.857862302461189e-16
3.248881771769711e-18
3.465311975777332e-17
1.768622323718875e-16
1.983311434493499e-16
2.545422943437935e-16
2.700571138655361e-16
3.085389631985694e-16
2.688578283875716e-16
2.47140736653786e-16
2.844349497670792e-16
2.969045004593276e-16
2.51862587572425e-16
3.714834184067388e-16
3.78982600876452e-16
2.889137501435899e-16
3.001155585144909e-16
3.143667895366807e-16
2.835024338793687e-16
3.310592537963935e-16
3.128619741763462e-16
2.979999035651022e-16
3.291463611380624e-16
2.91410982806681e-16
3.428560895167984e-16
3.774287670393857e-16
3.642528247848204e-16
3.08839254995471e-16
2.648218780472309e-16
2.874202060153159e-16
2.817195082661386e-16
3.332124717835973e-16
3.834220818447947e-16
3.160264193965075e-16
2.846736374284516e-16
3.295401487989641e-16
3.088862701793156e-16
2.86948624473494e-16
3.032090272654029e-16
2.548017863754392e-16
2.690075172721585e-16
2.746515712912649e-16
2.657537552858695e-16
2.575277576427154e-16
2.731558457261747e-16
2.718296460939826e-16
2.73600013436865e-16
3.457481915496448e-16
2.624234731549066e-16
2.559124770406458e-16
2.185837284520977e-16
2.032330352367661e-16
2.097789906846847e-16
2.005545012012469e-16
1.969667521720522e-16
1.444014368416812e-16
1.526583158045839e-16
1.835428312927837e-16
2.850420860531645e-16
2.926829070510941e-18
3.607356390722769e-17
1.771777476782266e-16
1.994283508757603e-16
2.544322199065773e-16
2.700706075362345e-16
3.074373709305911e-16
2.68964667210814e-16
2.485109650309507e-16
2.844867392169513e-16
2.955453194342033e-16
2.535007677611536e-16
3.707615473788406e-16
3.785085876202282e-16
2.901159186054309e-16
2.993475665234367e-16
3.130514099106295e-16
2.847591912323907e-16
3.311068723621513e-16
3.112093842522199e-16
2.982765771367771e-16
3.292716438737961e-16
2.908639680398949e-16
3.418261847072561e-16
3.777202129235313e-16
3.657039470276356e-16
3.0994520249741e-16
2.65678007998606e-16
2.868923252143847e-16
2.807379609817058e-16
3.316341793483184e-16
3.839869414073316e-16
3.180324381788571e-16
2.844973570065499e-16
3.28598195829538e-16
3.087530323845775e-16
2.879795936879361e-16
3.040242778169569e-16
2.540009757373612e-16
2.670606340819314e-16
2.756786421960334e-16
2.666760929573116e-16
2.578381973216894e-16
2.724987061753021e-16
2.711887912786375e-16
2.730631245418917e-16
3.454759531961096e-16
2.636649587875293e-16
2.555670321817596e-16
2.191754797200511e-16
2.025355140422528e-16
2.085183585461915e-16
2.014009276828835e-16
1.990310553071497e-16
1.440928577425954e-16
1.505795441775756e-16
1.842260794615437e-16
2.837414222442785e-16
2.989990536777665e-18
3.798413219117028e-17
1.783658803323085e-16
2.009887461652445e-16
2.542844463350383e-16
2.691390154960016e-16
3.063863767707079e-16
2.692110023439299e-16
2.504127263093469e-16
2.847097890445236e-16
2.940633697730886e-16
2.548570991061212e-16
3.697848675606752e-16
3.775761057315191e-16
2.923103035800359e-16
2.988733521098301e-16
3.116867266834234e-16
2.86068988810936e-16
3.316923677673801e-16
3.100590038172082e-16
2.974440274350607e-16
3.291399540528492e-16
2.90593780048353e-16
3.412578073340595e-16
3.784333767395284e-16
3.670391402327413e-16
3.105772196779839e-16
2.665104961858092e-16
2.86176523328844e-16
2.79733049039139e-16
3.321453541223232e-16
3.837926703661746e-16
3.196325593495004e-16
2.842668704535038e-16
3.27768334687712e-16
3.077845605298252e-16
2.885454439628576e-16
3.062647470402878e-16
2.546802298441877e-16
2.649228581805215e-16
2.758704500064907e-16
2.66541418211919e-16
2.582610627991417e-16
2.721416973196656e-16
2.708128952473423e-16
2.722912628156397e-16
3.431013182501735e-16
2.656454508485478e-16
2.557896691704318e-16
2.194658282463867e-16
2.035155005190014e-16
2.069926699743375e-16
2.008457347914144e-16
2.006818514355437e-16
1.447622620173707e-16
1.495891296342173e-16
1.840131667452978e-16
2.81403325461659e-16
4.790833824790767e-18
3.927916756716813e-17
1.800296847027171e-16
2.037721263488217e-16
2.538318478247034e-16
2.68264582912259e-16
3.055339062179044e-16
2.688236244651485e-16
2.529253327649914e-16
2.862886217647214e-16
2.932002895052138e-16
2.551517957714446e-16
3.684910352145608e-16
3.768104647417204e-16
2.925170177539941e-16
2.994813600240418e-16
3.097074137437625e-16
2.87544055866011e-16
3.328431046117141e-16
3.091078592156986e-16
2.960728456479588e-16
3.293351111170631e-16
2.88785857089435e-16
3.406537128433072e-16
3.803183851133816e-16
3.679226656961308e-16
3.113267133300288e-16
2.675859096481999e-16
2.860028722440261e-16
2.788811552031341e-16
3.329645099229698e-16
3.824810718719608e-16
3.206555482559748e-16
2.85070653126089e-16
3.268294085077094e-16
3.06449657857259e-16
2.88211984733457e-16
3.088911805631531e-16
2.563160601151117e-16
2.640517206291219e-16
2.751728717188168e-16
2.661989087891082e-16
2.579849667366903e-16
2.716489257682371e-16
2.710122487383325e-16
2.715102396234106e-16
3.391250907034835e-16
2.676798961982418e-16
2.565724284162284e-16
2.18826394277481e-16
2.059284271640716e-16
2.059279963121115e-16
2.002720266630332e-16
2.016127354759358e-16
1.455745429472857e-16
1.501539385898041e-16
1.818417097719288e-16
2.782115516020715e-16
7.604861555054248e-18
4.118320839465687e-17
1.804337986860591e-16
2.067189748454674e-16
2.542989103139807e-16
2.685392138820362e-16
3.040080017515076e-16
2.686541530556954e-16
2.543145415256886e-16
2.881253401246995e-16
2.912722817236418e-16
2.555992187102846e-16
3.670553584697388e-16
3.757819264150096e-16
2.923183049412739e-16
2.999578494010402e-16
3.098899590146244e-16
2.86858163079856e-16
3.333431469711587e-16
3.090443916294279e-16
2.951554177674238e-16
3.293508998637925e-16
2.874765591617612e-16
3.389512019411957e-16
3.824099893131182e-16
3.6973485468965e-16
3.111264751458946e-16
2.685770589077902e-16
2.859070517559816e-16
2.782539492027824e-16
3.35242813692128e-16
3.797143751310299e-16
3.217959937427622e-16
2.861178578296902e-16
3.262081628478147e-16
3.044869680272909e-16
2.860820566530506e-16
3.131756583100262e-16
2.609919121570705e-16
2.613262641469095e-16
2.742461314429393e-16
2.6634731688273e-16
2.570620717691634e-16
2.710321443128662e-16
2.713000925119258e-16
2.69775797582174e-16
3.353948451731008e-16
2.704387603295262e-16
2.573196168634556e-16
2.185740513721418e-16
2.073246616948274e-16
2.059954384114605e-16
2.002203440756273e-16
2.017671973409804e-16
1.460352009551989e-16
1.508283530742492e-16
1.795229789891511e-16
2.754810531643991e-16
1.021183502753728e-17
4.421120539065882e-17
1.815867539364752e-16
2.091795650017753e-16
2.552871764352337e-16
2.678661058677548e-16
3.024592128989914e-16
2.687839636148348e-16
2.5474978301641e-16
2.892356347183576e-16
2.907821829847499e-16
2.566339201916445e-16
3.64895650511633e-16
3.744454686411243e-16
2.93067116339954e-16
3.001939899564732e-16
3.086949313946324e-16
2.870277203876536e-16
3.334218013702151e-16
3.090932151115685e-16
2.948778433027025e-16
3.293803344193347e-16
2.851796196303313e-16
3.372232794806822e-16
3.849291663860119e-16
3.715304742176508e-16
3.102620377089039e-16
2.707157171190123e-16
2.845771349017565e-16
2.781871548699686e-16
3.386927630216234e-16
3.76527832300796e-16
3.224754596247424e-16
2.871279074076635e-16
3.251155253667516e-16
3.028205519968753e-16
2.840154672375123e-16
3.164550097978292e-16
2.668583273647175e-16
2.593618497660065e-16
2.7373847360597e-16
2.653450908634295e-16
2.565250173731936e-16
2.6939121850418e-16
2.718278214541025e-16
2.691088503154663e-16
3.304150150498275e-16
2.720357549407651e-16
2.594668052368897e-16
2.17557609933158e-16
2.088476053905875e-16
2.060004308108469e-16
2.018102177354054e-16
2.011800666156832e-16
1.463066370458506e-16
1.531561725504773e-16
1.769824030175061e-16
2.711194874554438e-16
1.496961859114257e-17
4.387119140726592e-17
1.836790033283397e-16
2.129092823142197e-16
2.565319245056919e-16
2.666471318772449e-16
3.003938294219973e-16
2.689544106631657e-16
2.559532925273641e-16
2.903037784451694e-16
2.919310595103632e-16
2.581314958440128e-16
3.620814569098109e-16
3.726767065725156e-16
2.934737028979132e-16
3.006607305885289e-16
3.060739667003968e-16
2.8782645881817e-16
3.330664983246131e-16
3.085564542810114e-16
2.946415989774684e-16
3.301485109593033e-16
2.828931737914845e-16
3.35461322705758e-16
3.863759566165609e-16
3.736168545288638e-16
3.110395992363577e-16
2.721122944575131e-16
2.839006522258833e-16
2.778908660586548e-16
3.412722269799829e-16
3.728303532979527e-16
3.225001428273448e-16
2.902535360940833e-16
3.251317121479452e-16
3.014538837949939e-16
2.808693608975346e-16
3.169174881511895e-16
2.737087416755863e-16
2.588198356779918e-16
2.722899988119484e-16
2.647777129621469e-16
2.569214884435567e-16
2.68681449626445e-16
2.714814831728902e-16
2.676189503062728e-16
3.238398702128285e-16
2.736734031367473e-16
2.63165417771904e-16
2.156229247665003e-16
2.102563246462799e-16
2.066258140104637e-16
2.041932466717316e-16
1.993197851948241e-16
1.469344126589687e-16
1.572226325077618e-16
1.727730309824811e-16
2.666840357087219e-16
2.068711886047919e-17
4.702294686139006e-17
1.832097020614393e-16
2.164514006792473e-16
2.591692175012283e-16
2.658737284879995e-16
2.983856670852382e-16
2.689704991740863e-16
2.577785412470914e-16
2.901008155892795e-16
2.935025399525631e-16
2.595546249973529e-16
3.58704322148716e-16
3.711368666716289e-16
2.943569930851205e-16
3.008114558637329e-16
3.04674056174593e-16
2.864869607350883e-16
3.327144131992149e-16
3.094693485065336e-16
2.952742622680899e-16
3.298207785476807e-16
2.805424285365778e-16
3.330593279252286e-16
3.884509418966983e-16
3.755149425120823e-16
3.10168453400376e-16
2.745459442432003e-16
2.823757814883187e-16
2.783820911001847e-16
3.451888784704981e-16
3.689459706196938e-16
3.219364275071544e-16
2.924439638058388e-16
3.248534687474735e-16
2.995526034290071e-16
2.778320005095991e-16
3.183371064015902e-16
2.81011978545161e-16
2.596451024275004e-16
2.714651168530072e-16
2.642342232625309e-16
2.569609882667467e-16
2.659233429285761e-16
2.703003703832143e-16
2.661093446753184e-16
3.169494238398752e-16
2.744952641847474e-16
2.671504532671997e-16
2.151642816625454e-16
2.103797915617051e-16
2.08090723859327e-16
2.066737260802412e-16
1.99004801460676e-16
1.470023080810621e-16
1.606253255663585e-16
1.676881674904248e-16
2.611611994295473e-16
2.690288054237948e-17
5.026703418630981e-17
1.822890750174178e-16
2.179143064724612e-16
2.632416270016176e-16
2.652798589494733e-16
2.962888743477169e-16
2.693468205516487e-16
2.595116360760402e-16
2.8943195870567e-16
2.942387556000625e-16
2.622089454344376e-16
3.555422965393592e-16
3.693496973763755e-16
2.964308458713406e-16
3.007989288866145e-16
3.026666352231337e-16
2.853332566107093e-16
3.334224484630246e-16
3.104604910273304e-16
2.963137409458373e-16
3.300317327463656e-16
2.786891816749006e-16
3.296489529688634e-16
3.887491707692662e-16
3.765184414716083e-16
3.102669048581731e-16
2.762888073914006e-16
2.806942743863045e-16
2.802362493529669e-16
3.501081192968696e-16
3.656640484481936e-16
3.199185532055278e-16
2.933713892929329e-16
3.254232234317041e-16
2.962254460447694e-16
2.765844475227083e-16
3.204597000576651e-16
2.881012620020723e-16
2.600908428034846e-16
2.726181881429954e-16
2.637966726606848e-16
2.57155538159128e-16
2.637029940067051e-16
2.679543166832908e-16
2.637616507396954e-16
3.112436280174956e-16
2.746977338506121e-16
2.713138341264089e-16
2.151329029797461e-16
2.090665492379438e-16
2.08131712503052e-16
2.087417799495906e-16
2.003636197603264e-16
1.498218639531983e-16
1.629946736226559e-16
1.606996648882076e-16
2.572777730852653e-16
3.313991680983404e-17
5.364434383837937e-17
1.820938053262337e-16
2.192344180046109e-16
2.657817521907788e-16
2.649566242559894e-16
2.924471803834013e-16
2.7019633579763e-16
2.626154050976015e-16
2.868576925904619e-16
2.944152369112425e-16
2.648147309737442e-16
3.522490136054664e-16
3.704166836593408e-16
2.955004488990766e-16
3.022859570068426e-16
2.989543894943801e-16
2.848557388429894e-16
3.328839571033982e-16
3.138166065168247e-16
2.968668302036247e-16
3.271545851889882e-16
2.787580288329994e-16
3.278345369534297e-16
3.87334895037823e-16
3.76606316912116e-16
3.137899275368123e-16
2.785741157684005e-16
2.787420914342299e-16
2.832157000076483e-16
3.520787329188097e-16
3.627342145245628e-16
3.177114691186257e-16
2.961919365740653e-16
3.259031335667129e-16
2.911128894785334e-16
2.772696020720805e-16
3.187339037711873e-16
2.953793118589222e-16
2.623608729428659e-16
2.731003558532216e-16
2.645473603892856e-16
2.565762124994161e-16
2.617660476644114e-16
2.630469565178306e-16
2.642039387275289e-16
3.040652667982311e-16
2.762130598840842e-16
2.744216960411793e-16
2.147225468486114e-16
2.086067935892289e-16
2.075157779101708e-16
2.108353138064323e-16
2.005540314255621e-16
1.531601741416097e-16
1.66048775424635e-16
1.53416414322926e-16
2.532406724943684e-16
3.875422520883502e-17
6.034459984526932e-17
1.809216630658609e-16
2.197240194711688e-16
2.687107868404161e-16
2.642026096580058e-16
2.879979522447822e-16
2.712262659582916e-16
2.660200678044769e-16
2.850750902654178e-16
2.9358433114538e-16
2.668144658987279e-16
3.497520662271673e-16
3.69666192962292e-16
2.977784555271572e-16
3.034494235024734e-16
2.955737300293964e-16
2.855176496254803e-16
3.316495568986608e-16
3.165515987242633e-16
2.977970494609484e-16
3.235293394200981e-16
2.794012047240613e-16
3.2693200658453e-16
3.854004843016091e-16
3.76001248741255e-16
3.155920800174767e-16
2.793903360744327e-16
2.797965354649616e-16
2.86342129311606e-16
3.536502905176672e-16
3.607267811275158e-16
3.153867694832066e-16
2.979471825819013e-16
3.256043207091554e-16
2.874160441791175e-16
2.761529511763777e-16
3.1872814946866e-16
3.011001728587724e-16
2.647483828143346e-16
2.752550838386656e-16
2.674833864327401e-16
2.554482267610519e-16
2.573672200684897e-16
2.57761464671556e-16
2.641161795341197e-16
2.997879352427132e-16
2.776155683983058e-16
2.75706398579627e-16
2.148859448862317e-16
2.09628418913764e-16
2.066924884771218e-16
2.104266008338178e-16
2.019457720524539e-16
1.56991259402393e-16
1.681697679607221e-16
1.477867619306684e-16
2.47093478824931e-16
4.184572684787494e-17
6.917920195332157e-17
1.802057904670304e-16
2.190156063958486e-16
2.715368471271364e-16
2.638091839445208e-16
2.86046423281904e-16
2.714144228182041e-16
2.677309669129755e-16
2.823911416565919e-16
2.921394661188642e-16
2.715138051468137e-16
3.487455771610461e-16
3.65166039387624e-16
3.019283149386702e-16
3.022422249908869e-16
2.966401131959447e-16
2.866811337251873e-16
3.307749841364334e-16
3.183323517939407e-16
2.983858597568708e-16
3.198289030330797e-16
2.804500087623715e-16
3.275538405979469e-16
3.812308580370759e-16
3.736446952347432e-16
3.170071272414528e-16
2.837313906463318e-16
2.824085836584715e-16
2.890330581339614e-16
3.555227739760044e-16
3.558394633084393e-16
3.136421318684637e-16
2.997834651409515e-16
3.238445645776214e-16
2.870854212585582e-16
2.738883646808326e-16
3.210141345379952e-16
3.032472771573762e-16
2.68802965748362e-16
2.796301665166171e-16
2.724512090287358e-16
2.53522847929707e-16
2.505222072658331e-16
2.52973965077515e-16
2.62837253113871e-16
2.981251632545067e-16
2.770518589848668e-16
2.776902888092483e-16
2.141867728843346e-16
2.125047273493428e-16
2.049580018773402e-16
2.079276701444913e-16
2.042095060189978e-16
1.604261535822899e-16
1.719158118655098e-16
1.430592173869567e-16
2.361555674814888e-16
4.422144754635202e-17
7.951144338735459e-17
1.81002619169187e-16
2.178327646162645e-16
2.728902983002384e-16
2.629140951511341e-16
2.856758865991988e-16
2.722075527995461e-16
2.681161685760443e-16
2.795060581075997e-16
2.917615066609557e-16
2.760608539270559e-16
3.459608089708849e-16
3.621564518937764e-16
3.041031197771209e-16
3.024529371288816e-16
2.956933752485563e-16
2.894359179863986e-16
3.309246791787985e-16
3.198011921631014e-16
2.983239710886262e-16
3.155955262240041e-16
2.824348212853111e-16
3.283866397026788e-16
3.770737744307856e-16
3.701097444178047e-16
3.180824046293197e-16
2.889824696317508e-16
2.848506354549686e-16
2.92008696274612e-16
3.557194646380412e-16
3.517508491720801e-16
3.099273623301993e-16
3.033232291865131e-16
3.216998462886055e-16
2.859058409109741e-16
2.750842248191626e-16
3.220317738565399e-16
3.037556917920327e-16
2.738016023193012e-16
2.840051390180252e-16
2.764721071951163e-16
2.540211969347894e-16
2.438349190985951e-16
2.471127463028428e-16
2.644505000010142e-16
2.976829090980194e-16
2.72816379442905e-16
2.791612806449374e-16
2.148678395172009e-16
2.149662940139993e-16
2.038035403002864e-16
2.034907942957868e-16
2.055672131721745e-16
1.651445029788166e-16
1.749561645379056e-16
1.399638710557516e-16
2.249324192616791e-16
4.561341214658956e-17
8.860817805376606e-17
1.844403079100846e-16
2.18520301668667e-16
2.72696848582597e-16
2.631902457002557e-16
2.846835258221611e-16
2.700216920985163e-16
2.706786486065798e-16
2.772031880434943e-16
2.906600603847577e-16
2.800911339123514e-16
3.424668218547361e-16
3.583310705227213e-16
3.079995405991322e-16
3.038803404981853e-16
2.926814227371228e-16
2.919110963937655e-16
3.30890531398009e-16
3.211272795396287e-16
2.99167015127067e-16
3.123249410328281e-16
2.83388525240904e-16
3.291566550183916e-16
3.72424990257592e-16
3.681446945366206e-16
3.200030982282658e-16
2.911231364741606e-16
2.915801094399766e-16
2.960620348443505e-16
3.534818087390147e-16
3.461213196325905e-16
3.078706603053235e-16
3.083108103666125e-16
3.176862744894447e-16
2.852397861232261e-16
2.764343250666245e-16
3.229360359486227e-16
3.051287111816953e-16
2.757004797001099e-16
2.887510124599148e-16
2.817659638403913e-16
2.54994959502392e-16
2.379497846874896e-16
2.43579275174114e-16
2.642858719274847e-16
2.95923571213905e-16
2.68669912050805e-16
2.807241408507352e-16
2.179091483912989e-16
2.159680460817749e-16
2.045887639537646e-16
1.979857715220306e-16
2.046533856944697e-16
1.705591941121874e-16
1.780884981687215e-16
1.352204067659544e-16
2.143816211234576e-16
5.05327804702927e-17
9.818035328022978e-17
1.834341616737529e-16
2.234805050242969e-16
2.707464514638617e-16
2.628309406898881e-16
2.833163708080066e-16
2.680573207625382e-16
2.741423392052265e-16
2.745535741072146e-16
2.915924756051539e-16
2.852886798677726e-16
3.384497576628127e-16
3.534885030407691e-16
3.117314122360791e-16
3.055449723710198e-16
2.888989236814381e-16
2.943385898758729e-16
3.315459749889506e-16
3.23379505230359e-16
3.006220176282532e-16
3.072553590659218e-16
2.860433108859229e-16
3.297945832820798e-16
3.658421354823262e-16
3.651373851123306e-16
3.243045882965662e-16
2.950414312303299e-16
2.973286861698876e-16
3.007105237755052e-16
3.489075142630791e-16
3.420829507763811e-16
3.076701089010376e-16
3.09540150490001e-16
3.133788631780763e-16
2.85513964487772e-16
2.803410011171543e-16
3.217188164402718e-16
3.050548601779841e-16
2.767506979261051e-16
2.954369840662284e-16
2.875911312566433e-16
2.561183601473232e-16
2.358983414147599e-16
2.396022348618041e-16
2.624919143937122e-16
2.938810985207369e-16
2.640309616887939e-16
2.804359436349445e-16
2.226200951908559e-16
2.176993654337121e-16
2.071311262569424e-16
1.96159645753659e-16
2.021766774433293e-16
1.731189229742814e-16
1.79304533266694e-16
1.305598068344345e-16
2.00974410654888e-16
5.196132216996095e-17
1.044043634664106e-16
1.855024112329069e-16
2.277006539940515e-16
2.688376730917046e-16
2.635071677715922e-16
2.796051988868412e-16
2.669797512608603e-16
2.763192128497232e-16
2.767195124941606e-16
2.932435239806534e-16
2.916789358530533e-16
3.343194521468057e-16
3.469164087415313e-16
3.128537356962262e-16
3.088434641351369e-16
2.845183461708986e-16
2.98554352839453e-16
3.316338613290248e-16
3.250573119177971e-16
3.02018919604466e-16
2.992691229790305e-16
2.905694750752752e-16
3.324896892361256e-16
3.573561331683062e-16
3.628425846715227e-16
3.277693158862934e-16
2.996048171646513e-16
3.033469283154387e-16
3.013315478686045e-16
3.45146507807201e-16
3.392598748416415e-16
3.066534641046341e-16
3.105883355497778e-16
3.140708823068674e-16
2.879737730986436e-16
2.825806183796273e-16
3.186355183202483e-16
3.032855743592703e-16
2.802599507998959e-16
3.015622794807611e-16
2.903135193394281e-16
2.582688426978792e-16
2.352687447518632e-16
2.349019381196663e-16
2.634645017624077e-16
2.920095829363237e-16
2.631063089821111e-16
2.786851815425268e-16
2.268294918707303e-16
2.209582181355835e-16
2.085557205388425e-16
1.913859052997782e-16
1.994263236473264e-16
1.749618193048155e-16
1.814567391800921e-16
1.297839835205819e-16
1.885693265796519e-16
4.997748249802876e-17
1.138076514552094e-16
1.925235500810261e-16
2.318231465947555e-16
2.656947604172745e-16
2.613598499818388e-16
2.807198123658202e-16
2.634961448723829e-16
2.738659423143213e-16
2.816785588046231e-16
2.946625207991147e-16
2.943916042070122e-16
3.289223109630401e-16
3.441962624561276e-16
3.135690652129502e-16
3.086636930255273e-16
2.863159703026289e-16
3.015473583884952e-16
3.311347933746931e-16
3.259916959466671e-16
3.01160807063443e-16
2.969426500183359e-16
2.931765399507178e-16
3.317307916606135e-16
3.557412632511365e-16
3.617636357675859e-16
3.256761838459426e-16
3.02750155815449e-16
3.083734899712427e-16
3.044786807937188e-16
3.435708148636232e-16
3.349580957476392e-16
3.056349156515608e-16
3.120038561541665e-16
3.128277320458886e-16
2.910861877300567e-16
2.86110579944173e-16
3.144127170164302e-16
3.027784199876953e-16
2.878346815743245e-16
3.052958740985353e-16
2.901576484511576e-16
2.600715401571953e-16
2.33738521514332e-16
2.341686123585056e-16
2.599851059693763e-16
2.907815499278334e-16
2.634242875413594e-16
2.780606518446371e-16
2.295133361455814e-16
2.258401523463206e-16
2.078918394957927e-16
1.873333692642874e-16
1.976120605466602e-16
1.782427033366907e-16
1.816105067488759e-16
1.301419049601218e-16
1.766577611333077e-16
5.041448756400088e-17
1.228177225309432e-16
1.950158893604707e-16
2.348213966942642e-16
2.646469985370506e-16
2.613289049791672e-16
2.771680878753441e-16
2.650332083330889e-16
2.742959920367375e-16
2.838069562291858e-16
2.932386219608879e-16
2.999925916993287e-16
3.249731594524285e-16
3.411419453744767e-16
3.152058400352774e-16
3.075302485392101e-16
2.885053240520409e-16
3.031292751357182e-16
3.301637771672818e-16
3.255280498813683e-16
3.020123573859803e-16
2.940800272480938e-16
2.957231158938702e-16
3.326314228667827e-16
3.519135716323075e-16
3.621523424129014e-16
3.26049624902804e-16
3.040002867930466e-16
3.123006476528718e-16
3.089258177003155e-16
3.406405935724124e-16
3.31075676121317e-16
3.041396884443535e-16
3.158861590294147e-16
3.101974606548721e-16
2.951006064261494e-16
2.853932277195088e-16
3.111656421226437e-16
3.05177328799509e-16
2.932698588536714e-16
3.062122753480062e-16
2.892562908644956e-16
2.650159781310426e-16
2.338823747372979e-16
2.337825747803301e-16
2.598405523131768e-16
2.879490810965415e-16
2.626947368719304e-16
2.782729666709293e-16
2.285781724878755e-16
2.332792435837138e-16
2.108268839019002e-16
1.857145096493478e-16
1.933980405134813e-16
1.801604042813237e-16
1.811369479456109e-16
1.307338584008285e-16
1.611535659583318e-16
5.074378812398826e-17
1.31710250108399e-16
1.991617822803176e-16
2.358885723665119e-16
2.620000979009838e-16
2.621788695650495e-16
2.766773542243908e-16
2.633726683429252e-16
2.738533219088479e-16
2.881109951664148e-16
2.937492591258312e-16
3.022957275422862e-16
3.223674410275387e-16
3.407564954458656e-16
3.16120607358717e-16
3.063318517313061e-16
2.91881799789141e-16
3.034242730019519e-16
3.274805364907506e-16
3.235080673381222e-16
3.054753461021128e-16
2.922882969927669e-16
2.979869024706307e-16
3.357117705384677e-16
3.471830017916619e-16
3.584383007799728e-16
3.300357264034794e-16
3.076964433203018e-16
3.154152856844963e-16
3.106134881111131e-16
3.367536645962799e-16
3.304416829371564e-16
3.052371049138217e-16
3.149616270053381e-16
3.111630304265162e-16
2.968557922874011e-16
2.852184872195578e-16
3.09302938359719e-16
3.038345869264022e-16
2.972362198458097e-16
3.088450563795601e-16
2.90804192867907e-16
2.663532719344729e-16
2.33015205292564e-16
2.305248725629945e-16
2.614493102090956e-16
2.870499201083877e-16
2.649699841092955e-16
2.709426078108314e-16
2.316098145198886e-16
2.374867729972883e-16
2.147670322310085e-16
1.869266535899117e-16
1.918916953848534e-16
1.791980182548189e-16
1.78849070902849e-16
1.323811043890344e-16
1.507616920253003e-16
5.131819655557393e-17
1.416475625492664e-16
2.007270864143766e-16
2.401786395734208e-16
2.572875237282356e-16
2.605050768756569e-16
2.778157793936142e-16
2.647324280842e-16
2.72808500227576e-16
2.922216295059184e-16
2.938527369793013e-16
3.06998297859044e-16
3.201909700740943e-16
3.393201685458583e-16
3.157341953502134e-16
3.075682358793462e-16
2.913447674830766e-16
3.018003151456293e-16
3.251327055072933e-16
3.234673487757344e-16
3.081906436038762e-16
2.913493368605525e-16
2.993427608796394e-16
3.380466250675174e-16
3.462387695090833e-16
3.517573520460457e-16
3.362506682099601e-16
3.123739513544702e-16
3.169709525354929e-16
3.114043747070768e-16
3.346686234179314e-16
3.301959265505621e-16
3.049112526154659e-16
3.123196901778311e-16
3.118538457716395e-16
2.991283366747809e-16
2.865563553316493e-16
3.086977163780558e-16
3.03522382756715e-16
2.987491982481294e-16
3.097515692117912e-16
2.921085778201476e-16
2.666860915268756e-16
2.337249081811102e-16
2.312370060676218e-16
2.619026334662822e-16
2.832931580077324e-16
2.654013693759684e-16
2.643427291519734e-16
2.374148022732931e-16
2.426103349261307e-16
2.164874213622702e-16
1.894494613427438e-16
1.92673335779835e-16
1.757267740043392e-16
1.760466867291787e-16
1.327867801903227e-16
1.399309158305645e-16
5.470991671233181e-17
1.535003761891202e-16
2.025914725683345e-16
2.408548543128087e-16
2.548406040785987e-16
2.61647512608342e-16
2.762595643458714e-16
2.667922013746204e-16
2.75179322744328e-16
2.929132695937868e-16
2.939962076576412e-16
3.093742114215597e-16
3.200118997975614e-16
3.358436067771658e-16
3.160481674202026e-16
3.073085997565288e-16
2.91827621496567e-16
3.011681259957437e-16
3.231723284605151e-16
3.205312468422701e-16
3.086393977396115e-16
2.934750411245178e-16
3.026487691422991e-16
3.385787668965093e-16
3.444561196786469e-16
3.493022316038381e-16
3.3999190270442e-16
3.153660290630505e-16
3.18933766213677e-16
3.133063207597795e-16
3.329028819066795e-16
3.273593929080332e-16
3.05019251588044e-16
3.13837172484733e-16
3.11980659434977e-16
2.993892721655264e-16
2.890898315680313e-16
3.080890002097228e-16
3.033014897647813e-16
2.977712589759155e-16
3.076737162456607e-16
2.928856794895065e-16
2.675364055573444e-16
2.388622444271137e-16
2.349776636535352e-16
2.59181015694085e-16
2.809894035822932e-16
2.628924381020188e-16
2.644494426585802e-16
2.411749380454805e-16
2.452482137395622e-16
2.17367987524086e-16
1.933004394164077e-16
1.923259893751745e-16
1.757408095799001e-16