/*--------------------------------*- C++ -*----------------------------------*\
| =========                 |                                                 |
| \\      /  F ield         | OpenFOAM: The Open Source CFD Toolbox           |
|  \\    /   O peration     | Version:  v1812                                 |
|   \\  /    A nd           | Web:      www.OpenFOAM.com                      |
|    \\/     M anipulation  |                                                 |
\*---------------------------------------------------------------------------*/
FoamFile
{
    version     2.0;
    format      ascii;
    class       volVectorField;
    location    "20000";
    object      U;
}
// * * * * * * * * * * * * * * * * * * * * * * * * * * * * * * * * * * * * * //

dimensions      [0 1 -1 0 0 0 0];


internalField   nonuniform List<vector> 
3770
(
(-0.8583848975970155 -3.857872119128785e-17 -3.620560763686385e-09)
(-0.8583848975970141 2.229785297175964e-18 -3.620570721306653e-09)
(-0.8583848975970151 2.057752106545639e-18 -3.620490320865277e-09)
(-0.8583848975970145 -9.2619757567601e-20 -3.620592475382403e-09)
(-0.8583848975970145 -4.369675365690059e-18 -3.620474365749169e-09)
(-0.8583848975970143 -3.156434194181388e-18 -3.620596688080091e-09)
(-0.8583848975970144 3.752176237917668e-18 -3.620472047458604e-09)
(-0.8583848975970145 2.944734409114947e-20 -3.620591093491636e-09)
(-0.8583848975970144 2.586024241544836e-18 -3.62047674546871e-09)
(-0.8583848975970145 3.686691611378926e-18 -3.620581268873086e-09)
(-0.8583848975970152 -5.611587167991626e-18 -3.620483966315058e-09)
(-0.8583848975970143 -3.912135678167967e-18 -3.620570557122546e-09)
(-0.8583848975970144 3.972644274150467e-18 -3.620491281619496e-09)
(-0.8583848975970145 1.530308730491262e-18 -3.620560570243212e-09)
(-0.8583848975970148 3.210229709902403e-19 -3.620497629159709e-09)
(-0.8583848975970148 6.538639602338354e-18 -3.620551894167396e-09)
(-0.8583848975970148 -5.730045053029158e-18 -3.620502683187715e-09)
(-0.8583848975970146 -1.238981435902846e-18 -3.620544598901053e-09)
(-0.8583848975970145 5.997538017274159e-18 -3.620506459797204e-09)
(-0.8583848975970149 -4.698634350487299e-18 -3.620538530279238e-09)
(-0.8583848975970148 -3.96795155702552e-18 -3.620509102984179e-09)
(-0.8583848975970146 -8.448689845037817e-19 -3.620533460352264e-09)
(-0.8583848975970148 -2.682570378896324e-18 -3.62051077954641e-09)
(-0.8583848975970149 5.510130353124735e-18 -3.620529151199743e-09)
(-0.8583848975970148 8.402190997696923e-19 -3.620511637102741e-09)
(-0.8583848975970146 -2.442025728410036e-18 -3.620525380950458e-09)
(-0.8583848975970148 1.387376680043002e-18 -3.620511786232141e-09)
(-0.8583848975970146 1.94273806236424e-18 -3.620521947886164e-09)
(-0.858384897597015 -2.534545733074527e-19 -3.62051129542148e-09)
(-0.8583848975970145 -2.983084821556528e-18 -3.620518671582506e-09)
(-0.8583848975970148 -2.619220835538715e-18 -3.620510196999509e-09)
(-0.8583848975970144 2.171589989767783e-18 -3.620515381627505e-09)
(-0.8583848975970148 4.95539182726447e-18 -3.620508486646695e-09)
(-0.8583848975970149 9.766383667195673e-19 -3.620511920823229e-09)
(-0.8583848975970151 -1.469617469576254e-18 -3.620506132905918e-09)
(-0.8583848975970149 6.032106727565539e-19 -3.620508135380045e-09)
(-0.8583848975970148 6.154950506648546e-18 -3.620503082610783e-09)
(-0.8583848975970148 3.14831975260433e-19 -3.620503886749328e-09)
(-0.858384897597015 -1.276040776312859e-18 -3.620499276954549e-09)
(-0.8583848975970148 -1.182053591475424e-17 -3.62049905650094e-09)
(-0.8583848975970151 -8.929170682529894e-19 -3.620494671838327e-09)
(-0.8583848975970144 9.30267473557205e-18 -3.620493572515432e-09)
(-0.858384897597015 -3.029709466090718e-18 -3.62048927574363e-09)
(-0.8583848975970146 2.234900572800298e-18 -3.620487451397532e-09)
(-0.8583848975970151 2.18955370710811e-18 -3.620483201702736e-09)
(-0.8583848975970144 -1.070476130422283e-18 -3.620480860317099e-09)
(-0.8583848975970149 -2.162962570059886e-18 -3.620476747866471e-09)
(-0.8583848975970149 -4.764792128511192e-18 -3.62047420148515e-09)
(-0.8583848975970149 -2.818107888963562e-18 -3.620470486459755e-09)
(-0.858384897597015 7.087675339446993e-18 -3.620468203189364e-09)
(-0.8583848975970151 -3.676180538338857e-18 -3.62046535345129e-09)
(-0.8583848975970149 -6.331515358219544e-18 -3.62046400301506e-09)
(-0.8583848975970148 2.023382263007786e-17 -3.620462757398768e-09)
(-0.8583848975970144 -9.147232040906814e-18 -3.620463325075479e-09)
(-0.8583848975970149 -1.520982320452532e-17 -3.620464135207584e-09)
(-0.8583848975970149 4.688707378788428e-19 -3.620464821026479e-09)
(-0.8583848975970148 1.499375082992933e-17 -3.620475266416664e-09)
(-0.8583848975970148 -1.349832682939555e-18 -3.620508494380019e-09)
(-0.7153303235576289 -4.675467743188541e-17 -7.272565362944252e-09)
(-0.7153303235576279 -4.275402848983076e-18 -7.272656262233308e-09)
(-0.7153303235576287 8.353459077802266e-18 -7.27244735505626e-09)
(-0.7153303235576282 -2.147544463874513e-18 -7.272687394544978e-09)
(-0.7153303235576286 -7.086777950796288e-18 -7.272429668198479e-09)
(-0.7153303235576282 -6.860591816795629e-18 -7.272682941796979e-09)
(-0.7153303235576285 6.625293190204208e-18 -7.272434671917333e-09)
(-0.7153303235576284 5.04169294234212e-18 -7.272664681086293e-09)
(-0.7153303235576285 -5.341428053817445e-19 -7.272448397372746e-09)
(-0.7153303235576284 1.289754044558898e-17 -7.272642343735456e-09)
(-0.7153303235576289 -1.283877381712749e-17 -7.272463876141382e-09)
(-0.7153303235576279 -1.499641596843659e-17 -7.272620642158775e-09)
(-0.7153303235576282 8.522183935098766e-18 -7.272477934115325e-09)
(-0.7153303235576283 4.486161710367448e-18 -7.272601466474646e-09)
(-0.7153303235576284 1.451840558566517e-17 -7.272489450508618e-09)
(-0.7153303235576283 2.153926187288545e-18 -7.272585261277629e-09)
(-0.7153303235576288 1.040678558425777e-18 -7.272498285751533e-09)
(-0.7153303235576283 -1.476148305392489e-17 -7.272571827440253e-09)
(-0.7153303235576284 8.948645670334844e-18 -7.272504696123463e-09)
(-0.7153303235576287 1.864379196214777e-17 -7.272560725907237e-09)
(-0.7153303235576286 -1.94957375619702e-17 -7.272509047237302e-09)
(-0.7153303235576285 -8.882150464572411e-18 -7.272551472637516e-09)
(-0.7153303235576286 -2.265756433837444e-18 -7.272511685165917e-09)
(-0.7153303235576287 5.714466398443774e-18 -7.272543609007733e-09)
(-0.7153303235576289 2.432569475325799e-18 -7.272512893370231e-09)
(-0.7153303235576284 -8.38400903668122e-18 -7.272536723562838e-09)
(-0.7153303235576286 2.165037477204341e-18 -7.272512872861124e-09)
(-0.7153303235576283 8.046361069504697e-18 -7.272530451680936e-09)
(-0.7153303235576286 -3.468901044364306e-18 -7.272511745952479e-09)
(-0.7153303235576287 1.200408745115646e-17 -7.272524466501845e-09)
(-0.7153303235576285 -1.139553091033438e-17 -7.272509562859318e-09)
(-0.7153303235576284 -1.956331537508887e-17 -7.272518461015466e-09)
(-0.7153303235576287 2.219121868393661e-17 -7.272506307955144e-09)
(-0.7153303235576287 1.361380172647813e-17 -7.272512146056115e-09)
(-0.7153303235576292 5.752311675971318e-18 -7.272501909679141e-09)
(-0.7153303235576288 -1.161415710110499e-17 -7.272505234382456e-09)
(-0.7153303235576287 -2.610606119305318e-19 -7.272496251601682e-09)
(-0.7153303235576289 1.399458022413406e-17 -7.272497452059812e-09)
(-0.7153303235576292 2.852925588483967e-18 -7.272489193711684e-09)
(-0.7153303235576285 -5.355778183544492e-18 -7.272488546184957e-09)
(-0.7153303235576292 -1.215956452228241e-17 -7.272480600491715e-09)
(-0.7153303235576284 -5.285324350535735e-18 -7.272478320809544e-09)
(-0.7153303235576287 5.736119633362291e-18 -7.272470400967162e-09)
(-0.7153303235576287 7.451638931405997e-18 -7.272466701518994e-09)
(-0.7153303235576293 1.046650000643551e-17 -7.272458672168947e-09)
(-0.7153303235576287 -6.99530487009753e-18 -7.272453841009221e-09)
(-0.7153303235576289 -1.795355857486676e-17 -7.272445776771098e-09)
(-0.7153303235576288 1.360042703248437e-17 -7.27244027024996e-09)
(-0.7153303235576292 9.498027555903383e-19 -7.27243253799601e-09)
(-0.7153303235576289 -5.432746090003078e-18 -7.272427089003855e-09)
(-0.715330323557629 1.628929757313305e-17 -7.272420430907758e-09)
(-0.715330323557629 -2.065081037575646e-17 -7.272416143482373e-09)
(-0.715330323557629 -5.333376013335895e-18 -7.272411767981267e-09)
(-0.7153303235576292 -4.936020783937798e-18 -7.272410252655302e-09)
(-0.7153303235576283 1.280586190888035e-17 -7.272409601475699e-09)
(-0.7153303235576289 -6.858379401313987e-18 -7.272412270627386e-09)
(-0.7153303235576285 -1.818683714560624e-17 -7.272424177584832e-09)
(-0.7153303235576288 1.113761837687609e-17 -7.272466148685011e-09)
(-0.5838077961867705 -7.118888419363318e-17 -1.061603347629946e-08)
(-0.5838077961867696 -8.185089396651435e-18 -1.061630626113285e-08)
(-0.5838077961867703 8.159245416716183e-18 -1.061590778438509e-08)
(-0.5838077961867698 -2.618479821744338e-18 -1.061630951550509e-08)
(-0.5838077961867701 -1.279857935110774e-19 -1.061591309899594e-08)
(-0.5838077961867699 -2.4096786003663e-18 -1.061628015931884e-08)
(-0.5838077961867703 5.812059600550704e-18 -1.061593537218779e-08)
(-0.5838077961867699 1.47516525076256e-17 -1.061624354826278e-08)
(-0.5838077961867707 -7.218289686392461e-19 -1.061596057728849e-08)
(-0.5838077961867698 6.096452225722241e-18 -1.061620831552036e-08)
(-0.5838077961867704 -1.219806894630231e-17 -1.061598322252322e-08)
(-0.5838077961867699 -1.874441640051498e-17 -1.061617755265552e-08)
(-0.5838077961867699 7.259922031035325e-18 -1.06160015993741e-08)
(-0.5838077961867699 3.585444895475188e-18 -1.061615183719321e-08)
(-0.5838077961867703 2.612991599782762e-17 -1.061601563871927e-08)
(-0.5838077961867704 1.027479321839531e-17 -1.061613073289805e-08)
(-0.5838077961867704 -1.684284838961991e-18 -1.061602586608758e-08)
(-0.5838077961867701 -1.906843593924654e-17 -1.061611348973117e-08)
(-0.5838077961867706 1.060230207139506e-17 -1.061603294198209e-08)
(-0.5838077961867703 2.556636147041803e-17 -1.061609932182202e-08)
(-0.5838077961867704 -1.477420861691689e-17 -1.061603747274764e-08)
(-0.5838077961867704 -2.007004612658588e-17 -1.061608752293811e-08)
(-0.5838077961867703 -1.466778534165591e-17 -1.061603995132724e-08)
(-0.58380779618677 2.653139145615831e-18 -1.061607747905727e-08)
(-0.5838077961867701 7.74855523467224e-18 -1.061604075015856e-08)
(-0.5838077961867703 -6.677148781862048e-18 -1.061606866717903e-08)
(-0.5838077961867703 1.246599194541655e-18 -1.061604011895018e-08)
(-0.5838077961867701 1.453170350271103e-17 -1.061606063198138e-08)
(-0.5838077961867703 -2.180404138369344e-18 -1.06160382020828e-08)
(-0.5838077961867701 7.415072580962855e-18 -1.061605296743369e-08)
(-0.5838077961867703 -9.79875242155759e-18 -1.061603505073533e-08)
(-0.5838077961867703 -1.520198615146535e-17 -1.061604529102036e-08)
(-0.5838077961867707 3.168212684719395e-17 -1.061603062658621e-08)
(-0.5838077961867703 1.549583355895827e-17 -1.061603723522391e-08)
(-0.5838077961867706 9.03026942585809e-18 -1.061602482030251e-08)
(-0.5838077961867705 -1.983502205401684e-17 -1.061602842426893e-08)
(-0.5838077961867705 7.92679911801941e-18 -1.061601744721734e-08)
(-0.5838077961867708 2.001995454202348e-17 -1.061601847869345e-08)
(-0.5838077961867708 -1.204728923225127e-17 -1.061600827823292e-08)
(-0.5838077961867701 -6.895775970075085e-18 -1.061600701744239e-08)
(-0.5838077961867705 -1.145392033523905e-17 -1.061599704951982e-08)
(-0.5838077961867701 2.862449524826047e-18 -1.061599368313169e-08)
(-0.5838077961867706 1.350083943090642e-17 -1.061598352429647e-08)
(-0.5838077961867705 -1.160893508918845e-18 -1.061597820269283e-08)
(-0.5838077961867707 8.815264752881601e-18 -1.06159675728082e-08)
(-0.5838077961867705 2.865740024251267e-18 -1.061596049612505e-08)
(-0.5838077961867707 -1.404045408931901e-17 -1.061594932540574e-08)
(-0.5838077961867707 4.014310873557269e-18 -1.061594085945074e-08)
(-0.5838077961867706 1.749286972098565e-19 -1.061592939887189e-08)
(-0.5838077961867706 -4.048981149061811e-18 -1.061592022966276e-08)
(-0.5838077961867707 1.774792599493309e-17 -1.061590918763827e-08)
(-0.5838077961867705 -2.495916009323482e-17 -1.061590047317589e-08)
(-0.5838077961867707 3.934393978838816e-18 -1.061589113653392e-08)
(-0.5838077961867707 -9.865211562070832e-18 -1.061588459881646e-08)
(-0.5838077961867707 1.586428128816042e-18 -1.061587876849593e-08)
(-0.5838077961867705 -1.901620746699345e-17 -1.061587622468898e-08)
(-0.5838077961867703 -1.048662043821171e-17 -1.061587898487722e-08)
(-0.5838077961867705 2.08283381361968e-17 -1.061590692868154e-08)
(-0.5179583596077088 -8.862282196829984e-17 -1.227936579069232e-08)
(-0.5179583596077076 -2.54668175065031e-17 -1.227979947677289e-08)
(-0.5179583596077082 -1.086103292022539e-18 -1.227928858179734e-08)
(-0.5179583596077076 -1.619723880539597e-18 -1.227977084644312e-08)
(-0.5179583596077084 6.731229514373779e-18 -1.22793144153369e-08)
(-0.5179583596077079 6.514888067737565e-18 -1.227972379055227e-08)
(-0.5179583596077084 9.168386442494218e-18 -1.227934770545597e-08)
(-0.5179583596077082 2.200072433688293e-17 -1.227967695603159e-08)
(-0.5179583596077089 -1.983107059051807e-18 -1.227937836036805e-08)
(-0.517958359607708 -5.82801728713178e-18 -1.227963595034214e-08)
(-0.5179583596077083 -7.010126585198133e-18 -1.227940331479783e-08)
(-0.517958359607708 -1.759995771422807e-17 -1.2279601885632e-08)
(-0.5179583596077082 1.607727092201134e-18 -1.227942237533737e-08)
(-0.5179583596077081 1.388801238592609e-19 -1.22795741714868e-08)
(-0.5179583596077085 3.275758236747391e-17 -1.227943631586148e-08)
(-0.5179583596077084 2.152384605288526e-17 -1.227955174347766e-08)
(-0.5179583596077085 1.775258781968167e-19 -1.227944609681403e-08)
(-0.5179583596077085 -2.37559052579095e-17 -1.227953353050101e-08)
(-0.5179583596077085 2.601991335934307e-18 -1.227945259399126e-08)
(-0.5179583596077081 2.589322929434266e-17 -1.227951858752231e-08)
(-0.5179583596077084 -3.909976464852991e-18 -1.227945651327286e-08)
(-0.5179583596077085 -2.303848108992921e-17 -1.227950612895985e-08)
(-0.5179583596077083 -2.345646440532812e-17 -1.227945839475682e-08)
(-0.5179583596077083 -5.801800618451494e-18 -1.227949549948719e-08)
(-0.5179583596077082 1.103829548385734e-17 -1.227945862822018e-08)
(-0.5179583596077083 -9.535832182824408e-19 -1.227948615714536e-08)
(-0.5179583596077084 1.572709682811628e-19 -1.227945746859713e-08)
(-0.5179583596077084 1.958862462696286e-17 -1.22794776324625e-08)
(-0.5179583596077086 -3.297629003317096e-18 -1.227945505763132e-08)
(-0.5179583596077084 3.80328289333498e-18 -1.227946950846492e-08)
(-0.5179583596077082 -1.178251455778927e-17 -1.227945143981456e-08)
(-0.5179583596077082 -4.890288441571517e-18 -1.227946139187252e-08)
(-0.5179583596077089 3.847327828720363e-17 -1.22794465633027e-08)
(-0.5179583596077084 1.964151402128591e-17 -1.227945289835602e-08)
(-0.5179583596077088 1.584944793827699e-17 -1.227944030083672e-08)
(-0.5179583596077088 -2.987051292826484e-17 -1.227944363042322e-08)
(-0.5179583596077088 4.008809405665228e-18 -1.227943243792344e-08)
(-0.5179583596077088 2.092147964069049e-17 -1.227943317067039e-08)
(-0.5179583596077088 -2.179364382120426e-17 -1.227942270020123e-08)
(-0.5179583596077084 -9.135755398408392e-18 -1.227942108380883e-08)
(-0.5179583596077085 -5.889176906291242e-18 -1.227941075352986e-08)
(-0.5179583596077086 4.275776186313772e-18 -1.22794069238542e-08)
(-0.5179583596077088 2.171240196329022e-17 -1.227939625203681e-08)
(-0.5179583596077088 -7.446130927632821e-19 -1.227939028427314e-08)
(-0.5179583596077086 7.592157199926316e-18 -1.227937890184122e-08)
(-0.5179583596077085 3.592658193715603e-18 -1.22793708875623e-08)
(-0.5179583596077089 -8.403824944469315e-18 -1.2279358599102e-08)
(-0.5179583596077092 4.167652599512152e-18 -1.227934875875656e-08)
(-0.5179583596077089 -5.758673597517417e-19 -1.227933565609727e-08)
(-0.517958359607709 -6.967145428598582e-18 -1.227932450762298e-08)
(-0.5179583596077086 1.36876849055588e-17 -1.227931113358843e-08)
(-0.5179583596077086 -1.493443303876015e-17 -1.227929968208563e-08)
(-0.5179583596077088 3.312753897448065e-18 -1.227928719137938e-08)
(-0.5179583596077089 -1.570958274390153e-17 -1.227927702734676e-08)
(-0.517958359607709 -1.170017626494484e-18 -1.227926711568457e-08)
(-0.5179583596077083 -3.133623827448359e-17 -1.227925991104067e-08)
(-0.5179583596077084 -2.980785505887346e-18 -1.227925486252627e-08)
(-0.5179583596077088 3.294941605279238e-17 -1.227926400610264e-08)
(-0.4781240106528228 -1.026029308392444e-16 -1.327612283999042e-08)
(-0.4781240106528219 -4.183667654817682e-17 -1.327666668862101e-08)
(-0.4781240106528223 -7.802140020673984e-18 -1.327608968574303e-08)
(-0.4781240106528217 -5.75873843417998e-19 -1.327661331324104e-08)
(-0.4781240106528223 1.251916034602607e-17 -1.327613053797525e-08)
(-0.4781240106528219 8.28522210910032e-18 -1.327655417542905e-08)
(-0.4781240106528223 1.112526209878325e-17 -1.327617066324124e-08)
(-0.478124010652822 3.081492442002093e-17 -1.327650139738177e-08)
(-0.4781240106528227 9.206027408012079e-19 -1.32762038376093e-08)
(-0.4781240106528222 -1.628302334014301e-17 -1.327645768044825e-08)
(-0.4781240106528223 -9.609745359293673e-18 -1.327622919156662e-08)
(-0.4781240106528219 -1.543934612408938e-17 -1.327642246572954e-08)
(-0.478124010652822 -1.314191147029527e-18 -1.327624773456981e-08)
(-0.4781240106528221 1.010099681181145e-18 -1.327639429078909e-08)
(-0.4781240106528222 4.139794474710001e-17 -1.327626083334471e-08)
(-0.4781240106528224 2.599825484763156e-17 -1.327637167498408e-08)
(-0.4781240106528226 4.99223803081581e-18 -1.32762697190938e-08)
(-0.4781240106528225 -2.168143362425475e-17 -1.327635336143348e-08)
(-0.4781240106528226 -7.829751101044279e-18 -1.327627538092707e-08)
(-0.4781240106528223 1.67433811710602e-17 -1.32763383337728e-08)
(-0.4781240106528223 6.822277251852518e-18 -1.327627856285776e-08)
(-0.4781240106528225 -2.178826557234526e-17 -1.327632578186342e-08)
(-0.4781240106528223 -2.527797312194886e-17 -1.327627981457729e-08)
(-0.4781240106528223 -1.264489212078165e-17 -1.327631504853765e-08)
(-0.4781240106528223 1.036614286009161e-17 -1.32762795203533e-08)
(-0.4781240106528224 3.325575579848375e-18 -1.327630559970376e-08)
(-0.4781240106528223 -2.164630374487569e-18 -1.327627792804652e-08)
(-0.4781240106528223 2.458743987469136e-17 -1.327629697552664e-08)
(-0.4781240106528225 -3.318130893292695e-18 -1.327627517052611e-08)
(-0.4781240106528222 -4.232206855346738e-18 -1.32762887674967e-08)
(-0.4781240106528221 -1.542381630929084e-17 -1.327627128631492e-08)
(-0.4781240106528223 9.182490578465248e-18 -1.327628059108756e-08)
(-0.4781240106528228 4.760793548538113e-17 -1.32762662134912e-08)
(-0.4781240106528225 2.144923627890146e-17 -1.327627206388667e-08)
(-0.4781240106528228 2.266583590442855e-17 -1.327625981868695e-08)
(-0.4781240106528227 -3.70084715610625e-17 -1.327626278955631e-08)
(-0.4781240106528226 -4.330296100095643e-19 -1.32762518719251e-08)
(-0.4781240106528226 2.37555203651614e-17 -1.327625233751955e-08)
(-0.4781240106528228 -3.14859541337846e-17 -1.327624207672534e-08)
(-0.4781240106528225 -1.557540791537216e-17 -1.327624024983133e-08)
(-0.4781240106528226 3.498619491499628e-18 -1.327623005819081e-08)
(-0.4781240106528224 1.008452482852388e-17 -1.327622602895802e-08)
(-0.4781240106528227 2.47291163710168e-17 -1.327621539728099e-08)
(-0.4781240106528227 -2.922274518914336e-18 -1.327620917860264e-08)
(-0.4781240106528227 2.430233225155635e-19 -1.327619768084196e-08)
(-0.4781240106528226 9.929155978954893e-18 -1.32761892698126e-08)
(-0.4781240106528228 3.647558797313639e-18 -1.327617661247184e-08)
(-0.4781240106528229 -2.297224286843694e-18 -1.327616609423251e-08)
(-0.4781240106528226 -3.472362415579732e-18 -1.32761522206075e-08)
(-0.4781240106528229 -9.134061207262648e-18 -1.327613993525682e-08)
(-0.4781240106528228 1.275498114758128e-17 -1.327612520536041e-08)
(-0.4781240106528228 -1.08967985956555e-17 -1.327611196334544e-08)
(-0.4781240106528227 5.403564149136649e-18 -1.327609735372416e-08)
(-0.4781240106528228 -1.346745023264399e-17 -1.327608457452846e-08)
(-0.478124010652823 -1.092217544733803e-17 -1.327607161936134e-08)
(-0.4781240106528223 -4.249245214072552e-17 -1.327606081801511e-08)
(-0.4781240106528226 1.309118668557103e-18 -1.32760506673785e-08)
(-0.4781240106528228 4.290884591539592e-17 -1.327604779698133e-08)
(-0.4495252788343196 -1.164255850591333e-16 -1.398246054106231e-08)
(-0.4495252788343187 -5.549354594874049e-17 -1.398307893981607e-08)
(-0.4495252788343191 -1.241840370137991e-17 -1.398246083916107e-08)
(-0.4495252788343189 -1.104856660679314e-19 -1.398300635949389e-08)
(-0.4495252788343191 1.384291356208833e-17 -1.398251305671109e-08)
(-0.4495252788343186 6.015677946148072e-18 -1.398293837399915e-08)
(-0.4495252788343191 1.480504968251267e-17 -1.398255766462686e-08)
(-0.4495252788343188 3.917412896113461e-17 -1.398288184666516e-08)
(-0.4495252788343195 9.175280746451097e-18 -1.398259188123792e-08)
(-0.4495252788343191 -2.415935371540002e-17 -1.398283684620852e-08)
(-0.4495252788343192 -1.565854021335429e-17 -1.398261676872047e-08)
(-0.4495252788343189 -1.939585139610864e-17 -1.398280140253282e-08)
(-0.4495252788343188 5.337899341820087e-19 -1.398263430603424e-08)
(-0.449525278834319 5.793172313218286e-18 -1.398277337904396e-08)
(-0.449525278834319 4.732368508855102e-17 -1.39826462973622e-08)
(-0.4495252788343191 2.915275671766765e-17 -1.398275100395497e-08)
(-0.4495252788343193 1.014821415708735e-17 -1.398265415062076e-08)
(-0.4495252788343193 -1.651376259340006e-17 -1.398273290681832e-08)
(-0.4495252788343195 -1.508569294348417e-17 -1.398265891500006e-08)
(-0.4495252788343193 9.869577301196943e-18 -1.398271804163296e-08)
(-0.4495252788343191 1.388073857673382e-17 -1.398266134486556e-08)
(-0.4495252788343193 -2.125061581450253e-17 -1.398270559824837e-08)
(-0.4495252788343191 -3.02646733721315e-17 -1.398266198277834e-08)
(-0.4495252788343191 -1.329981489399438e-17 -1.398269493357087e-08)
(-0.4495252788343193 9.304242362610393e-18 -1.398266119880119e-08)
(-0.4495252788343193 3.570389052413414e-18 -1.398268553185219e-08)
(-0.4495252788343193 -3.601770252106523e-18 -1.398265922962481e-08)
(-0.4495252788343191 2.824334930132483e-17 -1.398267695122055e-08)
(-0.4495252788343194 -5.856724677417183e-18 -1.398265619721663e-08)
(-0.449525278834319 -1.455125312158836e-17 -1.398266879887619e-08)
(-0.449525278834319 -1.329933856699063e-17 -1.398265213542848e-08)
(-0.4495252788343194 2.488408877202004e-17 -1.398266070534803e-08)
(-0.4495252788343196 5.390356349111524e-17 -1.39826469755574e-08)
(-0.4495252788343194 2.059669775241711e-17 -1.398265229933509e-08)
(-0.4495252788343196 3.227743465955004e-17 -1.398264058228995e-08)
(-0.4495252788343196 -3.93854683107686e-17 -1.398264319297093e-08)
(-0.4495252788343195 -7.211790383398682e-18 -1.398263271900253e-08)
(-0.4495252788343195 2.392240191301063e-17 -1.398263295620792e-08)
(-0.4495252788343194 -3.447351902416647e-17 -1.398262307790797e-08)
(-0.4495252788343193 -2.084295159132305e-17 -1.398262112133166e-08)
(-0.4495252788343194 4.03242725973016e-18 -1.398261125874019e-08)
(-0.4495252788343195 1.814843284837831e-17 -1.398260715974812e-08)
(-0.4495252788343195 3.031014035321824e-17 -1.398259679121317e-08)
(-0.4495252788343195 -7.821356253109094e-18 -1.398259050986221e-08)
(-0.4495252788343195 -3.285727460717477e-18 -1.39825791690076e-08)
(-0.4495252788343196 1.383842890387874e-17 -1.398257062138069e-08)
(-0.4495252788343196 8.492613842441555e-18 -1.398255793295384e-08)
(-0.4495252788343199 -5.620096783532672e-18 -1.398254708109623e-08)
(-0.4495252788343195 -3.924125488152116e-18 -1.398253285366954e-08)
(-0.4495252788343199 -6.862815729954127e-18 -1.398251986328472e-08)
(-0.4495252788343198 9.107735002556405e-18 -1.398250427110719e-08)
(-0.4495252788343199 -1.134114757417595e-17 -1.398248974376106e-08)
(-0.4495252788343196 7.31385563261794e-18 -1.398247356626256e-08)
(-0.4495252788343197 -6.190789112866144e-18 -1.39824587381669e-08)
(-0.4495252788343199 -2.034091061546054e-17 -1.398244336275725e-08)
(-0.4495252788343194 -5.333451527489571e-17 -1.398242963989757e-08)
(-0.4495252788343198 7.420991383427549e-18 -1.398241576648628e-08)
(-0.4495252788343195 4.565477625452285e-17 -1.398240537111541e-08)
(-0.4267647182083253 -1.293175686351688e-16 -1.453523233323888e-08)
(-0.4267647182083243 -6.838518066994197e-17 -1.453590142227143e-08)
(-0.4267647182083247 -1.347560659819013e-17 -1.453525773431631e-08)
(-0.4267647182083242 1.01411117851776e-18 -1.453581346620439e-08)
(-0.4267647182083248 1.261088760024325e-17 -1.453531881354534e-08)
(-0.4267647182083241 4.320503591774091e-18 -1.453573872998206e-08)
(-0.426764718208325 1.787927330574768e-17 -1.453536636874198e-08)
(-0.4267647182083245 4.576396488642045e-17 -1.453567979415626e-08)
(-0.426764718208325 1.896516221447471e-17 -1.453540071930918e-08)
(-0.4267647182083248 -2.989388481599389e-17 -1.453563432606228e-08)
(-0.4267647182083248 -2.273451936161097e-17 -1.453542464264979e-08)
(-0.4267647182083243 -2.591274702624269e-17 -1.453559914370861e-08)
(-0.4267647182083245 3.653205154313815e-18 -1.453544091645498e-08)
(-0.4267647182083246 1.16291289198729e-17 -1.453557157607871e-08)
(-0.4267647182083245 4.628106863815397e-17 -1.453545167265423e-08)
(-0.4267647182083245 3.364716003024779e-17 -1.453554964212912e-08)
(-0.4267647182083248 1.867705798196444e-17 -1.453545843756778e-08)
(-0.426764718208325 -1.3572030048563e-17 -1.453553190395582e-08)
(-0.4267647182083249 -1.390746299685625e-17 -1.453546228671609e-08)
(-0.426764718208325 4.260604670845945e-18 -1.453551730963075e-08)
(-0.4267647182083248 1.304766905853989e-17 -1.453546396883923e-08)
(-0.4267647182083249 -1.981642261930919e-17 -1.453550506261584e-08)
(-0.4267647182083248 -3.782421902105979e-17 -1.453546401100281e-08)
(-0.4267647182083246 -1.098583002606336e-17 -1.453549454192885e-08)
(-0.426764718208325 1.360846237524276e-17 -1.453546276404228e-08)
(-0.4267647182083248 4.113131869744005e-19 -1.453548525608518e-08)
(-0.4267647182083249 -7.071938947457503e-18 -1.453546045165426e-08)
(-0.4267647182083246 2.866960540069134e-17 -1.453547678402547e-08)
(-0.4267647182083248 -5.741644693278167e-18 -1.453545718546669e-08)
(-0.4267647182083247 -2.297065793007691e-17 -1.453546875203822e-08)
(-0.4267647182083245 -8.646883208659628e-18 -1.453545299430757e-08)
(-0.426764718208325 3.986579853664597e-17 -1.453546081032733e-08)
(-0.4267647182083251 5.633790864642369e-17 -1.453544780606217e-08)
(-0.426764718208325 1.663358861824697e-17 -1.4535452601471e-08)
(-0.426764718208325 4.368459038318814e-17 -1.45354414860078e-08)
(-0.4267647182083252 -3.835300752720651e-17 -1.453544375152409e-08)
(-0.4267647182083249 -1.701165389714267e-17 -1.453543379629841e-08)
(-0.4267647182083248 2.696436363976182e-17 -1.453543383856589e-08)
(-0.4267647182083252 -3.581980833854381e-17 -1.453542442463462e-08)
(-0.426764718208325 -2.682025138763919e-17 -1.45354223930489e-08)
(-0.426764718208325 4.79670290818001e-18 -1.453541295554763e-08)
(-0.4267647182083251 2.320150637333008e-17 -1.453540886789937e-08)
(-0.4267647182083251 3.321898850164924e-17 -1.453539888214993e-08)
(-0.4267647182083251 -5.48173735116256e-18 -1.453539265346433e-08)
(-0.4267647182083252 -7.01242949882716e-18 -1.453538162262738e-08)
(-0.4267647182083251 1.492966416843737e-17 -1.453537309863004e-08)
(-0.426764718208325 1.691847371751472e-17 -1.453536057768381e-08)
(-0.4267647182083253 -1.081031994183449e-17 -1.453534960714173e-08)
(-0.4267647182083251 -5.729472078727182e-18 -1.453533528054296e-08)
(-0.4267647182083253 -1.70392104557198e-18 -1.453532185969704e-08)
(-0.4267647182083253 3.910599545698178e-18 -1.453530571506701e-08)
(-0.4267647182083253 -8.172162634512634e-18 -1.4535290229131e-08)
(-0.4267647182083254 5.799718480242354e-18 -1.453527283478422e-08)
(-0.4267647182083252 -7.175237352135205e-19 -1.453525632245334e-08)
(-0.4267647182083255 -2.704976876241251e-17 -1.453523892945359e-08)
(-0.426764718208325 -6.090639947667308e-17 -1.45352227431402e-08)
(-0.4267647182083253 9.672172898013986e-18 -1.453520594975039e-08)
(-0.426764718208325 4.589090127949404e-17 -1.453519060718441e-08)
(-0.4073462626316288 -1.422100959675466e-16 -1.499725511005436e-08)
(-0.4073462626316278 -7.973526905828094e-17 -1.499795753782498e-08)
(-0.4073462626316284 -1.614590730616556e-17 -1.499729906691839e-08)
(-0.4073462626316277 -1.001485845364428e-18 -1.499785691441376e-08)
(-0.4073462626316283 1.130623415904628e-17 -1.499736717025457e-08)
(-0.4073462626316276 8.198732335357293e-18 -1.499777692650487e-08)
(-0.4073462626316284 2.06355296376143e-17 -1.499741654211219e-08)
(-0.4073462626316279 5.077790232172629e-17 -1.499771651483218e-08)
(-0.4073462626316285 2.328264303359798e-17 -1.499745037471482e-08)
(-0.4073462626316282 -3.782906113767394e-17 -1.499767112053999e-08)
(-0.4073462626316283 -3.002512891981122e-17 -1.499747298767182e-08)
(-0.4073462626316278 -3.289904046421671e-17 -1.499763650695524e-08)
(-0.4073462626316279 9.786187300107701e-18 -1.499748782301574e-08)
(-0.407346262631628 1.770875511329433e-17 -1.499760957473057e-08)
(-0.407346262631628 4.006818944911001e-17 -1.499749726095791e-08)
(-0.4073462626316278 4.059936064199833e-17 -1.499758819258704e-08)
(-0.4073462626316284 3.269817911023247e-17 -1.499750290138238e-08)
(-0.4073462626316283 -1.582379334422554e-17 -1.499757088829347e-08)
(-0.4073462626316282 -1.083114976646809e-17 -1.499750582482493e-08)
(-0.4073462626316284 1.19290061268591e-18 -1.49975566189978e-08)
(-0.4073462626316282 1.170088564990659e-17 -1.499750676142772e-08)
(-0.4073462626316284 -1.987666982695242e-17 -1.499754461225894e-08)
(-0.4073462626316282 -4.859735204078444e-17 -1.499750621843403e-08)
(-0.407346262631628 -7.255519950069378e-18 -1.499753427344257e-08)
(-0.4073462626316286 2.102967389460473e-17 -1.499750452407352e-08)
(-0.4073462626316283 -9.79301458805215e-19 -1.499752513805871e-08)
(-0.4073462626316283 -1.111598067980324e-17 -1.499750188904312e-08)