/*--------------------------------*- C++ -*----------------------------------*\
| =========                 |                                                 |
| \\      /  F ield         | OpenFOAM: The Open Source CFD Toolbox           |
|  \\    /   O peration     | Version:  v1812                                 |
|   \\  /    A nd           | Web:      www.OpenFOAM.com                      |
|    \\/     M anipulation  |                                                 |
\*---------------------------------------------------------------------------*/
FoamFile
{
    version     2.0;
    format      ascii;
    class       volScalarField;
    location    "10000";
    object      nut;
}
// * * * * * * * * * * * * * * * * * * * * * * * * * * * * * * * * * * * * * //

dimensions      [0 2 -1 0 0 0 0];


internalField   nonuniform List<scalar> 
2494
(
5.736195272722358e-06
5.736195255762483e-06
5.736195263075542e-06
5.736195252278356e-06
5.736195272231721e-06
5.736195255206892e-06
5.736195271457436e-06
5.736195270903517e-06
5.736195251751312e-06
5.736195258363724e-06
5.736195266726127e-06
5.736195256615316e-06
5.736195260415432e-06
5.736195265745128e-06
5.73619525824839e-06
5.736195263568045e-06
5.736195281043353e-06
5.736195267893777e-06
5.736195252640899e-06
5.736195251575828e-06
5.736195249224822e-06
5.736195275236376e-06
5.736195269552065e-06
5.736195248850374e-06
5.736195259513996e-06
5.736195255377003e-06
5.736195273695227e-06
5.736195260332359e-06
5.73619525052668e-06
5.736195270438762e-06
5.736195261624588e-06
5.736195267530979e-06
5.736195260533524e-06
5.736195262238033e-06
5.736195267031702e-06
5.736195250142065e-06
5.736195255033308e-06
5.736195257345236e-06
5.736195264046346e-06
5.73619527778797e-06
5.736195266549468e-06
5.736195254242818e-06
5.736195262497947e-06
5.736195249318652e-06
5.736195272906368e-06
5.736195253344089e-06
5.736195278393926e-06
5.73619527356888e-06
5.736195255256562e-06
5.736195253733504e-06
5.736195279610392e-06
5.736195263075358e-06
5.736195254031149e-06
5.736195249622312e-06
5.736195277925335e-06
5.736195254957202e-06
5.736195247386317e-06
5.736195281785094e-06
1.817710687256054e-06
1.81771060374364e-06
1.817710633441384e-06
1.817710621699368e-06
1.817710650717274e-06
1.817710623654188e-06
1.817710725043211e-06
1.817710623201366e-06
1.817710624569398e-06
1.817710622765832e-06
1.817710666685669e-06
1.817710606572809e-06
1.817710661224014e-06
1.81771062466989e-06
1.817710671846564e-06
1.817710631177357e-06
1.817710756929296e-06
1.817710691139016e-06
1.817710604773554e-06
1.817710599410376e-06
1.817710554811637e-06
1.817710741536779e-06
1.817710605358732e-06
1.817710536474938e-06
1.817710675466884e-06
1.817710624431023e-06
1.817710780830897e-06
1.817710523106406e-06
1.817710559928369e-06
1.817710695920621e-06
1.817710591295332e-06
1.817710587162519e-06
1.817710702075296e-06
1.817710621760178e-06
1.817710678831985e-06
1.817710535086418e-06
1.817710628502904e-06
1.817710655449705e-06
1.817710600094126e-06
1.81771068286094e-06
1.817710602402192e-06
1.817710531330457e-06
1.817710611539591e-06
1.817710580194852e-06
1.817710622530504e-06
1.817710582642062e-06
1.817710777282365e-06
1.817710659311444e-06
1.817710529555582e-06
1.817710593643255e-06
1.817710694308053e-06
1.817710638442983e-06
1.81771056802978e-06
1.817710527232693e-06
1.817710717905976e-06
1.817710603494732e-06
1.817710559914713e-06
1.817710742021524e-06
6.338363931005296e-06
6.338362889638591e-06
6.338362116310763e-06
6.338363921211687e-06
6.3383627014557e-06
6.338362187180478e-06
6.338363999472249e-06
6.338362868748952e-06
6.338362087784508e-06
6.338363865873635e-06
6.33836271023122e-06
6.338362125762784e-06
6.338363902156488e-06
6.338362651379297e-06
6.33836220160128e-06
6.33836388944095e-06
6.338362753751889e-06
6.338362167248466e-06
6.338364065130505e-06
6.338361879092774e-06
6.338362649074301e-06
6.338363925079201e-06
6.338362839780528e-06
6.338361908982633e-06
6.338363811556155e-06
6.338363772717603e-06
6.338364180353513e-06
6.33836189515967e-06
6.338362688185447e-06
6.338363975562421e-06
6.338363104671029e-06
6.338361959256315e-06
6.338363874396097e-06
6.338363360394631e-06
6.338364090618448e-06
6.338361852418509e-06
6.338362696812074e-06
6.338363997949251e-06
6.338363210630045e-06
6.338362122002878e-06
6.338364068191356e-06
6.338361858164578e-06
6.338362701102496e-06
6.338363936296292e-06
6.338362930395597e-06
6.338362115659263e-06
6.338364030338293e-06
6.338362745710765e-06
6.338362263806198e-06
6.338363960799809e-06
6.33836277710003e-06
6.338362235654222e-06
6.338364135611943e-06
6.338361971387222e-06
6.338362846271133e-06
6.338364131147754e-06
6.33836188848678e-06
6.338362617580098e-06
1.739844389156348e-05
1.739844048809867e-05
1.739843893994132e-05
1.739844459803586e-05
1.739843817727208e-05
1.739844038150912e-05
1.739844410939475e-05
1.73984402927783e-05
1.739843882419223e-05
1.739844429871148e-05
1.739843819411058e-05
1.73984401993074e-05
1.739844444698221e-05
1.739843802289905e-05
1.739844039192429e-05
1.739844434909312e-05
1.739843825261538e-05
1.739844010823029e-05
1.739844393207263e-05
1.739843990394402e-05
1.739843896433806e-05
1.739844384000651e-05
1.739844045200716e-05
1.739843850281142e-05
1.739844391524191e-05
1.739844302428373e-05
1.739844420003516e-05
1.739844055150596e-05
1.73984392555816e-05
1.739844408133702e-05
1.739844054486807e-05
1.739843828750518e-05
1.739844371158626e-05
1.739844352011649e-05
1.739844400284189e-05
1.73984400736598e-05
1.739843920502963e-05
1.739844422567893e-05
1.739844078189142e-05
1.7398438873549e-05
1.73984441029798e-05
1.739844004134925e-05
1.739843927827771e-05
1.739844426822311e-05
1.739844076751564e-05
1.739843919410113e-05
1.73984450227032e-05
1.739843856371467e-05
1.739844136096746e-05
1.739844499454839e-05
1.739843854438716e-05
1.739844077341214e-05
1.739844433836228e-05
1.739844026706724e-05
1.739843934986351e-05
1.739844417799013e-05
1.739843991660046e-05
1.739843866044959e-05
3.898210322166735e-05
3.898209345033026e-05
3.898209740150392e-05
3.898210397394865e-05
3.898209330907913e-05
3.898209743958551e-05
3.898210396474772e-05
3.898209280647398e-05
3.898209701475001e-05
3.898210261371998e-05
3.898209730549766e-05
3.898209408418451e-05
3.898210306941756e-05
3.898209681926909e-05
3.898209465309663e-05
3.898210280098664e-05
3.89820976972855e-05
3.898209411288568e-05
3.898210360978491e-05
3.898209340264119e-05
3.898209707486535e-05
3.898210293064927e-05
3.898209384212457e-05
3.898209707494399e-05
3.898210470902259e-05
3.898209574461479e-05
3.898210320292287e-05
3.898209768401475e-05
3.898209772008633e-05
3.898210366454579e-05
3.898209367858748e-05
3.898209627760949e-05
3.898210268615791e-05
3.898210189915625e-05
3.89821038844032e-05
3.898209446234862e-05
3.898209807292515e-05
3.898210419817324e-05
3.898209397244001e-05
3.898209760076641e-05
3.898210438692584e-05
3.898209371263542e-05
3.898209802737791e-05
3.898210450144894e-05
3.898209426478567e-05
3.898209817793318e-05
3.898210510469812e-05
3.898209401742864e-05
3.89821004158234e-05
3.89821051591987e-05
3.898209423400236e-05
3.898209862809993e-05
3.898210480563013e-05
3.898209407428581e-05
3.898209811883951e-05
3.898210444962383e-05
3.898209332890092e-05
3.898209660948473e-05
9.329824860577256e-05
9.329823406850751e-05
9.329824019574882e-05
9.329824965863792e-05
9.329823372127139e-05
9.329824009595818e-05
9.329824944579625e-05
9.329823287932851e-05
9.329823963729814e-05
9.32982480219941e-05
9.32982385150398e-05
9.329823652114046e-05
9.329824841967268e-05
9.329823829393827e-05
9.329823690894687e-05
9.3298248304905e-05
9.329824011829272e-05
9.329823590656821e-05
9.329824669420211e-05
9.329823841565439e-05
9.329823769901389e-05
9.329824523463674e-05
9.329823808065529e-05
9.329823768929175e-05
9.329825065795652e-05
9.329823941781735e-05
9.32982481004402e-05
9.329823895651498e-05
9.329823761448138e-05
9.329824762403782e-05
9.329823766560661e-05
9.329823649036626e-05
9.329824957316784e-05
9.329823979668828e-05
9.329824690929938e-05
9.329824114612851e-05
9.329824169646552e-05
9.329824947305543e-05
9.329823378682062e-05
9.329824027891576e-05
9.329824968222726e-05
9.329823377110175e-05
9.329824069603041e-05
9.329825003535836e-05
9.329823447077897e-05
9.329824117730085e-05
9.329825068882235e-05
9.329823499762298e-05
9.329824227997782e-05
9.329825073020927e-05
9.329823473483507e-05
9.329824110655296e-05
9.329825023708466e-05
9.329823400189096e-05
9.329824046236092e-05
9.329824937087573e-05
9.329823254623891e-05
9.329823875464216e-05
0.0002093867484307336
0.0002093867315225436
0.0002093867388267126
0.0002093867502357696
0.0002093867308624265
0.0002093867389674718
0.0002093867501734244
0.0002093867299202692
0.0002093867383822156
0.0002093867484674603
0.0002093867361931167
0.0002093867354695062
0.000209386749114188
0.0002093867360759842
0.0002093867358778924
0.0002093867482840166
0.0002093867377487115
0.0002093867337859824
0.0002093867423849022
0.0002093867403070012
0.0002093867422596402
0.0002093867406321084
0.0002093867409418626
0.0002093867367104132
0.0002093867459994917
0.0002093867428014436
0.0002093867462042744
0.0002093867357447903
0.0002093867358738896
0.0002093867462411079
0.0002093867350549721
0.0002093867341036504
0.0002093867484257279
0.0002093867369828264
0.0002093867468287703
0.000209386736784876
0.0002093867356879648
0.0002093867489718247
0.0002093867303257997
0.0002093867382583835
0.0002093867493902525
0.0002093867302432966
0.0002093867387579943
0.0002093867499938447
0.0002093867316031612
0.0002093867395392088
0.000209386750734226
0.000209386732176674
0.0002093867402394895
0.0002093867509022745
0.0002093867318040252
0.0002093867396190969
0.0002093867505398282
0.0002093867307646194
0.000209386738603405
0.0002093867490836689
0.0002093867283885271
0.0002093867363592442
0.0004203648876545944
0.000420364869557217
0.0004203648773213424
0.0004203648909131656
0.0004203648694666466
0.0004203648780318099
0.0004203648911481423
0.0004203648680797834
0.000420364877207365
0.0004203648888832534
0.0004203648749627335
0.0004203648743706708
0.0004203648896007088
0.0004203648754200683
0.0004203648758532554
0.0004203648848754766
0.0004203648789696851
0.0004203648814066575
0.0004203648721256535
0.0004203648769883644
0.0004203648841051693
0.0004203648724051635
0.0004203648757170187
0.000420364885797761
0.0004203648753987549
0.0004203648753056197
0.0004203648800989144
0.000420364873424109
0.0004203648794737748
0.0004203648812372153
0.000420364868405755
0.0004203648743519932
0.0004203648800869259
0.0004203648783257886
0.0004203648852660363
0.0004203648716406976
0.0004203648712051848
0.000420364886981593
0.0004203648679144798
0.0004203648747216498
0.0004203648878118534
0.0004203648673186192
0.0004203648755225069
0.0004203648885862511
0.0004203648699350461
0.0004203648764561792
0.0004203648892071148
0.000420364871017573
0.0004203648772910238
0.00042036488986879
0.0004203648705431149
0.0004203648773729951
0.0004203648903371094
0.0004203648685772008
0.0004203648763121439
0.0004203648883229299
0.0004203648649129587
0.0004203648732861908
0.0007568906546502162
0.0007568906355763054
0.0007568906433713283
0.0007568906600920623
0.0007568906371455117
0.0007568906451104449
0.000756890660473006
0.0007568906352221033
0.000756890643815651
0.0007568906573353174
0.0007568906416923469
0.0007568906402527965
0.0007568906569401188
0.0007568906459652815
0.0007568906516611672
0.0007568906441765461
0.0007568906468034873
0.0007568906504459989
0.000756890632356657
0.0007568906376365494
0.0007568906506846547
0.0007568906388198602
0.0007568906409169993
0.0007568906565826488
0.0007568906369809657
0.0007568906300888422
0.0007568906411358544
0.0007568906325537437
0.0007568906484876042
0.0007568906354070622
0.0007568906311556378
0.0007568906460809427
0.0007568906356947711
0.0007568906360869966
0.0007568906514425998
0.0007568906299494364
0.0007568906357122308
0.0007568906509850121
0.0007568906360606933
0.0007568906355327267
0.0007568906520159158
0.0007568906351762383
0.0007568906383659058
0.0007568906532112434
0.0007568906389293041
0.0007568906380907924
0.0007568906535867748
0.0007568906400575191
0.0007568906396547982
0.0007568906548300367
0.0007568906406801708
0.0007568906402765372
0.0007568906572363112
0.000756890635352881
0.0007568906407999796
0.0007568906546649124
0.0007568906307912431
0.0007568906371866017
0.001240382750730331
0.001240382729146898
0.001240382737399045
0.001240382758438537
0.001240382732974032
0.001240382740050191
0.001240382759180733
0.001240382731927531
0.001240382738384103
0.001240382754604004
0.001240382733736848
0.001240382733348444
0.001240382754373652
0.001240382747936551
0.001240382752706128
0.001240382730678149
0.001240382732725025
0.001240382742908311
0.001240382727980189
0.001240382727099572
0.001240382746843912
0.001240382731828786
0.001240382733749061
0.001240382752705719
0.001240382722578986
0.001240382718334293
0.001240382732293161
0.001240382723571578
0.001240382742498541
0.001240382719791255
0.001240382722590737
0.00124038274151372
0.001240382721141627
0.001240382725116383
0.001240382745128735
0.001240382718479887
0.001240382726343536
0.001240382745213291
0.001240382726121974
0.001240382726416578
0.001240382745361775
0.001240382728455101
0.001240382728293459
0.001240382748387514
0.001240382729624201
0.001240382730030941
0.001240382749073064
0.001240382731543325
0.001240382732257811
0.001240382751500261
0.001240382731920996
0.001240382733090181
0.001240382752828805
0.001240382732020612
0.001240382731819789
0.001240382750371794
0.001240382725815996
0.001240382729354837
0.001880987078571245
0.001880987053695976
0.001880987061580023
0.001880987087929143
0.001880987059303587
0.00188098706532086
0.001880987089634772
0.001880987061201932
0.001880987063005569
0.001880987082774643
0.001880987053157058
0.001880987057347408
0.001880987084198654
0.001880987078371926
0.001880987082542964
0.001880987046905824
0.001880987051828216
0.001880987068340863
0.001880987052027996
0.001880987051120081
0.001880987076288409
0.001880987052500421
0.001880987055438104
0.001880987077161994
0.001880987043996016
0.001880987041723273
0.001880987057880226
0.001880987048650309
0.001880987066641784
0.001880987037704143
0.001880987044454914
0.001880987066724931
0.001880987038530047
0.00188098704584736
0.001880987069474038
0.001880987037950836
0.001880987046122082
0.001880987069871202
0.001880987046862685
0.001880987048507144
0.001880987071825832
0.001880987045495895
0.001880987050943925
0.001880987074872084
0.001880987047909755
0.001880987052879203
0.001880987075711784
0.001880987051408408
0.001880987055403914
0.001880987078389735
0.001880987055223189
0.001880987057465901
0.001880987081632515
0.001880987051606399
0.001880987056107783
0.001880987076665032
0.001880987054822989
0.001880987051903587
0.00268424588285155
0.002684245855781799
0.002684245859650235
0.002684245892973153
0.002684245861833159
0.002684245866225472
0.002684245899923144
0.002684245858479799
0.002684245865379568
0.002684245887415139
0.002684245848249633
0.002684245857857815
0.002684245891271821
0.002684245880258412
0.002684245887675859
0.002684245838192401
0.00268424584970461
0.002684245870779943
0.002684245852126254
0.00268424585298035
0.002684245883915809
0.002684245850327619
0.002684245850208691
0.002684245874449006
0.002684245852922285
0.002684245838369004
0.002684245861192106
0.002684245860369635
0.002684245868461811
0.002684245830255871
0.002684245842687704
0.002684245869028903
0.0026842458287856
0.002684245842987893
0.002684245870010196
0.002684245836309635
0.002684245839701717
0.002684245868737629
0.002684245848512674
0.002684245843368468
0.002684245874596693
0.002684245838388624
0.002684245849863512
0.0026842458779722
0.002684245839879367
0.002684245851480548
0.00268424587869635
0.002684245845414187
0.002684245854415194
0.00268424588243358
0.002684245850478843
0.002684245854148613
0.002684245886973032
0.002684245846458615
0.002684245857778354
0.00268424588254061
0.002684245846192182
0.002684245852681496
0.003656021005444089
0.003656020978605628
0.003656020974051462
0.003656021015980034
0.003656020983336282
0.003656020984142975
0.003656021029267338
0.003656020972589359
0.003656020989054383
0.003656021009045826
0.003656020977054311
0.003656020973411125
0.003656021021598024
0.003656020987116287
0.00365602101121531
0.003656020946294528
0.003656020968685841
0.003656020994026782
0.003656020966170916
0.003656020973242291
0.003656021010403571
0.003656020972039435
0.003656020964145297
0.003656020994727885
0.003656020959573931
0.003656020961488605
0.00365602098345092
0.003656020978648312
0.00365602099034359
0.00365602093885965
0.003656020960215857
0.003656020991127616
0.003656020932401566
0.003656020958108299
0.003656020988331614
0.003656020959268504
0.003656020950386875
0.003656020988572423
0.003656020956917035
0.003656020953186661
0.003656020993319901
0.003656020958464463
0.003656020965985863
0.003656020999159861
0.003656020947256985
0.003656020966447291
0.003656020998104719
0.003656020963902705
0.003656020970443648
0.003656021002689136
0.003656020964753786
0.003656020966228285
0.00365602100986592
0.003656020960971299
0.003656020976263266
0.003656021008083407
0.003656020951659066
0.003656020972915338
0.004818298468937805
0.004818298393084715
0.004818298430069028
0.004818298470354994
0.004818298427320053
0.004818298440789152
0.004818298486865302
0.004818298441207888
0.00481829844186503
0.004818298469372628
0.004818298412118607
0.004818298429348331
0.004818298476976915
0.004818298428328584
0.004818298462279578
0.004818298391174852
0.004818298420353659
0.004818298452534549
0.00481829838137616
0.004818298419321151
0.004818298466637218
0.004818298419300451
0.004818298411838928
0.004818298457522681
0.004818298362602229
0.004818298385377446
0.004818298443122126
0.004818298394291216
0.00481829844205939
0.004818298374876283
0.00481829840688824
0.004818298443437892
0.004818298360388152
0.004818298401333104
0.00481829844015057
0.004818298392350368
0.004818298401566922
0.004818298437705329
0.004818298395389371
0.004818298387714786
0.004818298442749533
0.004818298394670742
0.004818298394233374
0.004818298443958685
0.00481829839752656
0.004818298394306238
0.004818298447950366
0.004818298400687722
0.004818298399968123
0.004818298458834424
0.00481829838071544
0.004818298415279158
0.004818298454647632
0.004818298419963956
0.004818298404601973
0.00481829845637838
0.004818298402656065
0.004818298421148751
0.006180931076096877
0.006180930946116804
0.006180931020606612
0.006180931086955006
0.006180930954289428
0.006180931029411104
0.006180931095226687
0.006180931079291884
0.006180931013420754
0.006180931056489262
0.006180931039168175
0.006180930990426163
0.006180931069566119
0.006180931014164569
0.006180931072131319
0.006180930933762888
0.00618093100839991
0.006180931062522643
0.00618093092918718
0.00618093100269474
0.006180931067550979
0.006180931007745307
0.006180930983493118
0.006180931066077781
0.006180930910685097
0.006180930952532348
0.00618093103649129
0.006180930962670972
0.006180931050163972
0.006180930910898911
0.006180930988635812
0.006180931046926521
0.006180930912291794
0.006180930984676032
0.006180931047406007
0.006180930917237068
0.006180930982732336
0.0061809310344258
0.006180930976471157
0.006180930949727801
0.006180931038670296
0.006180930972957762
0.006180930956686797
0.006180931041631318
0.006180930979433221
0.006180930956239259
0.006180931044689656
0.006180930982039348
0.006180930964203889
0.006180931064768237
0.006180930924374857
0.006180930998780022
0.006180931052965271
0.006180930988567853
0.006180930965589839
0.006180931048684379
0.006180930993511066
0.006180930969482798
0.007619199765737603
0.007619199560065101
0.007619199682217055
0.007619199780198527
0.007619199561535153
0.007619199689011882
0.007619199786053356
0.007619199776095116
0.007619199809758041
0.007619199636610292
0.007619199679502734
0.00761919962182856
0.007619199713368871
0.007619199674083788
0.007619199764092981
0.007619199537462859
0.007619199667448875
0.007619199756594421
0.007619199537298814
0.007619199660223138
0.00761919975214709
0.007619199664680787
0.007619199666968587
0.00761919973489034
0.007619199602309492
0.007619199531697417
0.007619199664368633
0.007619199667577903
0.007619199733308009
0.007619199529724551
0.007619199632546799
0.00761919972877218
0.007619199525029773
0.007619199630160106
0.007619199720584808
0.007619199551580272
0.007619199629563687
0.007619199708701034
0.00761919962068567
0.007619199579313229
0.007619199712537207
0.007619199623657208
0.007619199582323881
0.007619199718828473
0.007619199625154124
0.007619199586435876
0.007619199720057776
0.007619199637414484
0.007619199597850925
0.007619199754078418
0.007619199532296498
0.00761919965340959
0.007619199730725117
0.007619199641339358
0.007619199594171813
0.007619199726979966
0.007619199639910181
0.007619199600268198
0.009032559049103593
0.009032558771382098
0.009032558937891547
0.009032559066037104
0.00903255877045024
0.009032558936959742
0.009032559061460483
0.00903255905849124
0.00903255909460504
0.009032558828203639
0.009032558906528014
0.009032559024970707
0.009032558783895344
0.009032558920686194
0.009032559044098772
0.009032558748763343
0.009032558921533644
0.00903255904311509
0.009032558748459806
0.009032558913054102
0.009032559019468029
0.009032558902817527
0.009032558848593303
0.009032559024866832
0.00903255878243287
0.009032558837294475
0.009032558876829324
0.009032558878325657
0.009032558974373356
0.009032558873375299
0.009032558795141013
0.009032558969007232
0.009032558846678165
0.009032558794816818
0.009032558970516743
0.009032558851529227
0.009032558804377406
0.009032559011883972
0.009032558726228219
0.009032558875227413
0.009032558979491425
0.009032558856456707
0.009032558811194054
0.009032559020328129
0.009032558765164967
0.00903255888528849
0.009032559013806908
0.009032558796437535
0.009032558900885954
0.009032559037177115
0.00903255873814046
0.009032558901198877
0.009032559002443289
0.009032558890518211
0.009032558818578021
0.00903255899785513
0.009032558887531112
0.009032558829190086
0.01035500975606108
0.01035500942012425
0.01035500962015162
0.01035500977728128
0.01035500944058164
0.01035500960847277
0.01035500973470225
0.01035500969306145
0.01035500971553379
0.0103550095433657
0.01035500949170008
0.01035500974069604
0.01035500940226864
0.01035500958952193
0.01035500974082584
0.0103550094039876
0.01035500959509233
0.01035500975160572
0.01035500941767367
0.01035500959482906
0.01035500974867807
0.01035500945158644
0.01035500960220044
0.01035500965576613
0.01035500954709468
0.01035500967794555
0.01035500939256076
0.01035500955228487
0.01035500970986966
0.01035500936930382
0.0103550095382379
0.0103550096627288
0.01035500952720212
0.01035500945217883
0.01035500966666865
0.01035500952180269
0.01035500946719834
0.01035500972009664
0.01035500936454187
0.01035500956526526
0.0103550097119651
0.01035500939492035
0.010355009550019
0.01035500967689173
0.01035500953741411
0.01035500946990272
0.01035500968474376
0.01035500954458479
0.01035500949280675
0.01035500974215152
0.01035500938229907
0.01035500957702844
0.01035500969931629
0.01035500956804623
0.01035500947706657
0.01035500969379
0.01035500956541348
0.01035500949074847
0.01153535977642119
0.01153535939697553
0.01153535960940559
0.01153535976130977
0.01153535964027412
0.01153535952968592
0.0115353596995736
0.01153535963002236
0.01153535976445041
0.01153535936780416
0.0115353595792818
0.01153535976320404
0.01153535936101573
0.01153535956970389
0.01153535970630607
0.01153535954642273
0.01153535947741384
0.01153535972860643
0.01153535960814232
0.01153535949281116
0.01153535965995557
0.01153535957156705
0.01153535973419392
0.01153535938957591
0.01153535953855269
0.01153535967187509
0.01153535950791966
0.01153535944486297
0.011535359725939
0.01153535935246169
0.01153535953873992
0.01153535970412662
0.01153535944306455
0.01153535954924201
0.01153535973477188
0.01153535934998621
0.01153535956161326
0.01153535974477368
0.01153535934373139
0.01153535957044632
0.01153535974542316
0.01153535934399958
0.01153535955066107
0.01153535968909651
0.01153535954687353
0.01153535945112741
0.01153535972837834
0.01153535944774619
0.01153535957787294
0.0115353597659947
0.01153535936016729
0.01153535957670712
0.01153535971424988
0.01153535955428156
0.01153535946987256
0.01153535970828995
0.01153535956637925
0.01153535947800728
0.01253181631563478
0.01253181592897432
0.01253181611894603
0.01253181628154267
0.01253181625389437
0.01253181630493917
0.01253181595637652
0.01253181612118456
0.01253181630376061
0.01253181587305435
0.01253181611196664
0.0125318163061687
0.01253181587176873
0.01253181609644938
0.01253181624902403
0.0125318160780351
0.01253181597001136
0.01253181624135737
0.01253181622908958
0.01253181627183812
0.0125318159221034
0.0125318160882298
0.01253181627701995
0.01253181585255824
0.01253181606969582
0.012531816259887
0.01253181587333275
0.01253181604655995
0.01253181621566709
0.0125318160672475
0.01253181595615756
0.01253181621164689
0.0125318160554895
0.01253181597490795
0.01253181628514663
0.012531815858851
0.01253181609592472
0.01253181629038633
0.01253181585884681
0.01253181609528754
0.01253181628787593
0.01253181587204957
0.01253181607284332
0.01253181622908209
0.01253181607803075
0.01253181596421272
0.01253181623095496
0.01253181607935409
0.0125318159994687
0.0125318163103768
0.01253181588204499
0.01253181611731338
0.01253181630577576
0.01253181592061573
0.01253181609652015
0.01253181625070289
0.01253181609741932
0.01253181599528954
0.0133111758492751
0.01331117574096931
0.01331117563506945
0.01331117583066002
0.01331117574337777
0.01331117589649696
0.01331117545432939
0.01331117567176646
0.01331117587302727
0.01331117544967408
0.01331117567454257
0.01331117588683758
0.01331117544405654
0.01331117567865937
0.01331117589173362
0.01331117552441244
0.01331117566706716
0.01331117577504548
0.01331117576112201
0.01331117586681115
0.01331117542485471
0.01331117564238797
0.01331117584256799
0.01331117541661868
0.01331117562003928
0.01331117578165202
0.01331117561018405
0.01331117553199681
0.01331117585431499
0.01331117543227465
0.01331117562885469
0.01331117579696038
0.01331117562351053
0.01331117554748206
0.01331117587189698
0.01331117542861864
0.01331117566793371
0.01331117587468173
0.013311175423792
0.01331117565411444
0.01331117581624813
0.01331117562251431
0.01331117554726464
0.01331117580984774
0.01331117565531715
0.01331117553495708
0.0133111758112523
0.01331117566021705
0.01331117556224927
0.01331117589542488
0.01331117545396833
0.01331117569096891
0.01331117589608547
0.0133111754770783
0.01331117567533606
0.01331117583605072
0.01331117567439978
0.01331117555061776
0.01384669309976997
0.01384669311129251
0.01384669317011303
0.01384669282317021
0.01384669296795257
0.01384669316724392
0.01384669271143546
0.01384669292663388
0.01384669309124134
0.01384669291710117
0.01384669283707847
0.01384669315936661
0.01384669273679953
0.013846692918016
0.01384669308818094
0.01384669305219946
0.0138466930795771
0.01384669296811108
0.01384669283413276
0.01384669312870799
0.01384669269780043
0.01384669289615426
0.01384669306199448
0.01384669288486403
0.01384669279790768
0.01384669306546573
0.01384669291181386
0.01384669281231877
0.01384669314920284
0.0138466927056163
0.01384669293453815
0.01384669314885977
0.0138466927236043
0.01384669293940496
0.01384669316326377
0.01384669271457325
0.01384669294879703
0.01384669316390154
0.01384669271436232
0.01384669294825447
0.01384669316246309
0.0138466927339714
0.01384669292584051
0.01384669309797072
0.01384669294171035
0.01384669281855956
0.01384669309707173
0.0138466929448948
0.01384669284435289
0.01384669318246344
0.01384669273466578
0.01384669295497738
0.01384669312051715
0.01384669294762146
0.01384669286178671
0.01384669312934067
0.01384669296606981
0.01384669280790054
0.01411430222883183
0.01411430226588347
0.01411430235641658
0.01411430191982548
0.01411430211577538
0.01411430233057264
0.01411430188727148
0.01411430209699457
0.01411430226821685
0.01411430211878868
0.01411430198629776
0.01411430226629814
0.01411430213890031
0.0141143020184727
0.01411430221191932
0.01411430223524002
0.01411430231734853
0.01411430192391338
0.01411430206433708
0.01411430223490755
0.01411430206029414
0.01411430197478263
0.01411430223833676
0.01411430208651101
0.01411430197105483
0.01411430224341022
0.01411430209489288
0.01411430199599453
0.01411430232920056
0.01411430189457169
0.01411430211635715
0.01411430233545996
0.01411430190032299
0.014114302122721
0.01411430234107441
0.01411430190207536
0.01411430212376854
0.01411430234059064
0.01411430190439164
0.01411430212295667
0.01411430233730514
0.01411430192401847
0.01411430210560278
0.01411430227579661
0.01411430212277155
0.01411430200060473
0.01411430227427635
0.01411430212497729
0.01411430202454129
0.01411430235801275
0.01411430191885196
0.01411430212623328
0.01411430229364608
0.01411430214374199
0.01411430203542026
0.01411430231994739
0.01411430219517358
0.0141143020261261
0.01412315109662968
0.01412315121350904
0.01412315139369364
0.01412315096655833
0.01412315116344152
0.01412315137882782
0.01412315095648981
0.01412315115259816
0.0141231513281639
0.01412315121125027
0.01412315105731227
0.0141231512708314
0.01412315126097478
0.01412315134694557
0.01412315107122241
0.01412315117531205
0.01412315130605003
0.01412315113696625
0.01412315104077254
0.01412315129441868
0.01412315114911899
0.01412315103905635
0.01412315130146566
0.01412315115779208
0.01412315104302316
0.01412315130570675
0.0141231511639498
0.01412315106938306
0.01412315139052472
0.01412315097567084
0.01412315118111553
0.01412315139759788
0.01412315098000973
0.01412315118518721
0.01412315139987534
0.01412315098259001
0.01412315118310021
0.01412315139151849
0.01412315099756675
0.01412315116907851
0.01412315133513745
0.01412315116975509
0.01412315108432508
0.01412315133739616
0.01412315119164224
0.01412315107408896
0.01412315133762701
0.01412315119284845
0.01412315109577538
0.01412315141639094
0.01412315099557778
0.01412315118486438
0.0141231513474654
0.01412315120041554