/*--------------------------------*- C++ -*----------------------------------*\
| =========                 |                                                 |
| \\      /  F ield         | OpenFOAM: The Open Source CFD Toolbox           |
|  \\    /   O peration     | Version:  v1812                                 |
|   \\  /    A nd           | Web:      www.OpenFOAM.com                      |
|    \\/     M anipulation  |                                                 |
\*---------------------------------------------------------------------------*/
FoamFile
{
    version     2.0;
    format      ascii;
    class       volScalarField;
    location    "10000";
    object      nuTilda;
}
// * * * * * * * * * * * * * * * * * * * * * * * * * * * * * * * * * * * * * //

dimensions      [0 2 -1 0 0 0 0];


internalField   nonuniform List<scalar> 
2494
(
0.0004959734119376633
0.0004959734114949726
0.0004959734118505536
0.0004959734113118769
0.0004959734111528941
0.0004959734116244862
0.0004959734115760329
0.0004959734109605009
0.0004959734116020424
0.0004959734114914737
0.0004959734110525102
0.0004959734115404288
0.0004959734114339443
0.0004959734113652448
0.0004959734117309689
0.0004959734112268151
0.0004959734109011107
0.0004959734117173754
0.0004959734116362955
0.0004959734119240278
0.0004959734114795948
0.0004959734113855123
0.0004959734110429545
0.0004959734118705243
0.0004959734117263288
0.0004959734111518811
0.0004959734111077868
0.000495973412206606
0.0004959734114448586
0.0004959734115971277
0.0004959734110687278
0.0004959734117146178
0.0004959734116856327
0.0004959734109008559
0.000495973411332692
0.0004959734117191793
0.0004959734113000504
0.0004959734113738403
0.0004959734112131021
0.0004959734112563373
0.0004959734115225639
0.000495973411897802
0.0004959734117374496
0.0004959734113722885
0.0004959734110239679
0.0004959734114614862
0.0004959734110205531
0.0004959734108265149
0.0004959734121911772
0.000495973411211651
0.0004959734110041099
0.0004959734112783399
0.0004959734115521175
0.0004959734115296165
0.0004959734108012185
0.0004959734116928253
0.0004959734115789924
0.0004959734109441004
0.0003714952057235656
0.0003714951945496577
0.0003714952022095251
0.0003714951918933684
0.0003714951906185264
0.0003714951965729095
0.0003714952023099438
0.0003714951855244389
0.0003714951956085021
0.0003714951962335656
0.0003714951887744847
0.0003714951938269869
0.0003714951968030401
0.0003714951923612852
0.0003714952006790208
0.0003714951922297319
0.000371495190302816
0.0003714952038978274
0.0003714951949055031
0.0003714952011075182
0.0003714951901332214
0.0003714951992302329
0.0003714951858046671
0.0003714951971112706
0.0003714952013983571
0.0003714951905570784
0.0003714951950928855
0.0003714952041565437
0.0003714951896982318
0.0003714952006312105
0.0003714951859138358
0.0003714951973624005
0.0003714952029102763
0.0003714951845734515
0.0003714951941644359
0.000371495195185862
0.0003714951907438856
0.0003714951933780809
0.0003714951888496999
0.0003714951958414151
0.0003714951936757609
0.000371495198420344
0.000371495199434
0.0003714951899472197
0.000371495187329549
0.0003714951922137021
0.0003714951956236657
0.0003714951842445849
0.0003714952023264365
0.0003714951894300684
0.000371495190084089
0.0003714951925362519
0.0003714951928050718
0.0003714951917006956
0.0003714951887639611
0.0003714951983607986
0.0003714951949245569
0.0003714951913230165
0.0005086222125011321
0.0005086221545530744
0.0005086221891638491
0.0005086222092054731
0.0005086221586439993
0.0005086221865900062
0.0005086222127248047
0.0005086221520176224
0.0005086221890659311
0.0005086222093571475
0.0005086221555663824
0.0005086221852532058
0.000508622210211766
0.0005086221553431405
0.0005086221869505993
0.0005086222086150175
0.000508622156567087
0.0005086221842697291
0.0005086222021889732
0.0005086221878824677
0.0005086221639901041
0.0005086222107009281
0.0005086221520507965
0.0005086221843268843
0.000508622201717509
0.0005086222010182798
0.0005086222034747524
0.0005086221886404736
0.0005086221654593741
0.00050862221211068
0.0005086221547086157
0.0005086221885763731
0.0005086222130415492
0.0005086221680746701
0.0005086222017669678
0.0005086221875865293
0.0005086221649931159
0.0005086222110366796
0.0005086221559726784
0.0005086221865202891
0.0005086222019221882
0.000508622188113014
0.0005086221659680137
0.0005086222103376436
0.000508622154232738
0.0005086221882577241
0.0005086222110038799
0.0005086221576555801
0.0005086221879857638
0.0005086222095371689
0.0005086221586998057
0.0005086221840490954
0.0005086222028126158
0.0005086221879280754
0.0005086221643596552
0.0005086222034869498
0.0005086221876878078
0.0005086221628639822
0.0006570235926142416
0.0006570235178047148
0.0006570235592034672
0.0006570235844215471
0.0006570235661503744
0.0006570235275640281
0.0006570235943327944
0.0006570235162486708
0.0006570235600031841
0.0006570235823100962
0.0006570235563479639
0.0006570235300486277
0.0006570235835715511
0.0006570235548703693
0.0006570235320912466
0.0006570235828282384
0.0006570235567848525
0.000657023530618367
0.0006570235926575055
0.0006570235197017777
0.0006570235581203847
0.0006570235924213984
0.0006570235168930956
0.0006570235562662403
0.0006570235845855865
0.000657023582424821
0.0006570235961137549
0.0006570235181882695
0.0006570235655417536
0.0006570235940594782
0.0006570235173496993
0.0006570235566389933
0.0006570235841204677
0.0006570235796794632
0.000657023593827615
0.0006570235229099711
0.0006570235597546764
0.0006570235951573126
0.0006570235204830621
0.0006570235615074984
0.0006570235941544461
0.0006570235223158741
0.0006570235605371156
0.0006570235958317711
0.0006570235203666774
0.0006570235614898305
0.0006570235877901159
0.0006570235678240121
0.0006570235350159515
0.0006570235879182932
0.0006570235692005886
0.0006570235306279152
0.0006570235960714315
0.0006570235237506191
0.0006570235605050761
0.0006570235949404582
0.0006570235205421051
0.000657023554823415
0.0008083917273019199
0.0008083917121834131
0.0008083916794949041
0.0008083917306477288
0.0008083917232208545
0.0008083916720037772
0.0008083917307462705
0.0008083917105192909
0.0008083916822362791
0.000808391738985909
0.0008083916713085732
0.0008083917102048925
0.0008083917418911119
0.0008083916686353149
0.0008083917128542002
0.0008083917397376906
0.0008083916717792682
0.0008083917068841241
0.0008083917301833715
0.0008083917089513307
0.0008083916815452733
0.0008083917275739267
0.0008083917100468443
0.0008083916800143068
0.0008083917329871112
0.0008083917224507294
0.0008083917438251959
0.0008083916657967783
0.0008083917204440278
0.000808391730073663
0.0008083917097830809
0.000808391678217375
0.0008083917304604217
0.0008083917267412352
0.0008083917330644544
0.0008083917190266121
0.0008083916820857364
0.0008083917322913641
0.0008083917154908332
0.0008083916811170706
0.0008083917334896099
0.0008083917156340879
0.0008083916829117046
0.0008083917339804967
0.0008083917168601799
0.0008083916833560867
0.0008083917355471327
0.0008083917238197784
0.0008083916982392806
0.0008083917367322195
0.0008083917280276865
0.00080839167843149
0.0008083917356164406
0.0008083917175071065
0.0008083916830635017
0.0008083917337039995
0.0008083917140332996
0.0008083916749067234
0.001017306437881768
0.001017306422612855
0.001017306402263316
0.001017306441107784
0.001017306423876252
0.001017306400718478
0.001017306440019639
0.001017306420419418
0.001017306404131646
0.001017306447582184
0.001017306391931143
0.001017306424978268
0.001017306448790735
0.001017306391269376
0.001017306425880768
0.00101730644798732
0.001017306394149303
0.001017306421101694
0.001017306441551286
0.001017306400900558
0.001017306419862954
0.001017306438922182
0.001017306400476497
0.001017306419002586
0.001017306442718111
0.001017306431162838
0.0010173064472441
0.001017306391932176
0.001017306425981855
0.001017306442746858
0.001017306400268131
0.001017306415821142
0.001017306440752607
0.001017306428247303
0.001017306439517168
0.001017306431477999
0.001017306404858006
0.001017306440412964
0.00101730642214367
0.001017306402500941
0.001017306440892583
0.001017306422393955
0.001017306403798146
0.001017306442115023
0.001017306424041032
0.001017306404973265
0.001017306443768844
0.001017306426896871
0.00101730640870381
0.001017306444103527
0.001017306426695148
0.001017306403625657
0.001017306442451254
0.001017306423169509
0.001017306402879922
0.001017306439790854
0.001017306419087698
0.001017306397913399
0.001271490859255315
0.001271490847967446
0.00127149083596155
0.00127149086253685
0.001271490847578593
0.001271490835993138
0.001271490862000851
0.00127149084601645
0.001271490837645097
0.001271490867403818
0.001271490827605088
0.001271490851235183
0.001271490868089398
0.001271490827968712
0.001271490851748692
0.001271490865253254
0.001271490830826416
0.001271490847319841
0.001271490853563785
0.001271490846073225
0.001271490853690759
0.001271490852432405
0.001271490846101152
0.001271490850803435
0.001271490857820469
0.001271490854568244
0.00127149086232022
0.001271490828752866
0.001271490850453832
0.00127149086113572
0.001271490827924794
0.00127149084511682
0.001271490859167774
0.001271490851835883
0.001271490862755091
0.001271490836777675
0.00127149084446331
0.001271490860521005
0.00127149084576667
0.001271490834819543
0.001271490860874384
0.001271490846131697
0.001271490835944636
0.00127149086233286
0.001271490847876647
0.001271490837080076
0.001271490863313587
0.001271490849486279
0.001271490838359173
0.001271490863627848
0.001271490849022708
0.001271490836945425
0.001271490862861891
0.001271490847072918
0.001271490835280953
0.001271490860024583
0.001271490843136167
0.001271490831495715
0.001564648482647276
0.00156464847427803
0.001564648466452819
0.001564648486688763
0.001564648474354505
0.001564648467193954
0.001564648486500858
0.001564648473125879
0.001564648467986629
0.001564648490262473
0.001564648460186468
0.001564648476866632
0.001564648489733663
0.00156464846461871
0.001564648478607182
0.001564648480021745
0.001564648473906683
0.00156464847842554
0.001564648474308186
0.001564648466580076
0.001564648480946013
0.001564648476178173
0.001564648466180674
0.001564648482836514
0.00156464847503322
0.001564648464995119
0.001564648477230533
0.00156464847038988
0.0015646484747096
0.001564648474863861
0.0015646484670355
0.001564648466773171
0.001564648475628336
0.001564648477194457
0.001564648484061181
0.001564648461346101
0.001564648471033886
0.001564648482921873
0.001564648469898022
0.001564648464043514
0.001564648483062929
0.001564648471864941
0.001564648464597356
0.001564648484838607
0.00156464847221018
0.001564648466103265
0.001564648485049886
0.001564648474965823
0.001564648467037046
0.001564648485776783
0.00156464847466102
0.001564648467101013
0.001564648486021977
0.001564648472924997
0.001564648464809217
0.001564648483168831
0.001564648469421392
0.001564648461308597
0.001902669354652168
0.001902669347671356
0.00190266934183026
0.001902669359852523
0.001902669348623223
0.00190266934326165
0.001902669359969658
0.001902669347677739
0.00190266934326629
0.001902669362273092
0.001902669336281748
0.001902669349016369
0.001902669359178696
0.001902669351447667
0.001902669358412711
0.001902669340210726
0.00190266934929111
0.001902669351578282
0.001902669344078518
0.001902669337620123
0.00190266935361372
0.001902669349085031
0.0019026693400701
0.001902669358856854
0.001902669334171796
0.00190266933763621
0.001902669345875637
0.001902669342449373
0.001902669352963821
0.001902669332691024
0.001902669340773974
0.001902669350578416
0.001902669334090328
0.001902669344554862
0.001902669352087274
0.001902669339175134
0.001902669337845817
0.001902669356041334
0.001902669333749968
0.00190266934262166
0.001902669353594304
0.001902669344942639
0.001902669338822119
0.001902669358240105
0.001902669336205374
0.001902669344839396
0.001902669355616926
0.001902669345844914
0.001902669346368118
0.001902669356805102
0.001902669345959949
0.001902669347044634
0.00190266935794766
0.001902669344789267
0.00190266933969627
0.001902669354964565
0.001902669343243048
0.00190266933549765
0.002301414878606369
0.002301414871392292
0.002301414865917761
0.002301414884858637
0.00230141487346532
0.002301414868105977
0.002301414885755091
0.002301414872866546
0.00230141486745717
0.002301414886245157
0.002301414859103639
0.0023014148721864
0.002301414884284206
0.002301414881106691
0.002301414885032568
0.002301414856820681
0.002301414868991063
0.002301414874228047
0.002301414865946677
0.002301414865813562
0.00230141487787881
0.002301414871527047
0.002301414862695501
0.002301414880409256
0.002301414858146898
0.00230141485868738
0.002301414867882857
0.002301414865364818
0.00230141487633951
0.002301414849743472
0.002301414863896665
0.002301414875955275
0.002301414850781912
0.002301414864794616
0.002301414873960839
0.002301414861791481
0.002301414858573352
0.002301414878870434
0.002301414854241858
0.002301414866198723
0.002301414877160871
0.002301414863813165
0.002301414867397002
0.002301414881886292
0.002301414856248297
0.002301414868960118
0.002301414880233292
0.002301414864380083
0.002301414870761021
0.002301414882251764
0.002301414862854244
0.002301414872042507
0.002301414884826295
0.002301414859136913
0.002301414868706461
0.002301414879029623
0.002301414867850216
0.002301414858661741
0.002786997971500435
0.002786997962472859
0.002786997955899391
0.002786997978525702
0.002786997965645657
0.002786997959567683
0.002786997980648591
0.002786997964164404
0.002786997958462175
0.002786997978920032
0.00278699794658241
0.002786997962884844
0.002786997978452096
0.002786997975276155
0.002786997978499898
0.002786997940841283
0.002786997956843802
0.002786997966054017
0.002786997956488719
0.002786997957604067
0.002786997971067584
0.002786997959945566
0.002786997950720867
0.002786997969322871
0.002786997953278071
0.002786997941070592
0.002786997959330852
0.00278699795697343
0.00278699796598592
0.002786997937349978
0.00278699795316537
0.002786997967261703
0.002786997935399509
0.002786997952685454
0.002786997964227252
0.002786997950057383
0.002786997945158019
0.002786997968845064
0.002786997943273385
0.002786997954937057
0.002786997969488098
0.002786997944633181
0.002786997958291346
0.002786997973384274
0.002786997942195672
0.002786997959002481
0.00278699797218307
0.002786997949817069
0.002786997960492161
0.002786997973790662
0.002786997954252529
0.00278699796216691
0.002786997978306653
0.002786997944991533
0.002786997960809691
0.002786997971380591
0.002786997958351261
0.002786997948687103
0.00339775918899726
0.003397759177158923
0.003397759167374102
0.003397759196549782
0.003397759181520606
0.003397759173790529
0.003397759205823831
0.003397759163935151
0.003397759181143442
0.003397759196233182
0.003397759157495845
0.003397759176348593
0.003397759197602839
0.003397759189754202
0.003397759196106233
0.003397759146593639
0.003397759168929341
0.003397759181924474
0.003397759169570042
0.003397759172440354
0.00339775918956793
0.003397759172284571
0.003397759159718761
0.003397759182846535
0.003397759169912929
0.003397759150713394
0.003397759175591976
0.003397759175627155
0.003397759180833162
0.003397759144389645
0.003397759164984643
0.00339775918262428
0.003397759139846489
0.003397759163623997
0.003397759178481827
0.003397759162111985
0.003397759151915491
0.00339775917880573
0.003397759166896085
0.003397759156134046
0.003397759185234443
0.003397759151003756
0.003397759170752326
0.003397759189149272
0.003397759148828618
0.003397759171151499
0.003397759188194536
0.003397759157129562
0.003397759172963339
0.00339775918830477
0.0033977591710084
0.003397759165248413
0.003397759196017044
0.003397759154181539
0.003397759176109706
0.003397759191275742
0.00339775915753132
0.003397759170295535
0.00417853167132943
0.004178531653127911
0.004178531641539936
0.004178531679199094
0.004178531660141024
0.004178531650625631
0.004178531693123991
0.004178531638665653
0.004178531662312285
0.004178531674190767
0.004178531652252754
0.004178531642690955
0.004178531683010776
0.004178531660445796
0.004178531678182352
0.004178531614489121
0.004178531645831434
0.004178531663668554
0.004178531640007598
0.004178531649813369
0.004178531673804566
0.004178531650207147
0.004178531632541689
0.004178531662478736
0.004178531632795639
0.00417853163626756
0.004178531655665665
0.004178531650261999
0.00417853166073367
0.004178531611387425
0.004178531639724589
0.004178531662575687
0.004178531602814135
0.004178531636723043
0.00417853165662915
0.004178531638425908
0.004178531621259394
0.00417853165601298
0.004178531637873588
0.004178531623510527
0.004178531661848751
0.004178531632340214
0.004178531643537391
0.004178531668359528
0.004178531616364333
0.004178531643152508
0.004178531665710495
0.004178531636682871
0.004178531646670616
0.004178531667965853
0.004178531642566012
0.004178531635832826
0.004178531677290252
0.004178531627884876
0.004178531651766582
0.004178531675428598
0.004178531620253003
0.00417853164930797
0.005179801489225015
0.005179801413046091
0.005179801456422073
0.005179801489435857
0.005179801449295128
0.005179801465275045
0.005179801501457066
0.005179801468536237
0.005179801461739665
0.005179801488566548
0.005179801433243769
0.005179801454684204
0.005179801491209338
0.005179801454514589
0.005179801481850788
0.005179801414389326
0.005179801448523601
0.005179801474803452
0.005179801403727117
0.005179801447083018
0.005179801482779496
0.005179801448607754
0.005179801432394744
0.005179801477572438
0.005179801384920609
0.005179801418763244
0.005179801468142581
0.005179801415569444
0.005179801464165697
0.005179801399840939
0.00517980143688459
0.005179801466583965
0.005179801383258051
0.005179801431258616
0.005179801462025039
0.005179801418282186
0.005179801429861968
0.005179801457245281
0.005179801428704381
0.005179801409923739
0.005179801461387891
0.005179801426980216
0.005179801416620828
0.005179801462801202
0.005179801428953914
0.005179801416458353
0.005179801466066378
0.005179801432453188
0.005179801422997241
0.005179801480281432
0.005179801401626196
0.005179801442417874
0.005179801473301992
0.005179801446645769
0.005179801425919865
0.005179801476124637
0.005179801426174287
0.00517980144861299
0.006424032906442496
0.006424032776049356
0.006424032857771537
0.006424032916882252
0.006424032783978502
0.006424032864916709
0.00642403292283086
0.006424032912676863
0.006424032842317888
0.006424032883913871
0.006424032873889931
0.006424032818465181
0.00642403289552504
0.006424032850910037
0.006424032902385591
0.006424032765567289
0.006424032846269426
0.006424032894114581
0.006424032760348809
0.006424032839992026
0.006424032894645876
0.006424032846993371
0.006424032814137007
0.006424032895414336
0.006424032742743911
0.006424032794049041
0.006424032870853927
0.006424032794080452
0.006424032882123381
0.006424032743804525
0.006424032827758186
0.006424032879161472
0.00642403274441733
0.006424032823845602
0.006424032879178143
0.006424032749977564
0.006424032820946356
0.006424032863758319
0.00642403281840735
0.006424032781212375
0.006424032867118768
0.006424032815035526
0.006424032788120699
0.006424032870202743
0.006424032820866171
0.006424032787537722
0.006424032872908687
0.006424032823760176
0.006424032796411205
0.006424032896050485
0.006424032755400958
0.006424032835732397
0.006424032880618417
0.006424032829552507
0.006424032796226553
0.006424032876985421
0.006424032833062173
0.006424032801590122
0.007787422893606016
0.007787422687647845
0.007787422816569706
0.007787422907803813
0.007787422688928979
0.00778742282218438
0.007787422911804304
0.007787422905006692
0.007787422935824602
0.007787422759154681
0.007787422814725227
0.007787422749601302
0.007787422838131576
0.00778742280838959
0.007787422892106941
0.007787422665859241
0.007787422802286752
0.007787422885142349
0.007787422665638354
0.007787422794633727
0.007787422879248875
0.007787422795683977
0.007787422799371816
0.007787422858817485
0.007787422738492101
0.007787422663463166
0.007787422795324231
0.00778742279979062
0.007787422862518801
0.007787422659634872
0.007787422767852098
0.007787422857913168
0.007787422654768767
0.007787422765271774
0.007787422849253592
0.007787422682404453
0.007787422764479755
0.007787422835963992
0.007787422757085571
0.007787422708420687
0.007787422838624767
0.007787422761985041
0.007787422711238708
0.007787422845017175
0.007787422762132036
0.007787422715583953
0.007787422846388149
0.007787422773922408
0.007787422727572306
0.007787422882582782
0.007787422660637156
0.007787422787344483
0.007787422856074643
0.007787422779012657
0.007787422722122533
0.00778742285232419
0.007787422777819051
0.007787422729341297
0.009155289465518345
0.00915528918762115
0.009155289359724534
0.009155289482212283
0.009155289186647542
0.009155289358357202
0.009155289476375022
0.00915528947432352
0.009155289509594549
0.009155289241567359
0.009155289328625612
0.00915528944216883
0.009155289199928354
0.009155289342799992
0.009155289460651124
0.009155289165531648
0.009155289343718395
0.009155289459808943
0.009155289165156816
0.009155289334765717
0.009155289433821842
0.009155289326023773
0.009155289265534479
0.009155289438959633
0.009155289201960163
0.009155289260642288
0.009155289296005155
0.009155289301174759
0.009155289390703788
0.009155289295061982
0.009155289213113328
0.009155289384246038
0.009155289271590712
0.009155289212548537
0.009155289385658067
0.009155289276593592
0.009155289222819458
0.00915528942924447
0.009155289143891349
0.009155289297211284
0.009155289394689891
0.009155289281182744
0.009155289229212743
0.009155289437143511
0.009155289182221015
0.009155289307092083
0.009155289430325076
0.009155289214887282
0.009155289322799257
0.00915528945407911
0.009155289154886375
0.00915528932269912
0.0091552894167068
0.009155289315098774
0.00915528923506915
0.009155289412046791
0.009155289312395624
0.009155289246580621
0.01044963453046591
0.01044963419435431
0.01044963439879218
0.01044963455123857
0.01044963421498998
0.01044963438645858
0.01044963450757073
0.01044963446817548
0.01044963448809741
0.01044963432340192
0.0104496342676074
0.01044963451556936
0.01044963417668985
0.01044963436859604
0.01044963451531759
0.01044963417908659
0.01044963437380098
0.01044963452597209
0.01044963419260233
0.01044963437356753
0.01044963452272684
0.01044963422593988
0.01044963438000355
0.01044963442792167
0.01044963432614513
0.01044963445349583
0.010449634168263
0.01044963433189893
0.01044963448507999
0.0104496341447649
0.01044963431725337
0.0104496344360863
0.01044963430846993
0.01044963422768612
0.01044963443999028
0.01044963430292494
0.01044963424318741
0.0104496344951607
0.01044963413964932
0.01044963434477946
0.01044963448694443
0.01044963417061545
0.0104496343287906
0.01044963444995534
0.01044963431835136
0.01044963424517604
0.01044963445771806
0.01044963432502013
0.01044963426870449
0.01044963451687388
0.01044963415691933
0.01044963435557862
0.01044963447195348
0.01044963434903532
0.01044963425156356
0.0104496344662982
0.01044963434666842
0.01044963426598675
0.01161217513611002
0.01161217475651465
0.01161217497230018
0.01161217511920373
0.01161217500376446
0.01161217488922319
0.0116121750575102
0.01161217499281908
0.01161217512427064
0.01161217472816668
0.01161217494280117
0.01161217512323625
0.01161217472088379
0.01161217493295748
0.01161217506469271
0.01161217491128112
0.01161217483761697
0.01161217508681761
0.01161217497211292
0.01161217485291167
0.01161217501851518
0.01161217493480155
0.01161217509451218
0.01161217474924255
0.01161217490229591
0.0116121750308211
0.01161217487258625
0.01161217480617956
0.01161217508621952
0.01161217471307526
0.01161217490241516
0.01161217506408508
0.01161217480465587
0.01161217491283035
0.01161217509499964
0.01161217471065903
0.01161217492530839
0.01161217510499412
0.0116121747039724
0.01161217493434932
0.01161217510560487
0.01161217470418995
0.01161217491405677
0.01161217504756769
0.01161217491235043
0.01161217481160642
0.01161217508802908
0.01161217480885729
0.0116121749412198
0.01161217512594856
0.01161217472003271
0.01161217493990651
0.01161217507262045
0.01161217491906666
0.01161217482985673
0.01161217506637712
0.01161217493169128
0.01161217483845501
0.01259718224546892
0.01259718185904134
0.01259718205169085
0.01259718221082169
0.01259718218396441
0.01259718223478343
0.01259718188589222
0.01259718205434393
0.0125971822338886
0.01259718180328528
0.01259718204524318
0.01259718223634201
0.01259718180185736
0.01259718202935217
0.01259718217781903
0.01259718201228197
0.0125971819006612
0.01259718217103005
0.01259718215954138
0.01259718220203822
0.01259718185197535
0.01259718202171857
0.01259718220744948
0.01259718178297536
0.01259718200326272
0.01259718219021678
0.01259718180406562
0.01259718197970875
0.01259718214525661
0.01259718200039627
0.0125971818869699
0.01259718214066368
0.01259718199014604
0.01259718190599449
0.01259718221545901
0.01259718178922223
0.01259718202934032
0.01259718222072847
0.01259718178919131
0.01259718202864412
0.01259718221806918
0.01259718180251515
0.01259718200569095
0.01259718215787937
0.0125971820127176
0.01259718189457505
0.01259718215976316
0.01259718201369626
0.01259718193032757
0.01259718224044612
0.01259718181212592
0.01259718205041915
0.01259718223571079
0.01259718185101904
0.01259718202900549
0.01259718217923475
0.0125971820319909
0.01259718192581799
0.01336925925031087
0.01336925914590237
0.0133692590370816
0.01336925923123345
0.01336925914763562
0.01336925929875561
0.01336925885659689
0.01336925907680444
0.01336925927532161
0.01336925885235631
0.01336925907948151
0.01336925928917888
0.01336925884639681
0.01336925908359175
0.01336925929380998
0.01336925892657302
0.01336925907138115
0.01336925917731084
0.01336925916449815
0.01336925926931088
0.01336925882738769
0.01336925904768739
0.01336925924513947
0.01336925881954924
0.01336925902495904
0.01336925918307271
0.01336925901637259
0.01336925893526878
0.01336925925685492
0.01336925883500736
0.0133692590336464
0.01336925919833892
0.01336925902959524
0.01336925895061052
0.0133692592743391
0.01336925883109782
0.01336925907308829
0.01336925927716734
0.01336925882624944
0.01336925905901507
0.01336925921756972
0.01336925902795511
0.01336925895006669
0.01336925921091566
0.01336925906151949
0.01336925893746296
0.01336925921227965
0.0133692590664288
0.01336925896510275
0.01336925929767749
0.0133692588562433
0.01336925909582926
0.01336925929819819
0.01336925887944138
0.01336925907967133
0.01336925923689666
0.01336925908044301
0.0133692589531095
0.01390044791118265
0.01390044792310289
0.01390044798166167
0.0139004476343327
0.01390044778203132
0.0139004479790724
0.01390044752325656
0.01390044774060171
0.01390044790195744
0.01390044773205847
0.01390044764950012
0.01390044797103259
0.0139004475487491
0.01390044773208804
0.01390044789967868
0.01390044786375806
0.01390044789058919
0.01390044778249081
0.01390044764664352
0.01390044794062568
0.01390044751006194
0.01390044771022405
0.01390044787294243
0.01390044770004337
0.01390044761021725
0.01390044787623377
0.01390044772720944
0.01390044762479978
0.01390044796110377
0.01390044751754847
0.01390044774877984
0.01390044796070855
0.01390044753577181
0.01390044775347387
0.01390044797509828
0.01390044752641832
0.01390044776302154
0.01390044797574099
0.01390044752620504
0.0139004477624347
0.0139004479742031
0.01390044754593089
0.0139004477395459
0.01390044790854511
0.01390044775685557
0.01390044763047574
0.01390044790758537
0.01390044776008004
0.01390044765658572
0.01390044799412445
0.01390044754631686
0.01390044776872547
0.01390044793102317
0.01390044776229108
0.01390044767358913
0.01390044793961059
0.01390044778102999
0.01390044762003609
0.01416607111489258
0.01416607115243047
0.01416607124258417
0.01416607080598704
0.01416607100433566
0.01416607121696169
0.01416607077362607
0.01416607098522122
0.01416607115338644
0.01416607100809722
0.01416607087290788
0.01416607115162823
0.01416607102752591
0.01416607090512177
0.01416607109809104
0.01416607112184558
0.01416607120357029
0.01416607081058874
0.01416607095257526
0.01416607112038647
0.01416607094967891
0.01416607086160707
0.01416607112366749
0.01416607097605319
0.01416607085769985
0.01416607112867124
0.01416607098446022
0.01416607088290487
0.01416607121553353
0.01416607078092702
0.01416607100487719
0.01416607122178431
0.01416607078666715
0.01416607101119133
0.01416607122736456
0.01416607078837536
0.01416607101224761
0.0141660712268664
0.01416607079070352
0.01416607101138597
0.01416607122348526
0.01416607081038979
0.01416607099362418
0.01416607116088455
0.01416607101208925
0.01416607088701249
0.01416607115931424
0.01416607101433567
0.01416607091124827
0.01416607124415491
0.01416607080498008
0.0141660710142456
0.01416607117861244
0.01416607103285576
0.01416607092163973
0.01416607120473774
0.01416607108375811
0.01416607091248603
0.01417485618319823
0.01417485630246562
0.01417485648078445
0.01417485605368698
0.01417485625271691
0.01417485646603294
0.01417485604366408
0.01417485624154343
0.01417485641418734
0.01417485630081642
0.01417485614476732
0.01417485635807069
0.01417485634833636
0.01417485643391421
0.01417485615810241
0.01417485626403487
0.01417485639221783
0.01417485622687355
0.0141748561283885
0.01417485638054984
0.01417485623926115
0.01417485612651644
0.01417485638753399
0.01417485624790437
0.01417485613043048
0.01417485639172412
0.01417485625406825
0.01417485615703888
0.01417485647758223
0.01417485606274999
0.01417485627024999
0.0141748564846467
0.01417485606706438
0.01417485627429081
0.0141748564868919
0.01417485606964085
0.01417485627215651
0.01417485647845279
0.0141748560848163
0.01417485625782484
0.01417485642111043
0.01417485625939439
0.01417485617163064
0.01417485642320983
0.01417485628151493
0.01417485616126706
0.01417485642343808
0.01417485628273944
0.01417485618323979
0.01417485650328314
0.0141748560824656
0.01417485627353662
0.01417485643323909
0.01417485629026523
0.01417485617145592
0.01417485644608635
0.01417485641172206
0.01417485647668897
0.01393598797411622
0.01393598810880746
0.01393598830540837
0.01393598790868258
0.01393598809119357
0.01393598829743114
0.01393598790001502
0.01393598806834481