/*--------------------------------*- C++ -*----------------------------------*\
| =========                 |                                                 |
| \\      /  F ield         | OpenFOAM: The Open Source CFD Toolbox           |
|  \\    /   O peration     | Version:  v1812                                 |
|   \\  /    A nd           | Web:      www.OpenFOAM.com                      |
|    \\/     M anipulation  |                                                 |
\*---------------------------------------------------------------------------*/
FoamFile
{
    version     2.0;
    format      ascii;
    class       volScalarField;
    location    "10000";
    object      nuTilda_0;
}
// * * * * * * * * * * * * * * * * * * * * * * * * * * * * * * * * * * * * * //

dimensions      [0 2 -1 0 0 0 0];


internalField   nonuniform List<scalar> 
2494
(
0.0004959734110503389
0.0004959734107051044
0.0004959734107984284
0.0004959734106652584
0.0004959734113006832
0.0004959734106452278
0.0004959734111354095
0.0004959734113268362
0.0004959734105520371
0.0004959734107821326
0.0004959734111740011
0.0004959734107146423
0.0004959734108613582
0.0004959734110399319
0.0004959734106980038
0.0004959734110231346
0.0004959734116425271
0.0004959734109838332
0.0004959734105664249
0.0004959734104383359
0.0004959734105196618
0.0004959734113098478
0.0004959734112596237
0.0004959734103769089
0.0004959734107364718
0.0004959734108095663
0.0004959734113585685
0.0004959734105983685
0.0004959734105693363
0.0004959734110985927
0.0004959734110197787
0.0004959734109741844
0.0004959734107799239
0.0004959734110942779
0.0004959734110884245
0.0004959734104656113
0.0004959734107495771
0.000495973410792105
0.0004959734110417057
0.0004959734114278106
0.000495973411010332
0.0004959734105249456
0.0004959734108197291
0.0004959734105585851
0.0004959734113638331
0.0004959734106458803
0.0004959734115249937
0.0004959734114497388
0.0004959734104555689
0.0004959734107414879
0.0004959734115660093
0.0004959734109913927
0.0004959734106353501
0.000495973410514383
0.0004959734115852973
0.0004959734106149011
0.0004959734104325336
0.0004959734116496575
0.000371495103825023
0.000371495101850707
0.0003714951013179735
0.0003714951039697405
0.0003714951063833449
0.0003714951025360513
0.0003714951075554026
0.0003714951062059821
0.0003714951029217562
0.0003714951025889051
0.000371495108094245
0.0003714951022864668
0.0003714951050309964
0.0003714951040163635
0.0003714951044598709
0.0003714951045059319
0.0003714951137603807
0.0003714951047024225
0.0003714951018020166
0.0003714950993573502
0.0003714950999802026
0.000371495109716171
0.0003714951048906056
0.0003714950963874181
0.0003714951044667606
0.0003714951046043699
0.0003714951137921453
0.0003714950931122367
0.0003714951004762039
0.0003714951061239975
0.0003714951038912559
0.0003714950997733717
0.000371495105781923
0.0003714951064258727
0.0003714951071202985
0.0003714950969373185
0.0003714951048205558
0.0003714951057829532
0.0003714951035101889
0.0003714951068343794
0.0003714951020516026
0.0003714950955967234
0.0003714951007482992
0.0003714951017802446
0.000371495105555393
0.000371495101188572
0.0003714951133714159
0.000371495109106796
0.0003714950941667828
0.0003714951028741544
0.0003714951095465941
0.0003714951049006614
0.0003714950999901218
0.0003714950975670859
0.0003714951116043156
0.0003714951005570404
0.0003714950987245951
0.0003714951123980549
0.0005086220270902951
0.0005086220184437296
0.0005086219858149597
0.000508622027937442
0.0005086220119657817
0.0005086219886033021
0.0005086220288692839
0.000508622018733731
0.0005086219850753522
0.0005086220263873664
0.0005086220132422919
0.0005086219873909728
0.0005086220270816516
0.0005086220117235889
0.0005086219888721877
0.0005086220272762059
0.0005086220140833101
0.0005086219888466114
0.0005086220342039553
0.0005086219798222188
0.0005086220087424635
0.0005086220275374217
0.0005086220179378982
0.000508621981831962
0.0005086220274948103
0.0005086220266788516
0.0005086220368908697
0.0005086219800015479
0.0005086220093058864
0.0005086220284289568
0.0005086220242155705
0.0005086219817592983
0.0005086220253745733
0.0005086220266304957
0.000508622035036762
0.0005086219791996138
0.0005086220096969268
0.0005086220293978413
0.0005086220266588921
0.0005086219868614417
0.0005086220343769116
0.0005086219791775417
0.00050862200948407
0.0005086220279638693
0.0005086220196557951
0.0005086219861031664
0.0005086220302861979
0.0005086220134980996
0.0005086219902076536
0.0005086220288977604
0.0005086220139958379
0.000508621990773914
0.0005086220359025026
0.0005086219823067007
0.0005086220139589746
0.0005086220355539717
0.0005086219801423692
0.000508622008269526
0.0006570233490414645
0.0006570233306488463
0.0006570232964559475
0.0006570233609814599
0.0006570232842158726
0.0006570233259290329
0.0006570233512696292
0.0006570233286561081
0.0006570232946854674
0.0006570233578341031
0.0006570232877899446
0.000657023322722404
0.0006570233593193479
0.0006570232860820767
0.0006570233245135822
0.0006570233583081348
0.0006570232883968315
0.0006570233213496814
0.0006570233495504416
0.0006570233224460654
0.0006570232971422495
0.0006570233484408533
0.0006570233304943151
0.0006570232918094851
0.0006570233520966441
0.0006570233413162407
0.0006570233518318248
0.0006570233313373848
0.0006570232983670036
0.0006570233510004212
0.0006570233315386824
0.0006570232888979052
0.0006570233496225968
0.0006570233486674589
0.0006570233500648552
0.0006570233235420352
0.0006570232996948536
0.0006570233524908895
0.0006570233335305735
0.0006570232948085818
0.0006570233512477493
0.0006570233233276729
0.0006570233003740574
0.0006570233528100586
0.000657023333384542
0.0006570232989594291
0.0006570233653190862
0.000657023288639592
0.0006570233360420672
0.0006570233649111516
0.0006570232879183436
0.0006570233299473346
0.0006570233536349109
0.0006570233257549907
0.0006570233013106451
0.0006570233519485156
0.0006570233223219871
0.000657023294341799
0.0008083914829578983
0.0008083914172862092
0.0008083914574307109
0.0008083914872497343
0.0008083914123947917
0.000808391460330841
0.0008083914871483991
0.0008083914131928703
0.0008083914536617357
0.0008083914744505606
0.0008083914596004736
0.0008083914225826378
0.0008083914767427011
0.0008083914570053626
0.0008083914257866448
0.0008083914755473362
0.0008083914622810727
0.000808391423954091
0.0008083914847675421
0.0008083914180718013
0.0008083914543403419
0.0008083914807490521
0.0008083914208799753
0.0008083914548770904
0.0008083914917690701
0.0008083914303531282
0.0008083914770349551
0.000808391464279888
0.0008083914454032216
0.0008083914852036774
0.0008083914197846262
0.0008083914497155947
0.0008083914779624665
0.000808391473549231
0.0008083914857530012
0.0008083914222395832
0.0008083914613996923
0.0008083914883025788
0.0008083914199198183
0.0008083914583097815
0.000808391489253785
0.0008083914179827584
0.0008083914607796233
0.0008083914899136153
0.0008083914215634692
0.0008083914617174324
0.000808391493746177
0.0008083914173295825
0.0008083914727581941
0.0008083914937269566
0.0008083914174287976
0.0008083914667115688
0.0008083914915498561
0.0008083914199533539
0.0008083914613907211
0.0008083914896340592
0.0008083914157564314
0.0008083914532853744
0.001017306302975082
0.001017306250406399
0.001017306282393214
0.001017306306004305
0.001017306248553247
0.001017306282560833
0.001017306305551937
0.001017306246452758
0.001017306279472862
0.001017306297079079
0.001017306279459507
0.001017306259352756
0.0010173062982269
0.001017306278817611
0.001017306260573391
0.001017306298062493
0.001017306285061031
0.001017306258316153
0.001017306293979077
0.001017306275770118
0.001017306265943398
0.001017306289103345
0.001017306274585215
0.00101730626622024
0.001017306309412197
0.001017306268674403
0.001017306297517062
0.001017306281225733
0.001017306263359556
0.001017306297261138
0.001017306273000827
0.001017306262590187
0.001017306305792634
0.001017306271260463
0.00101730629558631
0.00101730627547474
0.001017306287446247
0.001017306305516671
0.001017306249451389
0.001017306282638808
0.001017306306177676
0.001017306249296636
0.00101730628383187
0.00101730630714214
0.001017306251491999
0.001017306285326461
0.001017306309150101
0.001017306252552149
0.001017306288369852
0.001017306309192889
0.001017306251574609
0.001017306285537916
0.001017306307825973
0.00101730624993554
0.001017306283233799
0.001017306305336098
0.001017306245608597
0.001017306278222869
0.001271490772191693
0.001271490735724197
0.001271490758214572
0.001271490775256164
0.001271490734279774
0.001271490758543054
0.001271490775318979
0.00127149073262011
0.001271490756465652
0.001271490769029048
0.001271490755167475
0.001271490743984487
0.001271490770322618
0.001271490754738536
0.001271490744769173
0.001271490769442705
0.001271490757651526
0.001271490741467383
0.001271490759812638
0.001271490757766563
0.001271490759458435
0.001271490756016746
0.001271490759293814
0.001271490747163738
0.001271490766872885
0.001271490760421173
0.001271490765573498
0.001271490753623073
0.001271490745276184
0.001271490766135425
0.001271490752281947
0.001271490743116267
0.001271490772214496
0.001271490747411853
0.001271490766913241
0.001271490752941125
0.001271490747216156
0.001271490772997793
0.001271490733702464
0.001271490757293113
0.001271490773870712
0.00127149073335688
0.001271490758054804
0.001271490774751334
0.001271490735955783
0.001271490759494746
0.001271490776154067
0.001271490736703198
0.001271490760681245
0.001271490776435877
0.001271490735985184
0.001271490759742063
0.001271490775863251
0.001271490734244556
0.001271490757945044
0.00127149077346691
0.001271490730057765
0.001271490754017489
0.001564648418167215
0.001564648391279725
0.001564648408018142
0.001564648421853303
0.001564648391091217
0.001564648408885646
0.001564648422337584
0.001564648389298404
0.001564648407125689
0.00156464841678072
0.001564648406872898
0.001564648398265867
0.001564648418238903
0.001564648405628605
0.001564648399987742
0.001564648414649142
0.001564648407417171
0.001564648409491843
0.001564648395623316
0.001564648407395244
0.001564648412921052
0.001564648395245187
0.001564648405420457
0.001564648414930857
0.00156464840084565
0.001564648405262882
0.001564648407817934
0.00156464839961205
0.001564648407906397
0.001564648410827752
0.001564648392627327
0.001564648402834648
0.001564648408527856
0.00156464840482628
0.001564648413470602
0.00156464840070854
0.00156464839555413
0.001564648416900314
0.001564648390489182
0.00156464840470591
0.001564648418244555
0.001564648388581812
0.001564648405812124
0.001564648418748984
0.001564648392863208
0.00156464840670972
0.001564648419705977
0.001564648393443722
0.001564648407700423
0.001564648420497195
0.001564648392777733
0.001564648407810332
0.00156464842117994
0.001564648390233828
0.001564648407055175
0.001564648419063324
0.001564648385614363
0.001564648403517202
0.001902669301565023
0.001902669278888483
0.001902669292968187
0.001902669306258594
0.001902669280545087
0.001902669294595785
0.001902669306723826
0.001902669278392091
0.00190266929279156
0.001902669301082829
0.001902669293703217
0.001902669284651139
0.001902669302245767
0.001902669291254051
0.0019026692953243
0.001902669294985079
0.001902669293614102
0.001902669297416501
0.001902669276397207
0.001902669287318896
0.001902669296621905
0.001902669282619256
0.001902669290527382
0.00190266930192651
0.001902669288315429
0.00190266927680764
0.001902669287618371
0.001902669277573227
0.001902669293924531
0.001902669286945053
0.001902669276555199
0.001902669291896146
0.001902669286570832
0.001902669281324164
0.001902669298521491
0.001902669275761821
0.00190266928451635
0.001902669295696084
0.001902669287268399
0.001902669281623004
0.001902669298485053
0.001902669279842232
0.001902669287668427
0.001902669297576715
0.001902669289900822
0.001902669283954872
0.001902669299551262
0.001902669286134915
0.001902669285284934
0.001902669300623523
0.001902669286937635
0.001902669285775588
0.001902669303339323
0.001902669280172919
0.00190266929057148
0.001902669301412552
0.00190266927468145
0.001902669287867664
0.002301414824106234
0.002301414800368343
0.002301414815396584
0.002301414829926179
0.002301414804003545
0.002301414817370939
0.002301414830273676
0.002301414803032605
0.002301414815605009
0.00230141482377976
0.002301414815410506
0.002301414805430485
0.002301414824888538
0.002301414818550672
0.002301414822110512
0.002301414812957926
0.002301414806904445
0.002301414816778724
0.002301414802740467
0.00230141480165538
0.002301414819418713
0.002301414803868613
0.002301414812829933
0.002301414825452671
0.002301414801134188
0.002301414795049241
0.002301414807126354
0.002301414797247092
0.002301414814702415
0.002301414803470273
0.002301414796992805
0.002301414813659103
0.002301414804530968
0.002301414799731681
0.002301414819950575
0.002301414793000253
0.002301414805875927
0.002301414816514312
0.002301414808710425
0.002301414800460682
0.002301414817949534
0.002301414804920106
0.002301414802112111
0.00230141481859197
0.002301414811957915
0.002301414803312759
0.00230141482070676
0.002301414808653008
0.002301414804997988
0.002301414822503419
0.002301414810262847
0.002301414805188066
0.002301414822424218
0.002301414813084152
0.00230141480589586
0.002301414823319247
0.002301414798460965
0.002301414809851622
0.002786997907372168
0.002786997878836741
0.002786997897554934
0.002786997914385751
0.002786997884102871
0.00278699789947688
0.002786997914800295
0.002786997888505793
0.002786997897092903
0.002786997906150378
0.002786997894311625
0.002786997883961786
0.002786997908793633
0.002786997903197828
0.00278699790622919
0.002786997890701155
0.002786997881771007
0.002786997897414144
0.002786997882438618
0.002786997879915608
0.002786997904347774
0.002786997879611797
0.002786997893533669
0.002786997907463963
0.002786997873528044
0.002786997882592374
0.002786997888415444
0.002786997876810016
0.002786997894902622
0.002786997880301277
0.002786997874340792
0.00278699789372079
0.002786997883556002
0.002786997876948376
0.002786997901008851
0.002786997867646237
0.002786997885084181
0.002786997896877267
0.002786997888141804
0.002786997878680552
0.002786997899187512
0.002786997884670993
0.002786997878943265
0.002786997899820533
0.002786997890837637
0.00278699788115428
0.002786997902327941
0.002786997888338232
0.002786997883462501
0.00278699790474807
0.002786997889585885
0.002786997884877958
0.002786997905044127
0.002786997893587008
0.002786997884206277
0.002786997904599016
0.002786997884775144
0.002786997890249176
0.003397759102872584
0.003397759067273424
0.003397759090577992
0.003397759111221277
0.003397759072508813
0.003397759093604422
0.00339775911046468
0.00339775909368504
0.003397759080233214
0.003397759100556245
0.003397759083351167
0.003397759072730981
0.003397759106131275
0.003397759096460734
0.003397759101281614
0.003397759080448893
0.0033977590681258
0.003397759089844294
0.003397759071974542
0.003397759069134501
0.00339775910410513
0.003397759064051716
0.003397759083758936
0.003397759095752834
0.003397759073029712
0.003397759074264295
0.003397759080631497
0.003397759078923088
0.003397759086918809
0.003397759068000698
0.003397759060288467
0.003397759085215145
0.003397759072258038
0.003397759063051434
0.003397759093762305
0.003397759052033047
0.003397759075033951
0.003397759090691223
0.003397759068958336
0.003397759075705192
0.003397759092259162
0.003397759073842814
0.003397759065551385
0.003397759092827331
0.003397759080290805
0.003397759068166836
0.003397759095797836
0.003397759078235388
0.003397759071187346
0.003397759103131984
0.003397759066381281
0.003397759082897903
0.003397759100011015
0.003397759085013438
0.003397759072950515
0.003397759098631099
0.003397759079160869
0.003397759071938574
0.00417853155061061
0.004178531517362605
0.004178531534377445
0.004178531561731954
0.004178531513080558
0.00417853154090322
0.004178531565094437
0.004178531537584838
0.004178531524713726
0.004178531553956439
0.004178531514969175
0.004178531529358318
0.004178531568687287
0.004178531523784479
0.004178531549925819
0.00417853152192053
0.004178531506590544
0.004178531536247501
0.004178531514452909
0.004178531509857899
0.004178531559122492
0.004178531505143535
0.004178531528183251
0.004178531541555182
0.004178531513578962
0.004178531510157285
0.004178531525359678
0.004178531525132239
0.00417853153284956
0.004178531507537185
0.00417853149706435
0.00417853153032799
0.004178531510715288
0.00417853149864451
0.004178531537661095
0.004178531497639965
0.004178531516341119
0.004178531540037263
0.004178531491948172
0.004178531518870292
0.004178531538944885
0.004178531511412818
0.004178531504479836
0.004178531539381572
0.004178531519854089
0.00417853150691162
0.004178531543228387
0.004178531516405114
0.004178531509708978
0.004178531551183442
0.004178531503315513
0.004178531525756281
0.004178531548192754
0.004178531530926751
0.004178531513855113
0.00417853154772463
0.00417853152289975
0.004178531510209016
0.005179801310930964
0.005179801285305831
0.005179801268031164
0.005179801317200526
0.005179801287956035
0.005179801280790485
0.005179801344557572
0.005179801267364477
0.005179801303200174
0.005179801316308521
0.005179801286568038
0.005179801272631099
0.005179801342730417
0.005179801268205307
0.00517980131196478
0.005179801269084093
0.005179801255871924
0.005179801295588081
0.005179801269697108
0.005179801257450972
0.005179801329903477
0.005179801250062288
0.005179801289187112
0.005179801307974557
0.00517980126312521
0.00517980121842665
0.005179801279073323
0.005179801279448662
0.005179801292610975
0.005179801254884457
0.005179801242323466
0.005179801288138849
0.005179801259697662
0.005179801240671156
0.005179801293034258
0.005179801256526828
0.00517980124854233
0.00517980130330808
0.005179801222352443
0.005179801272646743
0.005179801309421799
0.005179801226897536
0.00517980127413008
0.005179801308879994
0.005179801232134055
0.005179801275280215
0.005179801313780298
0.005179801231651952
0.00517980127312039
0.0051798013017711
0.00517980127633899
0.005179801258978833
0.005179801313608962
0.005179801262839842
0.005179801282953999
0.005179801309014076
0.005179801271747544
0.005179801259527403
0.006424032592097915
0.006424032550705627
0.006424032512806323
0.006424032599544862
0.006424032555681632
0.006424032530472584
0.006424032622873145
0.006424032566432825
0.006424032583143044
0.006424032611034479
0.006424032540757334
0.006424032582735372
0.006424032628475283
0.006424032514269276
0.006424032591528697
0.006424032529937646
0.006424032502371057
0.006424032576417111
0.006424032534014228
0.006424032505434982
0.006424032617770991
0.006424032490001435
0.006424032557388643
0.006424032597515126
0.006424032519701512
0.006424032450890215
0.006424032542993219
0.006424032543431298
0.006424032568898684
0.006424032512316611
0.006424032484488209
0.006424032565349993
0.006424032519670434
0.006424032482700643
0.006424032569592777
0.006424032515966859
0.006424032490444156
0.006424032586585051
0.006424032455488528
0.006424032538285761
0.006424032595842597
0.006424032453024314
0.006424032541142995
0.006424032595785398
0.006424032460947505
0.006424032542180957
0.006424032599948982
0.006424032459314616
0.00642403253693469
0.00642403257992295
0.006424032533540821
0.006424032507116878
0.006424032607800561
0.006424032468060912
0.006424032551249377
0.006424032600610544
0.00642403248240075
0.006424032539644305
0.007787422372272139
0.007787422306609035
0.007787422243760698
0.007787422381259097
0.007787422310025052
0.007787422264286278
0.007787422411867615
0.007787422359704076
0.007787422415073499
0.007787422410433006
0.007787422229413622
0.007787422324719608
0.007787422402353856
0.00778742224171263
0.007787422369465909
0.007787422286353607
0.007787422231241886
0.007787422358671687
0.007787422287174833
0.007787422235373469
0.007787422379471578
0.007787422289470876
0.007787422268646671
0.007787422422579363
0.007787422188299144
0.00778742223239753
0.007787422290098913
0.007787422271794002
0.007787422340509696
0.007787422260356005
0.007787422212138313
0.007787422340041492
0.007787422261400216
0.007787422214313034
0.007787422344538595
0.007787422253700558
0.007787422217128125
0.007787422362182779
0.00778742219120679
0.007787422289639297
0.007787422381627018
0.007787422162469764
0.007787422293637427
0.007787422382209713
0.007787422183810021
0.007787422291439134
0.007787422380442418
0.007787422195239323
0.007787422286481667
0.007787422358486755
0.007787422285453301
0.007787422240392488
0.007787422399211931
0.007787422178593889
0.007787422312550807
0.007787422398017783
0.007787422174471937
0.007787422297308675
0.009155288736979357
0.00915528864751654
0.009155288564677412
0.009155288748657665
0.009155288648239834
0.009155288575192206
0.009155288778457973
0.009155288754634592
0.009155288787792069
0.009155288738211202
0.009155288547501163
0.009155288709346791
0.009155288656867676
0.009155288551881842
0.009155288731866933
0.00915528862671432
0.009155288550403906
0.009155288728016041
0.009155288628384562
0.00915528855930375
0.009155288778213007
0.00915528851868035
0.009155288656144588
0.009155288786527304
0.009155288569486173
0.009155288493022388
0.009155288610118493
0.009155288519286034
0.009155288713827489
0.009155288546517738
0.009155288612445241
0.009155288739158364
0.009155288457284796
0.009155288618318259
0.009155288742092333
0.009155288455148756
0.009155288603885561
0.009155288700887707
0.009155288596850228
0.009155288539753727
0.009155288743703692
0.009155288465226279
0.009155288616715792
0.009155288717295314
0.009155288625100946
0.009155288547635698
0.009155288722482389
0.009155288601011625
0.009155288550177547
0.00915528872083426
0.009155288623681968
0.009155288560554217
0.009155288774706446
0.009155288480351693
0.009155288657194208
0.009155288774942831
0.009155288472281906
0.009155288638415431
0.01044963361297382
0.01044963350640493
0.01044963341133616
0.01044963363658627
0.01044963350672389
0.01044963343150964
0.01044963366234348
0.01044963356567609
0.01044963366711777
0.01044963333413174
0.01044963346874074
0.01044963359055976
0.01044963349336266
0.01044963338507392
0.01044963360464952
0.01044963346899088
0.01044963340040062
0.01044963361289101
0.0104496334798648
0.0104496333992142
0.01044963362359742
0.01044963351244645
0.01044963343612512
0.01044963366203464
0.01044963337167321
0.01044963354453235
0.01044963344294115
0.01044963335267225
0.01044963356778481
0.01044963344399528
0.0104496333699816
0.01044963362013214
0.01044963328335892
0.01044963347017171
0.0104496336227777
0.01044963328690092
0.01044963345748951
0.01044963357660965
0.01044963345541119
0.0104496333607143
0.01044963357699333
0.01044963344399783
0.01044963338292162
0.01044963363571423
0.010449633298962
0.01044963348474629
0.01044963364164322
0.01044963331984971
0.0104496334694656
0.01044963359660672
0.01044963347931807
0.01044963340015739
0.01044963365895424
0.01044963330735816
0.01044963351573357
0.01044963366184358
0.01044963329668605
0.01044963349304838
0.01161217405623715
0.01161217393645682
0.01161217383865639
0.01161217414160963
0.01161217381899475
0.01161217398108137
0.01161217411874554
0.01161217385050644
0.01161217404559916
0.01161217388517706
0.01161217379706531
0.01161217403449924
0.01161217390781518
0.0116121738072441
0.01161217409832709
0.0116121737185666
0.01161217392998885
0.01161217411465181
0.01161217378401218
0.01161217394032658
0.01161217407405828
0.01161217380883152
0.01161217401035098
0.01161217392754841
0.01161217377211933
0.01161217405858723
0.01161217371531129
0.01161217386295907
0.01161217400948247
0.01161217386737891
0.01161217377560735
0.01161217401839214
0.01161217384851173
0.01161217378351012
0.01161217401510502
0.01161217386356202
0.01161217378228039
0.01161217401883026
0.01161217388322263
0.01161217377476976
0.01161217402099945
0.01161217388586435
0.01161217379369364
0.01161217408829265
0.01161217368755115
0.0116121739072667
0.0116121740420357
0.01161217387428114
0.01161217380528535
0.01161217403938367
0.01161217390766341
0.01161217381232509
0.0116121741018026
0.01161217372489662
0.01161217393849165
0.01161217411408301
0.01161217370240419
0.01161217391786235
0.01259718103544989
0.01259718089093051
0.01259718078256467
0.01259718105968693
0.01259718099960824
0.01259718103121526
0.01259718093552836
0.01259718075668474
0.01259718101259412
0.012597180861664
0.01259718074606827
0.01259718101048953
0.01259718087037404
0.01259718076487822
0.0125971810798834
0.0125971806723659
0.01259718086724083
0.01259718102093324
0.01259718096677251
0.01259718099726528
0.01259718090115878
0.01259718072448125
0.01259718098426364
0.01259718084283546
0.01259718071325217
0.01259718098493
0.01259718082951228
0.01259718073235873
0.01259718101766754
0.01259718073929241
0.01259718085215985
0.01259718105311178
0.01259718063849444
0.01259718084082815
0.01259718099451175
0.01259718084789148
0.01259718073176065
0.01259718099435619
0.01259718084960783
0.01259718073533818
0.01259718100307912
0.01259718084625271
0.01259718076051199
0.01259718107305573
0.0125971806440999
0.01259718088376745
0.01259718107298108
0.01259718066668542
0.01259718086368322
0.01259718101858007
0.01259718087431171
0.01259718075883052
0.012597181025665
0.01259718086652689
0.01259718079171892
0.0125971810973499
0.01259718065800199
0.01259718088350847
0.01336925804370653
0.01336925770842914
0.01336925789708074
0.01336925807294706
0.01336925776104029
0.01336925796569073
0.01336925781698009
0.01336925767721115
0.01336925795509561
0.01336925778360142
0.0133692576857394
0.01336925795611622
0.01336925780795721
0.01336925768762138
0.01336925797808227
0.01336925784864567
0.01336925773118596
0.01336925792451569
0.01336925783463006
0.01336925793725527
0.01336925778674299
0.01336925764731705
0.01336925792363434
0.01336925775348157
0.01336925766896417
0.01336925799153417
0.0133692575683175
0.0133692577659148
0.01336925792998809
0.01336925777390296
0.0133692576817398
0.0133692579998931
0.01336925758074666
0.01336925778210947
0.01336925794337871
0.0133692577921311
0.01336925766698213
0.01336925794097421
0.01336925779218287
0.01336925768183995
0.01336925801071939
0.01336925762981653
0.01336925780707984
0.01336925802803946
0.0133692575823699
0.013369257825683
0.01336925803162326
0.01336925758328726
0.01336925780815054
0.01336925796579577
0.01336925781628616
0.01336925769726826
0.01336925797674961
0.01336925781726199
0.013369257732322
0.01336925805384329
0.01336925760096526
0.01336925783201093
0.01390044657645969
0.01390044654603507
0.01390044658827899
0.01390044650546733
0.0139004463025436
0.01390044656319738
0.01390044641130806
0.0139004462982779
0.01390044663364844
0.0139004462097991
0.0139004464015862
0.01390044657456818
0.01390044640872125
0.01390044628641243
0.01390044656524931
0.01390044654796314
0.01390044660423249
0.01390044627665315
0.01390044639291903
0.01390044654261315
0.01390044636878328
0.01390044627929003
0.01390044660387678
0.01390044617987273
0.01390044639813914
0.0139004466205468
0.01390044617025118
0.01390044638818338
0.0139004465509155
0.01390044639978668
0.0139004462773173
0.01390044655529619
0.01390044638551988
0.01390044629383893
0.01390044656134623
0.01390044641029115
0.01390044628356999
0.01390044656113357
0.01390044641042335
0.01390044628720428
0.0139004465692235
0.01390044640691993
0.01390044632063463
0.01390044664811483
0.01390044620183624
0.01390044643895874
0.01390044665305082
0.01390044619945149
0.01390044642029583
0.01390044658272605
0.01390044643373581
0.01390044632670351
0.01390044666155265
0.01390044624480982
0.01390044646322973
0.01390044668485687
0.01390044622593756
0.01390044641648365
0.01416606975035387
0.01416606971839776
0.01416606978329363
0.01416606963777977
0.01416606948454006
0.01416606975444664
0.01416606960928051
0.01416606950868828
0.01416606984481732
0.01416606941729529
0.01416606961910293
0.01416606982953465
0.01416606948631785
0.01416606962631512
0.01416606973457454
0.01416606970280351
0.01416606976528145
0.01416606959228188
0.01416606949671011
0.01416606980545747
0.01416606939077339
0.01416606959570194
0.0141660698201221
0.01416606938518616
0.01416606961082013
0.01416606982817722
0.01416606938569604
0.01416606959496312
0.01416606975910274
0.01416606961165621
0.01416606948840482
0.01416606976198307
0.01416606961459898
0.01416606949506821
0.01416606976698115
0.01416606961921242
0.01416606949462126
0.01416606976813277
0.01416606961890389
0.01416606949888864
0.01416606977575658
0.01416606962004904
0.0141660695302891
0.01416606985479949
0.01416606941779314
0.01416606964234808
0.01416606985885691
0.01416606941481995
0.0141660696230624
0.01416606978614683
0.01416606964050392
0.0141660695380196
0.01416606987186191
0.01416606944341063
0.01416606967116936
0.01416606989671473
0.01416606950889056
0.01416606965524892
0.01417485495296345
0.01417485477384072
0.01417485500462159
0.01417485485826448
0.01417485472795697
0.0141748549892024
0.0141748548507268
0.01417485475449638
0.01417485508023816
0.01417485471738133
0.01417485485879934
0.01417485494994907
0.01417485493547658
0.01417485500014603
0.01417485491600261
0.01417485478242455
0.01417485505964799
0.01417485466135439
0.01417485483856139
0.01417485505910497
0.01417485464395799
0.01417485485223108
0.01417485506720404
0.0141748546495886
0.0141748548583806
0.01417485507327924
0.01417485465108632
0.01417485484449075
0.01417485500660452
0.01417485486583697
0.01417485474674853
0.01417485500976506
0.01417485486952764
0.01417485475093102
0.01417485501347507
0.0141748548707383
0.01417485475455532
0.01417485501819626
0.01417485485759025
0.01417485477819015
0.01417485508718265
0.01417485469681542
0.01417485488149719
0.01417485510249576
0.01417485468280989
0.01417485488972041
0.01417485510281107
0.01417485468154034
0.0141748548708114
0.01417485503036552
0.01417485488998116
0.01417485479024201
0.01417485510951852
0.0141748546878466
0.01417485488233874
0.01417485505990517
0.01417485498589434
0.0141748550275181
0.01393598675881617
0.013935986606035
0.0139359868455195
0.01393598670918023
0.01393598659239428
0.01393598683637817
0.0139359867023096
0.01393598659322226
0.01393598685092198