/*--------------------------------*- C++ -*----------------------------------*\
| =========                 |                                                 |
| \\      /  F ield         | OpenFOAM: The Open Source CFD Toolbox           |
|  \\    /   O peration     | Version:  v1812                                 |
|   \\  /    A nd           | Web:      www.OpenFOAM.com                      |
|    \\/     M anipulation  |                                                 |
\*---------------------------------------------------------------------------*/
FoamFile
{
    version     2.0;
    format      ascii;
    class       volScalarField;
    location    "10000";
    object      p;
}
// * * * * * * * * * * * * * * * * * * * * * * * * * * * * * * * * * * * * * //

dimensions      [0 2 -2 0 0 0 0];


internalField   nonuniform List<scalar> 
2494
(
6.108185122741818e-13
1.760329906871759e-09
1.275483555252911e-09
1.606096221358325e-09
1.616441249701965e-09
1.660103557758951e-09
1.876554541862267e-09
1.843613439264348e-09
2.119776758911561e-09
2.069517189507679e-09
2.330478977340178e-09
2.309958777652515e-09
2.544460021629375e-09
2.533476171696049e-09
2.771910530175914e-09
2.768001129818396e-09
2.962844206940711e-09
3.002639020134575e-09
3.168996189688777e-09
3.209711833746615e-09
3.380170585287109e-09
3.426041104674309e-09
3.577434425234473e-09
3.644329128763391e-09
3.781875798139605e-09
3.859592526225054e-09
3.974306027871213e-09
4.046658375547097e-09
4.195874382859048e-09
4.257809166865134e-09
4.377900703540839e-09
4.483495873594469e-09
4.590427417953868e-09
4.677687258516405e-09
4.815994116021603e-09
4.896890441126904e-09
5.019911368274062e-09
5.123598724378697e-09
5.223962520323657e-09
5.311409728352182e-09
5.426140682079653e-09
5.489784794768953e-09
5.588053842442585e-09
5.675491589778351e-09
5.753884547258792e-09
5.833399044078166e-09
5.940929367880964e-09
6.012495101028288e-09
6.120334904052957e-09
6.230109229865716e-09
6.332688349718835e-09
6.468654618348564e-09
6.62598471482675e-09
6.602577646983171e-09
6.8575071556848e-09
7.613516157909873e-09
6.692094451265178e-09
2.524791095484555e-09
-1.887595092370771e-11
1.755974489400029e-09
1.281153766885662e-09
1.603064596695033e-09
1.617991559817014e-09
1.659032709543897e-09
1.876949142510625e-09
1.84323314921618e-09
2.119953959219311e-09
2.069461304160281e-09
2.330348892965958e-09
2.310024884121086e-09
2.544378913543914e-09
2.533413118583656e-09
2.771900160544448e-09
2.76810356478089e-09
2.96260385683242e-09
3.002798462660311e-09
3.168939168050095e-09
3.209593210871505e-09
3.38017078486483e-09
3.426063972475126e-09
3.577301916789512e-09
3.644425817267242e-09
3.781809118804514e-09
3.859500530135396e-09
3.974238768486648e-09
4.046553701635641e-09
4.195964205606652e-09
4.257786254493908e-09
4.377614355879889e-09
4.483540136616063e-09
4.590420738052532e-09
4.677415764875985e-09
4.815954202341673e-09
4.896860581548898e-09
5.019697474296729e-09
5.123565524180529e-09
5.223922497693425e-09
5.311239992226818e-09
5.426099344290729e-09
5.489751795357877e-09
5.58789188843926e-09
5.675420538297598e-09
5.753759058060821e-09
5.833156154395523e-09
5.940760054202248e-09
6.012244233291127e-09
6.119942702628769e-09
6.229734054676867e-09
6.3321935672445e-09
6.467788030791182e-09
6.625403434150136e-09
6.601658264927082e-09
6.85609372117193e-09
7.618386944172411e-09
6.708393781290604e-09
2.531992261208437e-09
-5.836517697211449e-11
1.744513152057443e-09
1.292622554329436e-09
1.596984851727683e-09
1.621159742082341e-09
1.656768191446417e-09
1.87762041677392e-09
1.84284498396999e-09
2.119991349819468e-09
2.069547403086096e-09
2.33019950886706e-09
2.310076255320199e-09
2.544156240477995e-09
2.533639265627876e-09
2.771592920115298e-09
2.768467713161394e-09
2.962278435147804e-09
3.002978014079433e-09
3.168825069010699e-09
3.20967255106102e-09
3.379909393904346e-09
3.426214454046977e-09
3.57726735927275e-09
3.644471597273097e-09
3.781547335614819e-09
3.859410252283942e-09
3.974366139165667e-09
4.046653307842424e-09
4.19579895432969e-09
4.25778556572044e-09
4.377209017296437e-09
4.483522668208017e-09
4.590478556504231e-09
4.677071425130218e-09
4.816129478843189e-09
4.89691621296094e-09
5.019082569189915e-09
5.123606042521502e-09
5.224021977881549e-09
5.310926475836846e-09
5.426207696577938e-09
5.489956665317124e-09
5.587446145912594e-09
5.675404619028477e-09
5.753844217219827e-09
5.832620110331326e-09
5.940606585817365e-09
6.012171029140803e-09
6.119193823489665e-09
6.229324841332919e-09
6.331813161617586e-09
6.466389841906934e-09
6.624678668897461e-09
6.600908212274865e-09
6.854158440060741e-09
7.627208074585959e-09
6.738871405885393e-09
2.54574073968427e-09
-1.185911851936392e-10
1.725209263297756e-09
1.308822137515531e-09
1.588109936722864e-09
1.626157251865504e-09
1.652920319514592e-09
1.878782125006963e-09
1.842563652761032e-09
2.11965726764464e-09
2.069805553477321e-09
2.330327245697928e-09
2.309710339725168e-09
2.543982031431436e-09
2.534288299388312e-09
2.770729552535614e-09
2.769154551602789e-09
2.962104785177144e-09
3.002778096422206e-09
3.168840628389025e-09
3.210116910371142e-09
3.379054300710626e-09
3.426623509212353e-09
3.577550389764243e-09
3.644047110756464e-09
3.781089821640594e-09
3.859279921014441e-09
3.974790545236083e-09
4.047138639669016e-09
4.195124537017034e-09
4.258039424843032e-09
4.376943108691478e-09
4.482945508730992e-09
4.590545945669918e-09
4.676744773564524e-09
4.816612559217785e-09
4.897177833925697e-09
5.017858604856024e-09
5.124000172665789e-09
5.224511364066584e-09
5.310052512838333e-09
5.426554002520664e-09
5.490575308875977e-09
5.586344126702132e-09
5.675592127456433e-09
5.754331781377282e-09
5.831401792804383e-09
5.940575445847506e-09
6.012451625293654e-09
6.11771075573328e-09
6.229029539624426e-09
6.331832351195836e-09
6.46423808939347e-09
6.624187767508336e-09
6.601259567705695e-09
6.851522193522071e-09
7.638652289381446e-09
6.784539159353382e-09
2.56790534632392e-09
-1.999358389091181e-10
1.696215119658782e-09
1.330118617787546e-09
1.576073762237143e-09
1.633086169446686e-09
1.647600625484569e-09
1.880315091724125e-09
1.842374116322458e-09
2.118992989549342e-09
2.070160666360232e-09
2.330685359807594e-09
2.309032825945363e-09
2.543758462243803e-09
2.535356878742041e-09
2.769368558622815e-09
2.770100735110411e-09
2.962005978741196e-09
3.002322555479366e-09
3.168891667235308e-09
3.210927561276783e-09
3.377803904132841e-09
3.427219361008049e-09
3.578051756729241e-09
3.643231820724844e-09
3.780255487177178e-09
3.859121332193817e-09
3.975376496614865e-09
4.047997282650849e-09
4.194260183033143e-09
4.258460794908723e-09
4.376889504858648e-09
4.481914937677103e-09
4.590376264909722e-09
4.676456346357748e-09
4.817367565439563e-09
4.897742929630302e-09
5.016080104008633e-09
5.124569837354547e-09
5.225506003421766e-09
5.308554787970228e-09
5.426937332053725e-09
5.491658710875521e-09
5.584697229572467e-09
5.675858638815459e-09
5.755193305074222e-09
5.829569871897852e-09
5.94051404722388e-09
6.012911177959208e-09
6.11566398116285e-09
6.228863964117223e-09
6.332179000895117e-09
6.461350186321624e-09
6.623709206806585e-09
6.603020288255563e-09
6.847386840429229e-09
7.649842532400746e-09
6.846747514297116e-09
2.603326760540358e-09
-3.010172016591153e-10
1.655888799695381e-09
1.356643710750655e-09
1.56105403842201e-09
1.641407644782404e-09
1.641165982675722e-09
1.882196921248994e-09
1.841968193278591e-09
2.118256019267768e-09
2.070653346310707e-09
2.330914615700175e-09
2.308344175280949e-09
2.543498766439051e-09
2.536516777703672e-09
2.767806791669156e-09
2.771254985430526e-09
2.961562561053304e-09
3.00210641412524e-09
3.168971240714415e-09
3.211595856723438e-09
3.3767813498083e-09
3.428070360290084e-09
3.578275986625947e-09
3.642352485816481e-09
3.779152328255381e-09
3.859079052338903e-09
3.976214822871372e-09
4.048712995561485e-09
4.193305510988303e-09
4.258832447411563e-09
4.3767521041459e-09
4.481054049412533e-09
4.590086907385406e-09
4.675985828678841e-09
4.818307632575859e-09
4.898517460505256e-09
5.014056660554515e-09
5.12520109803636e-09
5.226623185443783e-09
5.306804405893504e-09
5.42741953537679e-09
5.492868538067798e-09
5.582826519091987e-09
5.676208159369122e-09
5.756120789176161e-09
5.827451516210687e-09
5.940519358040052e-09
6.013399320366851e-09
6.113277846970247e-09
6.228738231155334e-09
6.332527511549472e-09
6.457959859143785e-09
6.623312767666355e-09
6.606192531973141e-09
6.841502585980054e-09
7.658231283357421e-09
6.924781671226784e-09
2.655659077420826e-09
-4.187960956554854e-10
1.60368530390731e-09
1.387740092406304e-09
1.543335509720415e-09
1.650608627855475e-09
1.633996574457436e-09
1.88433125290188e-09
1.841075689423427e-09
2.117798170482537e-09
2.071250635623382e-09
2.330724650790737e-09
2.307978976649897e-09
2.543125639360457e-09
2.537492367679107e-09
2.766406268631315e-09
2.77254313732671e-09
2.960689318988338e-09
3.00250888114042e-09
3.16889435354938e-09
3.211693431173126e-09
3.376391520843449e-09
3.429036575580382e-09
3.57781322189556e-09
3.64198048558732e-09
3.778359465844979e-09
3.859040056814605e-09
3.976918173121955e-09
4.048862703085296e-09
4.192528414750034e-09
4.259322121457556e-09
4.376102410476624e-09
4.480727325958632e-09
4.590029913983741e-09
4.674977818507753e-09
4.819080804234822e-09
4.899434846607752e-09
5.012191376133175e-09
5.125844370536467e-09
5.227571173273644e-09
5.305135766683175e-09
5.428016575082384e-09
5.493903790406928e-09
5.581035184217784e-09
5.676626286193491e-09
5.756850440503776e-09
5.825382650867432e-09
5.940601212912674e-09
6.013780747066255e-09
6.110831795005989e-09
6.228462189203999e-09
6.332580971194521e-09
6.454342415410142e-09
6.6229530582636e-09
6.610508625180031e-09
6.834082085224362e-09
7.662388892918519e-09
7.016453265804307e-09
2.726594198750804e-09
-5.493879343218873e-10
1.540570543054627e-09
1.421811779003294e-09
1.523110568304947e-09
1.660511800314141e-09
1.626378405659573e-09
1.886538077159623e-09
1.839603142655338e-09
2.117868646217503e-09
2.071771723119092e-09
2.330106109035238e-09
2.308107492999337e-09
2.542513581004691e-09
2.53822222413002e-09
2.765457840475727e-09
2.773943566445836e-09
2.959353130637792e-09
3.003376630579519e-09
3.168819463228796e-09
3.211465745017082e-09
3.376217325917128e-09
3.429927474027773e-09
3.576869476334947e-09
3.64225369277456e-09
3.778102261647847e-09
3.858917331612879e-09
3.977178978185068e-09
4.048414961248646e-09
4.192323970413996e-09
4.26001784473836e-09
4.374812086899888e-09
4.4808515906803e-09
4.590383166898603e-09
4.673551431129416e-09
4.819432320213374e-09
4.90032923237651e-09
5.010719020222645e-09
5.126343199751034e-09
5.228353322166711e-09
5.303746571846183e-09
5.428596690946418e-09
5.494757002244284e-09
5.579536019904898e-09
5.676962575487406e-09
5.757377233070568e-09
5.823554760894666e-09
5.940586561080013e-09
6.013895173550586e-09
6.108589819620172e-09
6.227981243056054e-09
6.33229993158847e-09
6.450740843389628e-09
6.62242483655584e-09
6.615733132089897e-09
6.825748489185563e-09
7.662117927596332e-09
7.11862488238615e-09
2.815335339141161e-09
-6.896210137684065e-10
1.469148278362696e-09
1.456765738237636e-09
1.5005547006776e-09
1.671182184760997e-09
1.618171079952201e-09
1.888965278874636e-09
1.837454699908007e-09
2.118482461996758e-09
2.072205099993636e-09
2.329183564304843e-09
2.308614226237562e-09
2.541748931658444e-09
2.538667180806055e-09
2.764921484980811e-09
2.775523671007329e-09
2.957591672571833e-09
3.0043957224433e-09
3.168912013668914e-09
3.211248001657663e-09
3.375806846556562e-09
3.430738538525055e-09
3.576090909789596e-09
3.642709564127379e-09
3.77801921446532e-09
3.858907217964979e-09
3.977242360078847e-09
4.047482907685376e-09
4.192529333954323e-09
4.260903492378195e-09
4.373154058339283e-09
4.481152332612008e-09
4.591003515188252e-09
4.67203316461903e-09
4.819624014023886e-09
4.901041282219363e-09
5.009504371104746e-09
5.126862980913623e-09
5.229059637319618e-09
5.302553226296466e-09
5.429229882572484e-09
5.495521729543097e-09
5.57825620753646e-09
5.677312437277847e-09
5.757797886262065e-09
5.821859151970505e-09
5.940564132007749e-09
6.013810272149482e-09
6.106425537633978e-09
6.227380880392925e-09
6.331795753055152e-09
6.447091526703933e-09
6.621774528211436e-09
6.621650055951756e-09
6.817082163408369e-09
7.658746413063815e-09
7.228570877257923e-09
2.918342450111375e-09
-8.385708718398211e-10
1.392973177065842e-09
1.490861773012099e-09
1.475441581009004e-09
1.682926063880627e-09
1.608915775379316e-09
1.891867724068228e-09
1.834504859938076e-09
2.119646228649237e-09
2.072552323974327e-09
2.328072822295183e-09
2.309346313969962e-09
2.541034725959543e-09
2.538871170162505e-09
2.764530822691423e-09
2.777264628692742e-09
2.955697858252543e-09
3.005429651636672e-09
3.169002167857386e-09
3.211175203438607e-09
3.375247132265305e-09
3.431436803874195e-09
3.575772094495988e-09
3.643246968001154e-09
3.77777016710423e-09
3.858902680870186e-09
3.977345758280853e-09
4.046401387646353e-09
4.192787206311504e-09
4.261845673000793e-09
4.371477089963311e-09
4.481517520537762e-09
4.591660681251494e-09
4.670501808162638e-09
4.819967237308427e-09
4.901694870667068e-09
5.008295444199848e-09
5.127550175702622e-09
5.229851374580002e-09
5.301392408534786e-09
5.43004262412323e-09
5.496333781277758e-09
5.57699966459176e-09
5.677800706794961e-09
5.758232416176598e-09
5.820094715484516e-09
5.940618237113722e-09
6.013652532937424e-09
6.104131231025831e-09
6.226730733538164e-09
6.33117122742719e-09
6.443220468924621e-09
6.621127362608984e-09
6.62813964470484e-09
6.808337450521698e-09
7.654474454938732e-09
7.34570289962871e-09
3.030810564312452e-09
-9.960585324022901e-10
1.315351045948756e-09
1.522713553685612e-09
1.447182333187828e-09
1.696038857876863e-09
1.598086759829928e-09
1.895430215072151e-09
1.830569959813033e-09
2.121464068460504e-09
2.072774310792833e-09
2.3267658322987e-09
2.310285448557698e-09
2.540553878843165e-09
2.538987221000637e-09
2.763988227526569e-09
2.779027548656555e-09
2.953811457833665e-09
3.006493398524704e-09
3.169076689651935e-09
3.211310287240494e-09
3.374637952438259e-09
3.432090824655931e-09
3.57585941231432e-09
3.64390196364901e-09
3.777269786707918e-09
3.858842302901413e-09
3.977468128346152e-09
4.045321438596622e-09
4.193075705845106e-09
4.262762279339139e-09
4.369751679507152e-09
4.482035738668856e-09
4.592374681889903e-09
4.66882875418071e-09
4.820470636634067e-09
4.902484823659553e-09
5.00699929832806e-09
5.128490105821774e-09
5.230867714186671e-09
5.300174814271827e-09
5.43108642820236e-09
5.49734388226239e-09
5.575653912809813e-09
5.678445929462993e-09
5.758766671868156e-09
5.818148750354815e-09
5.940694992573345e-09
6.013485040450585e-09
6.1015282634405e-09
6.225989947680083e-09
6.330417768992917e-09
6.438893508327455e-09
6.620419758258236e-09
6.635086680192049e-09
6.799520293650621e-09
7.651367207154475e-09
7.470956979872026e-09
3.148634937233771e-09
-1.160078277251114e-09
1.238353345091263e-09
1.550671005697362e-09
1.415173573908973e-09
1.710581974483763e-09
1.585215935208239e-09
1.899761028399924e-09
1.82535372800558e-09
2.124066235062438e-09
2.072836115847902e-09
2.325135450777805e-09
2.31152313213863e-09
2.540363933745694e-09
2.539090359691921e-09
2.763241756734483e-09
2.780806368576632e-09
2.951870925477555e-09
3.007654038215132e-09
3.16919163196381e-09
3.211777888011551e-09
3.374000410685011e-09
3.432714415308918e-09
3.57625940831682e-09
3.644634838950193e-09
3.776368727991006e-09
3.859131927243454e-09
3.977637683646202e-09
4.043952185952575e-09
4.19349415299224e-09
4.26376602921388e-09
4.36771694010606e-09
4.482807487880027e-09
4.593236588555043e-09
4.66685255458761e-09
4.821060269907764e-09
4.903574736953495e-09
5.005558574284072e-09
5.129794127193655e-09
5.232222575089884e-09
5.298824874623017e-09
5.432411015918394e-09
5.498686985201334e-09
5.574102509136072e-09
5.679287074015845e-09
5.759430969155371e-09
5.815851326363606e-09
5.940728477263067e-09
6.013290834655621e-09
6.09834586941775e-09
6.225125602804677e-09
6.32941066341593e-09
6.433720967576373e-09
6.619397115517453e-09
6.642326657673509e-09
6.790561203195372e-09
7.65057959673984e-09
7.604921833350558e-09
3.269894041657212e-09
-1.325930489218648e-09
1.161723631621499e-09
1.572804996658418e-09
1.37904254914111e-09
1.726226541612152e-09
1.569865990425221e-09
1.904785391610794e-09
1.818489818691202e-09
2.127756182368688e-09
2.072684538285381e-09
2.322974217958632e-09
2.313360034992394e-09
2.540539382848213e-09
2.538857528628804e-09
2.762628208633063e-09
2.782884148416373e-09
2.949473543251078e-09
3.008905970276105e-09
3.169384719287864e-09
3.212835707546107e-09
3.373492165502463e-09
3.433197449807088e-09
3.576702500277658e-09
3.645373423730851e-09
3.774927155192653e-09
3.860471855950064e-09
3.977955875119427e-09
4.04168915572317e-09
4.194033053313839e-09
4.265072077754105e-09
4.365094119403143e-09
4.4837948711133e-09
4.594311715539054e-09
4.664485631839828e-09
4.821875079963736e-09
4.905136765786473e-09
5.00369325431888e-09
5.131449105703672e-09
5.234082894265478e-09
5.29740825688945e-09
5.434247687447239e-09
5.500506705872141e-09
5.572005346871678e-09
5.680538824186752e-09
5.760236092010945e-09
5.812858647636204e-09
5.940792046889044e-09
6.013009490528236e-09
6.094078374931057e-09
6.224080259280188e-09
6.327948484647773e-09
6.427142630493425e-09
6.617941683831715e-09
6.649631774774846e-09
6.781018027246365e-09
7.651542786455321e-09
7.746737352202429e-09
3.396782733180686e-09
-1.487336185621945e-09
1.08170372137073e-09
1.587797774110576e-09
1.338358751739772e-09
1.742220487912055e-09
1.552058617418251e-09
1.910654765383683e-09
1.809512555216277e-09
2.132718190163082e-09
2.072181492429554e-09
2.319944777070326e-09
2.316392585205617e-09
2.541333861578261e-09
2.5375973293731e-09
2.76203631801768e-09
2.785496002983633e-09
2.94667260893897e-09
3.010292866916415e-09
3.169628991272257e-09
3.214871981204345e-09
3.373502523290759e-09
3.433233747828803e-09
3.576818348487178e-09
3.645799515555573e-09
3.772176801205013e-09
3.863343446139624e-09
3.9791607501707e-09
4.038411318539707e-09
4.194640123053747e-09
4.266858332025648e-09
4.361581210984036e-09
4.484951778368483e-09
4.595645970659475e-09
4.661634392478789e-09
4.82322429665831e-09
4.907261824240704e-09
5.000980033830115e-09
5.133519834429909e-09
5.236674584298565e-09
5.296001691735284e-09
5.436720977264617e-09
5.503083674320677e-09
5.569122809689597e-09
5.682221441929336e-09
5.761248110108196e-09
5.808912034243426e-09
5.940810550997436e-09
6.012593464297388e-09
6.088191792798564e-09
6.222634234284763e-09
6.325863647898017e-09
6.418615798020937e-09
6.615754929443898e-09
6.656780910381175e-09
6.770168171358757e-09
7.65137057157701e-09
7.894098155879274e-09
3.537367859457029e-09
-1.636258451231133e-09
9.913592258112621e-10
1.596189032082967e-09
1.29246785633762e-09
1.757214723585618e-09
1.533212803776075e-09
1.917130627234457e-09
1.797664344810734e-09
2.139644430664908e-09
2.071397451385835e-09
2.315836473542309e-09
2.320820525773752e-09
2.542643024144108e-09
2.534818612181877e-09
2.760507579661481e-09
2.788415217099478e-09
2.944712526092705e-09
3.011694627836246e-09
3.16948089775797e-09
3.218746991266182e-09
3.374046950989178e-09
3.432010407121483e-09
3.577114536529313e-09
3.645594989445642e-09
3.766535422665386e-09
3.868275859462027e-09
3.982457624798335e-09
4.034322584816315e-09
4.194728566837224e-09
4.269010449901242e-09
4.35762719789223e-09
4.486303375083466e-09
4.59698224644517e-09
4.658360259473686e-09
4.82464969548754e-09
4.909922659678816e-09
4.998051243936494e-09
5.136076658707775e-09
5.240077987731472e-09
5.294951274547639e-09
5.43916357405729e-09
5.506622036607848e-09
5.566281570546991e-09
5.68357206673942e-09
5.762394986853131e-09
5.804561528211236e-09
5.939759662424934e-09
6.01190283999526e-09
6.081192312493301e-09
6.21985897036231e-09
6.322824238587005e-09
6.408390611317211e-09
6.61136044302386e-09
6.663381181821559e-09
6.758102605761855e-09
7.643839229650228e-09
8.04195791224138e-09
3.705784389309153e-09
-1.760393367592362e-09
8.842187450441697e-10
1.60016613271088e-09
1.241325673072988e-09
1.769049603827024e-09
1.516286749480238e-09
1.924343877476152e-09
1.782438129538971e-09
2.149177825201803e-09
2.069708536526096e-09
2.308698182004519e-09
2.326722249650801e-09
2.544703328657588e-09
2.530791713232917e-09
2.758219043593606e-09
2.790439748854125e-09
2.945131349763734e-09
3.012624130988669e-09
3.16771285525545e-09
3.226075961656369e-09
3.374659668446473e-09
3.427971803657794e-09
3.580013080563074e-09
3.646070998989892e-09
3.756830002752816e-09
3.875060569021269e-09
3.986423135569063e-09
4.02932565788121e-09
4.194183882887601e-09
4.270952457941958e-09
4.354376710193391e-09
4.487807592937909e-09
4.597628046670235e-09
4.655252676639189e-09
4.825790499344836e-09
4.912524704885682e-09
4.995981631435339e-09
5.139249749661569e-09
5.244017825413634e-09
5.295203507303844e-09
5.440865286901683e-09
5.510605042610982e-09
5.564714245594985e-09
5.684100108108919e-09
5.763217166266021e-09
5.800745385283228e-09
5.937049690760574e-09
6.010297164547751e-09
6.073963805495177e-09
6.214954688428518e-09
6.317931144963309e-09
6.397317013187151e-09
6.603273362551148e-09
6.668252231703188e-09
6.745413764678648e-09
7.620117847184031e-09
8.179746744935619e-09
3.91724388987535e-09
-1.844908936014462e-09
7.595995737521282e-10
1.602289659714568e-09
1.18596396323384e-09
1.774980202432954e-09
1.504100850578023e-09
1.937152506534041e-09
1.764741798492051e-09
2.155298107685434e-09
2.067109369970663e-09
2.296596029180349e-09
2.330580230839419e-09
2.549791669950124e-09
2.5281458760173e-09
2.756391469464638e-09
2.790514408379496e-09
2.949160390937612e-09
3.012830662513701e-09
3.162747552808844e-09
3.237824206649964e-09
3.373802326034654e-09
3.419659883704019e-09
3.589408098556134e-09
3.650280829794184e-09
3.741650605986926e-09
3.878321595244974e-09
3.990188030426008e-09
4.02667349829956e-09
4.194670211641496e-09
4.27220111636914e-09
4.350903311482888e-09
4.488007564038783e-09
4.597537715261324e-09
4.653887354865815e-09
4.825369706673082e-09
4.915018080081974e-09
4.995796791740481e-09
5.142330729537223e-09
5.248042800837341e-09
5.297671118863846e-09
5.442562689621296e-09
5.514656170964572e-09
5.564826718348386e-09
5.686236103872229e-09
5.762590148027433e-09
5.795848832932291e-09
5.934278253664937e-09
6.00695061106028e-09
6.066018947031464e-09
6.208086635979645e-09
6.310602495151844e-09
6.385547634609859e-09
6.590949281608446e-09
6.669754849397666e-09
6.731730799484863e-09
7.573715324502404e-09
8.293067170233269e-09
4.177875301001988e-09
-1.876163296731735e-09
6.245957909588703e-10
1.605576319606987e-09
1.128695678771809e-09
1.7724922928851e-09
1.49890752749851e-09
1.957387069873265e-09
1.743889820342238e-09
2.14741871835721e-09
2.061944666350892e-09
2.295447346854374e-09
2.328880955655762e-09
2.552001280686818e-09
2.532142872662764e-09
2.754748849284386e-09
2.789381210564125e-09
2.957718414760052e-09
3.012021532137884e-09
3.152782508983397e-09
3.255768778735e-09
3.375901409418801e-09
3.404715790980421e-09
3.60310219535712e-09
3.659696771840666e-09
3.723615080436689e-09
3.874342910807387e-09
3.991092434862886e-09
4.028245072960353e-09
4.194026252560215e-09
4.273239170572162e-09
4.348303140192472e-09
4.486116178106204e-09
4.597310565204784e-09
4.654883969262193e-09
4.823204768645671e-09
4.917798646857798e-09
4.997528369407247e-09
5.144626464273903e-09
5.251846580696129e-09
5.302427874382944e-09
5.44526809383348e-09
5.518781583889764e-09
5.565911125997632e-09
5.688425500204081e-09
5.761337441550892e-09
5.791528203225511e-09
5.930667145251331e-09
6.002261571772909e-09
6.057490407986034e-09
6.199058163672092e-09
6.301040474782074e-09
6.372658874380239e-09
6.573567201421164e-09
6.666296678000553e-09
6.715913269348276e-09
7.502295953094351e-09
8.367688933692819e-09
4.481085332470187e-09
-1.845369773991829e-09
4.914029600515316e-10
1.6133910019241e-09
1.073888953730892e-09
1.762566447015897e-09
1.501796478511552e-09
1.97623699683643e-09
1.718476064737697e-09
2.132739531635417e-09
2.052922985391622e-09
2.309442192463467e-09
2.324401001793033e-09
2.547428514856751e-09
2.543043686923007e-09
2.751765450845333e-09
2.787326334588427e-09
2.972174909979688e-09
3.009095070690351e-09
3.137704669391398e-09
3.282258130188357e-09
3.386443725107851e-09
3.387636621416781e-09
3.602403275485827e-09
3.663675258404299e-09
3.718056274201407e-09
3.871698041720029e-09
3.98726062558e-09
4.029177560185181e-09
4.19051981035181e-09
4.27430350851131e-09
4.348426575854421e-09
4.4860926368205e-09
4.595707418769298e-09
4.654195545756756e-09
4.821945323327986e-09
4.920593029445703e-09
5.000316510176679e-09
5.147126814425119e-09
5.256199587399592e-09
5.309154870812918e-09
5.448172523229971e-09
5.522814020284654e-09
5.567885499543949e-09
5.687302386453614e-09
5.760473815528584e-09
5.790566449717855e-09
5.926026728423537e-09
5.996373807282095e-09
6.047685593441514e-09
6.18804333747531e-09
6.289330592752472e-09
6.35799070327887e-09
6.550800483034226e-09
6.656668567596045e-09
6.696567995040903e-09
7.407043124448061e-09
8.392762659392754e-09
4.81035801281324e-09
-1.752408508286618e-09
3.706019163145698e-10
1.631307872257248e-09
1.046254995924885e-09
1.75273591680288e-09
1.480114073986254e-09
1.979599184352775e-09
1.704372625470589e-09
2.127348367758673e-09
2.044011082894346e-09
2.322441245590439e-09
2.318801153544794e-09
2.541883795170416e-09
2.557486584609944e-09
2.746192589198836e-09
2.779312823147175e-09
2.995749649359181e-09
3.024699649960145e-09
3.124459964066077e-09
3.283493746897984e-09
3.388598664111207e-09
3.386133502258462e-09
3.591139912173804e-09
3.657930026609988e-09
3.724061578726781e-09
3.874705892806001e-09
3.984174069174585e-09
4.028990097356481e-09
4.189488405402746e-09
4.275162809243295e-09
4.346637165509135e-09
4.484593365478765e-09
4.593878821645942e-09
4.654136671499985e-09
4.820121641940263e-09
4.923226008078215e-09
5.004101436723661e-09
5.150047636173448e-09
5.261783254727021e-09
5.317782076060247e-09
5.451047377977594e-09
5.527731923304797e-09
5.57148006803526e-09
5.685598027165026e-09
5.758840633881676e-09
5.789088249874374e-09
5.919379300274877e-09
5.989899590607252e-09
6.038312724457001e-09
6.175070732065403e-09
6.275707675171911e-09
6.341074085416328e-09
6.52478183800453e-09
6.638701918054538e-09
6.670692049616451e-09
7.29313113597333e-09
8.362473347315745e-09
5.144117799076364e-09
-1.601897305620709e-09
2.743767035472459e-10
1.663350468110882e-09
1.041076321734987e-09
1.741956440105867e-09
1.435992858070678e-09
1.969976109047645e-09
1.704357039909251e-09
2.127398120230781e-09
2.03685780619732e-09
2.337949316252613e-09
2.313950340512789e-09
2.533579685308207e-09
2.574745859063997e-09
2.741283091535261e-09
2.7633160663114e-09
3.027332903758489e-09
3.054169874216899e-09
3.112679597687819e-09
3.260286349803234e-09
3.376648653692124e-09
3.395655534023686e-09
3.587227717604445e-09
3.655069401332616e-09
3.727239608051929e-09
3.875285459790361e-09
3.98341675444967e-09
4.031480750371443e-09
4.188377124170435e-09
4.276396874822598e-09
4.345061705946639e-09
4.479717020089915e-09
4.593027800289592e-09
4.656941044694134e-09
4.817234040316923e-09
4.925086473344333e-09
5.007972333155594e-09
5.15314001612035e-09
5.268402249681251e-09
5.329449888698884e-09
5.457903085127632e-09
5.533433239766081e-09
5.573304028960451e-09
5.682990133131268e-09
5.756877487369963e-09
5.786889775404602e-09
5.908631465250453e-09
5.983183738696927e-09
6.031203714812282e-09
6.160352235636885e-09
6.260793264648546e-09
6.322241335439925e-09
6.496681115448196e-09
6.611894173607038e-09
6.637331650620885e-09
7.165898255562988e-09
8.276109792532802e-09
5.463001782504109e-09
-1.378448909991368e-09
2.219251022220382e-10
1.67096946428001e-09
1.021093998649035e-09
1.739903159747955e-09
1.408916416333197e-09
1.964190972168651e-09
1.705436162643554e-09
2.125421939950149e-09
2.029763612347077e-09
2.359253031868346e-09
2.308514273030934e-09
2.517297258396029e-09
2.597679136010967e-09
2.763630481577739e-09
2.752996127816194e-09
3.024527892321114e-09
3.058568852343322e-09
3.110901516196103e-09
3.25106287687364e-09
3.367943897904737e-09
3.402103680514671e-09
3.584136377111585e-09
3.657230256166029e-09
3.730911438257282e-09
3.871236568139411e-09
3.983832018678154e-09
4.036949512813324e-09
4.184561361131698e-09
4.276601331285871e-09
4.345696171245708e-09
4.476484427902291e-09
4.591607614810373e-09
4.658065354791099e-09
4.814358059529635e-09
4.926614345129389e-09
5.012418270149118e-09
5.156511540108756e-09
5.275773052463228e-09
5.343345251889152e-09
5.466623623088284e-09
5.539607511047071e-09
5.575431404859635e-09
5.679979845598735e-09
5.754506724662543e-09
5.78462322243817e-09
5.896597401733463e-09
5.975165685659561e-09
6.023991569310288e-09
6.14457237560184e-09
6.245163401030879e-09
6.30269791760053e-09
6.464456279812407e-09
6.579934709343602e-09
6.600227199490745e-09
7.025327066178433e-09
8.132290864673713e-09
5.755296218436651e-09
-1.102244297221765e-09
2.087898151811437e-10
1.654762398014755e-09
9.963672852437678e-10
1.752609507480496e-09
1.391659516269049e-09
1.965741625895802e-09
1.710472073835589e-09
2.120369723060095e-09
2.017566079952188e-09
2.387694888878139e-09
2.304125425920602e-09
2.494580210757158e-09
2.628453373873503e-09
2.799873646058848e-09
2.746005742107801e-09
2.995627305431971e-09
3.045615458109279e-09
3.120261242262523e-09
3.247450964838884e-09
3.366596562167411e-09
3.40939236810326e-09
3.579801243455933e-09
3.660845646853264e-09
3.734943372326217e-09
3.865983212503337e-09
3.984251667500912e-09
4.043548781486437e-09
4.181889204059364e-09
4.275417846639993e-09
4.345729314550838e-09
4.47342767488691e-09
4.588983214967627e-09
4.657986692530364e-09
4.811737108451384e-09
4.927672721325157e-09
5.017476448482073e-09
5.16052439282274e-09
5.283314282022052e-09
5.358382760605289e-09
5.475247149755088e-09
5.545870758462173e-09
5.579855086768607e-09
5.677419831002253e-09
5.75155410576673e-09
5.782273307180791e-09
5.883529204682279e-09
5.966191423753756e-09
6.017126109545132e-09
6.128002104153433e-09
6.229489008562634e-09
6.283914689301713e-09
6.429945944014885e-09
6.544568327208718e-09
6.560930639028918e-09