/*--------------------------------*- C++ -*----------------------------------*\
| =========                 |                                                 |
| \\      /  F ield         | OpenFOAM: The Open Source CFD Toolbox           |
|  \\    /   O peration     | Version:  v1812                                 |
|   \\  /    A nd           | Web:      www.OpenFOAM.com                      |
|    \\/     M anipulation  |                                                 |
\*---------------------------------------------------------------------------*/
FoamFile
{
    version     2.0;
    format      ascii;
    class       surfaceScalarField;
    location    "10000";
    object      phi;
}
// * * * * * * * * * * * * * * * * * * * * * * * * * * * * * * * * * * * * * //

dimensions      [0 3 -1 0 0 0 0];
oriented        oriented;


internalField   nonuniform List<scalar> 
4887
(
-0.002040673099139702
4.077624492291388e-12
-0.00204067309593111
-3.207662237609788e-12
-0.002040673097396863
1.466122529817666e-12
-0.002040673096878363
-5.158222625800767e-13
-0.002040673097010936
1.341125648528769e-13
-0.002040673097184664
1.750992105996311e-13
-0.002040673096872768
-3.092462830827233e-13
-0.002040673097225673
3.522739623063616e-13
-0.002040673096795364
-4.293562320101853e-13
-0.002040673097152377
3.575408577627392e-13
-0.002040673096782842
-3.682592870409094e-13
-0.002040673097083231
2.991298476665661e-13
-0.002040673096763744
-3.171552868429438e-13
-0.002040673097017186
2.502354048561892e-13
-0.002040673096698074
-3.186311982005991e-13
-0.002040673096915812
2.157697016773354e-13
-0.002040673096696418
-2.18928809552992e-13
-0.002040673096819232
1.207584785791943e-13
-0.002040673096653187
-1.667233660522985e-13
-0.002040673096781441
1.275064842657765e-13
-0.00204067309660804
-1.743282228799548e-13
-0.002040673096701112
9.251292972472729e-14
-0.002040673096569231
-1.334351889185387e-13
-0.00204067309660607
3.616670789005122e-14
-0.002040673096488768
-1.189663711039661e-13
-0.002040673096517107
3.269467488987865e-14
-0.002040673096437667
-7.814743195080879e-14
-0.002040673096475297
3.839096772576798e-14
-0.002040673096334262
-1.406060469207739e-13
-0.002040673096372684
3.875116349917834e-14
-0.002040673096299838
-7.363974481035571e-14
-0.002040673096247497
-5.273893255278046e-14
-0.002040673096182208
-6.626910680839306e-14
-0.002040673096166536
-1.54380220567053e-14
-0.002040673096038249
-1.28734755418422e-13
-0.002040673096034943
-2.976417536928722e-15
-0.002040673095938066
-9.564406622430254e-14
-0.002040673095864236
-7.295828403156055e-14
-0.0020406730957986
-6.214048867389184e-14
-0.002040673095747265
-5.233234561680714e-14
-0.002040673095625063
-1.219354175888373e-13
-0.002040673095609399
-1.792254077925126e-14
-0.002040673095510451
-9.805170657593592e-14
-0.002040673095420507
-9.169716031114827e-14
-0.002040673095345018
-7.575757512684653e-14
-0.002040673095255611
-9.039705908277032e-14
-0.002040673095086129
-1.707738402991106e-13
-0.002040673094983314
-1.031319538678883e-13
-0.002040673094781672
-2.027473921393516e-13
-0.002040673094525991
-2.548642734861302e-13
-0.002040673094238643
-2.883649693349199e-13
-0.002040673093831615
-4.054854119043596e-13
-0.002040673093165177
-6.670859611493651e-13
-0.002040673092509012
-6.54079881950614e-13
-0.002040673091438078
-1.070305282101071e-12
-0.002040673089730737
-1.704786412635299e-12
-0.002040673089892362
1.650869407082623e-13
5.107776092510927e-12
-0.002149132742746689
7.982800460145836e-12
-0.002149132739987789
-5.965684646939946e-12
-0.002149132741362457
2.841325805964145e-12
-0.002149132740796493
-1.079279729553971e-12
-0.002149132740978497
3.176894362824677e-13
-0.002149132741075485
2.734776809612437e-13
-0.002149132740769941
-6.123551003598936e-13
-0.002149132741036302
6.181308339270805e-13
-0.002149132740632372
-8.324762164046184e-13
-0.002149132740883243
6.08896224614492e-13
-0.002149132740519166
-7.313156628355413e-13
-0.002149132740769505
5.484183690563619e-13
-0.002149132740409819
-6.748985089921674e-13
-0.002149132740599139
4.367748125265046e-13
-0.002149132740267622
-6.498796188514747e-13
-0.002149132740394139
3.405641413067808e-13
-0.002149132740146232
-4.664991491848727e-13
-0.002149132740229733
2.024537757122811e-13
-0.002149132740006254
-3.908459443978171e-13
-0.002149132740086044
2.065752374387117e-13
-0.002149132739896782
-3.64503536586855e-13
-0.002149132739909963
1.050909011958284e-13
-0.002149132739742295
-3.026614807692647e-13
-0.002149132739734288
2.741585895433384e-14
-0.002149132739554943
-2.997430288137973e-13
-0.002149132739524515
6.097935481648071e-15
-0.002149132739358552
-2.428584662729138e-13
-0.00214913273932246
3.02496914812612e-15
-0.002149132739140928
-3.217025118030282e-13
-0.002149132739082051
-1.975750843146653e-14
-0.002149132738943221
-2.131461647541335e-13
-0.002149132738829128
-1.671521317773294e-13
-0.002149132738673025
-2.232160480884215e-13
-0.002149132738555305
-1.328437247697662e-13
-0.002149132738318931
-3.65395523415815e-13
-0.002149132738207793
-1.137226584943322e-13
-0.002149132738049114
-2.531076579159888e-13
-0.002149132737867417
-2.538858420161938e-13
-0.002149132737723413
-2.030668029529273e-13
-0.002149132737566644
-2.100041296000537e-13
-0.002149132737332293
-3.563004309289474e-13
-0.002149132737220866
-1.315018903011267e-13
-0.00214913273702255
-2.958022300746671e-13
-0.002149132736790495
-3.254705136085083e-13
-0.002149132736597194
-2.69514875875952e-13
-0.002149132736368672
-3.200156899894539e-13
-0.002149132736026057
-5.147519971492987e-13
-0.002149132735753595
-3.759449236869054e-13
-0.002149132735383617
-5.736676564478685e-13
-0.002149132734916181
-7.215112286685773e-13
-0.002149132734465391
-7.399156417958857e-13
-0.00214913273392066
-9.487222908050205e-13
-0.002149132733217364
-1.37073034250546e-12
-0.002149132732612467
-1.257012941510818e-12
-0.002149132731949706
-1.732273880143664e-12
-0.002149132731356268
-2.29573036151943e-12
-0.002149132733000447
1.812459005986018e-12
1.094604126061548e-11
-0.002243474083977883
1.237400664485195e-11
-0.00224347408142426
-8.518499888915153e-12
-0.002243474082724776
4.142178442054659e-12
-0.00224347408216461
-1.637409661538009e-12
-0.002243474082302291
4.565471107084433e-13
-0.002243474082398026
3.702595026121164e-13
-0.002243474082043876
-9.645017065624107e-13
-0.002243474082287557
8.614584226256398e-13
-0.002243474081884586
-1.234627568091275e-12
-0.002243474082078406
8.031889805534476e-13
-0.002243474081701013
-1.107698079614054e-12
-0.002243474081940089
7.865450788085662e-13
-0.002243474081529057
-1.084233974592881e-12
-0.002243474081697009
6.023313114835316e-13
-0.002243474081345706
-1.000854945699217e-12
-0.002243474081417893
4.112419580775798e-13
-0.002243474081140979
-7.431513137803717e-13
-0.002243474081215285
2.751582156734198e-13
-0.002243474080926566
-6.801490778683498e-13
-0.002243474080989092
2.684544467123905e-13
-0.002243474080787641
-5.667416372716826e-13
-0.002243474080746669
6.368628939400369e-14
-0.002243474080564235
-4.863846808017877e-13
-0.002243474080553677
1.639465582728398e-14
-0.002243474080315742
-5.387010444715997e-13
-0.002243474080259034
-4.728394338198288e-14
-0.002243474080029042
-4.718259674308868e-13
-0.002243474079939664
-8.570831248374601e-14
-0.002243474079736961
-5.240453751252387e-13
-0.00224347407959054
-1.659419557576579e-13
-0.002243474079410772
-3.936375267169808e-13
-0.002243474079306836
-2.714917464391253e-13
-0.002243474079115427
-4.155139060615883e-13
-0.002243474078952101
-2.960565586423233e-13
-0.002243474078641864
-6.760801343785905e-13
-0.002243474078474952
-2.804299927585007e-13
-0.002243474078312803
-4.143013931975449e-13
-0.002243474078047161
-5.18730816797115e-13
-0.002243474077881344
-3.661577961603335e-13
-0.002243474077726084
-3.658625027632697e-13
-0.002243474077431657
-6.505019222873248e-13
-0.002243474077298099
-2.667044122299042e-13
-0.002243474077101303
-4.918633090028339e-13
-0.002243474076811463
-6.165366695730582e-13
-0.002243474076618127
-4.62956787073959e-13
-0.002243474076400891
-5.379357031975179e-13
-0.002243474076045439
-8.711197826596419e-13
-0.002243474075796392
-6.252800663384016e-13
-0.002243474075492368
-8.785540590322384e-13
-0.002243474075084986
-1.128355366632521e-12
-0.002243474074776864
-1.048853523668227e-12
-0.002243474074433812
-1.290682439719913e-12
-0.002243474073959319
-1.845751559857038e-12
-0.002243474073684602
-1.530186120941767e-12
-0.00224347407362386
-1.792508594975397e-12
-0.002243474073207499
-2.710152558863573e-12
-0.002243474074089881
2.697393088031907e-12
1.644135418725389e-11
-0.002323245759244445
1.727387213701272e-11
-0.002323245756853384
-1.090870166840491e-11
-0.002323245758036308
5.325735600195937e-12
-0.002323245757558515
-2.113043726187239e-12
-0.00232324575762804
5.275190336718151e-13
-0.002323245757728371
4.718647106243739e-13
-0.002323245757369376
-1.321439604264138e-12
-0.002323245757603308
1.095138129371887e-12
-0.002323245757172261
-1.664942187509485e-12
-0.002323245757369526
1.000925661664467e-12
-0.002323245756976977
-1.499438382049975e-12
-0.002323245757205339
1.01409067093999e-12
-0.00232324575678684
-1.50129244070034e-12
-0.002323245756943483
7.567609532650548e-13
-0.002323245756579622
-1.364644032246333e-12
-0.00232324575663807
4.682763278365844e-13
-0.0023232457563424
-1.038676432011168e-12
-0.002323245756397808
3.29058193991345e-13
-0.002323245756116954
-9.616199265387668e-13
-0.002323245756146711
2.974954535658678e-13
-0.00232324575591022
-8.041155679896839e-13
-0.002323245755890174
4.304039792560819e-14
-0.002323245755696324
-6.817225981342034e-13
-0.002323245755664352
-1.626388526144901e-14
-0.002323245755429553
-7.744432952246107e-13
-0.002323245755338214
-1.354906761087631e-13
-0.002323245755121679
-6.872223177574687e-13
-0.002323245755018192
-1.885007553617291e-13
-0.002323245754799226
-7.425887164821112e-13
-0.00232324575465574
-3.090823555334507e-13
-0.002323245754452304
-5.977127988499477e-13
-0.002323245754329834
-3.942882152164e-13
-0.002323245754173852
-5.72291003350324e-13
-0.002323245753992141
-4.774808701271751e-13
-0.002323245753708951
-9.595274482565353e-13
-0.002323245753559927
-4.290901160756449e-13
-0.00232324575338393
-5.891993954392113e-13
-0.002323245753136665
-7.652206959946954e-13
-0.002323245752982644
-5.176075049995346e-13
-0.002323245752839616
-5.095287298233325e-13
-0.002323245752595168
-8.951166854913859e-13
-0.0023232457524631
-4.005857320999471e-13
-0.002323245752293149
-6.614765533685221e-13
-0.002323245752059646
-8.514933247023732e-13
-0.002323245751909041
-6.139924520930914e-13
-0.002323245751728275
-7.19715203166639e-13
-0.002323245751466753
-1.133867155541832e-12
-0.002323245751288503
-8.0391933461389e-13
-0.002323245751061471
-1.10636073830801e-12
-0.00232324575075647
-1.432727350805622e-12
-0.002323245750561193
-1.244687785130799e-12
-0.002323245750320781
-1.529841383007953e-12
-0.002323245749986155
-2.180536878704014e-12
-0.002323245749797718
-1.716945676460714e-12
-0.002323245749963622
-1.625751163422378e-12
-0.002323245749390127
-3.281428416908934e-12
-0.002323245749267833
2.577746588061113e-12
2.15161873364802e-11
-0.002391104312685727
2.2450045420541e-11
-0.002391104310598462
-1.29952358217233e-11
-0.00239110431161284
6.340486299266671e-12
-0.002391104311267333
-2.456992476711764e-12
-0.002391104311274899
5.360301462654249e-13
-0.002391104311399916
5.977220454636066e-13
-0.002391104311040921
-1.678917988513593e-12
-0.002391104311279907
1.334034227192939e-12
-0.002391104310822687
-2.121434016259082e-12
-0.002391104311051787
1.230472852042868e-12
-0.002391104310650575
-1.899868323894071e-12
-0.00239110431086362
1.226455695071528e-12
-0.002391104310484904
-1.878861923846763e-12
-0.002391104310634766
9.048918977076879e-13
-0.002391104310270241
-1.729014163275254e-12
-0.002391104310357579
5.544688904047137e-13
-0.002391104310056642
-1.339556352975778e-12
-0.002391104310079001
3.501642911917843e-13
-0.002391104309862029
-1.179122361347564e-12
-0.002391104309872592
3.074510800918357e-13
-0.002391104309603773
-1.073622969257637e-12
-0.002391104309608167
4.706323822832396e-14
-0.002391104309416672
-8.742993516865423e-13
-0.002391104309354762
-7.849712501440388e-14
-0.002391104309160014
-9.696543502905222e-13
-0.002391104309043411
-2.495795446229687e-13
-0.002391104308889644
-8.401282919513919e-13
-0.002391104308824255
-2.533062179301974e-13
-0.002391104308634501
-9.320230329961367e-13
-0.002391104308539596
-4.038065597058728e-13
-0.002391104308355863
-7.821495624716584e-13
-0.00239110430819255
-5.580360874179929e-13
-0.002391104308059488
-7.062088994399695e-13
-0.002391104307895201
-6.417442691967039e-13
-0.002391104307719052
-1.136174375369466e-12
-0.002391104307623889
-5.241239113317568e-13
-0.002391104307431583
-7.80730222106546e-13
-0.002391104307242349
-9.536821106422035e-13
-0.002391104307131149
-6.266802677937954e-13
-0.002391104306981472
-6.594774429654831e-13
-0.002391104306816725
-1.059717742265702e-12
-0.00239110430670109
-5.17388429432087e-13
-0.002391104306565626
-7.963813994323311e-13
-0.002391104306393959
-1.023978399876373e-12
-0.002391104306286048
-7.218174863015498e-13
-0.002391104306123833
-8.824208271918935e-13
-0.002391104305938738
-1.319625578791181e-12
-0.002391104305787117
-9.558308222809364e-13
-0.002391104305621733
-1.272414815860299e-12
-0.002391104305382747
-1.671404379251368e-12
-0.002391104305225102
-1.402961454457607e-12
-0.002391104304997789
-1.756404378116611e-12
-0.002391104304706387
-2.472321153475678e-12
-0.002391104304500947
-1.921245550748338e-12
-0.002391104304733173
-1.393037586560149e-12
-0.002391104304025734
-3.987348979364522e-12
-0.002391104303075307
1.62917894082439e-12
2.594967202450544e-11
-0.002453670229638013
2.741441712294621e-11
-0.002453670228165639
-1.446684019395828e-11
-0.002453670228940221
7.115760576044789e-12
-0.002453670228789681
-2.605812781747366e-12
-0.002453670228717392
4.649940929430772e-13
-0.002453670228883998
7.654302970250513e-13
-0.002453670228545763
-2.015542355586607e-12
-0.002453670228779291
1.567566551437655e-12
-0.002453670228325181
-2.574911616702057e-12
-0.002453670228587453
1.493192663618358e-12
-0.002453670228193215
-2.293526524498636e-12
-0.00245367022837647
1.409182746904688e-12
-0.002453670228081723
-2.17273078568009e-12
-0.002453670228200943
1.022544328041678e-12
-0.002453670227864048
-2.066044498846469e-12
-0.002453670227977571
6.66947171339119e-13
-0.002453670227685416
-1.631774032036569e-12
-0.002453670227695857
3.594332429944024e-13
-0.002453670227572105
-1.303449334272558e-12
-0.002453670227567407
3.020630132297393e-13
-0.002453670227332814
-1.309041361056343e-12
-0.002453670227362821
7.6480573904187e-14
-0.002453670227181908
-1.056582441238575e-12
-0.002453670227061001
-2.000171030663754e-13
-0.002453670226929624
-1.101458075099633e-12
-0.002453670226853645
-3.232176843145623e-13
-0.002453670226796902
-8.958762189808727e-13
-0.002453670226730933
-3.186310289694164e-13
-0.002453670226570235
-1.092315332341505e-12
-0.002453670226522021
-4.517099661354039e-13
-0.002453670226397871
-9.068759269157372e-13
-0.00245367022621902
-7.372114777257523e-13
-0.002453670226134372
-7.915741067777048e-13
-0.002453670226025529
-7.503519727836775e-13
-0.002453670225932038
-1.229895938992663e-12
-0.002453670225845998
-6.098571848614808e-13
-0.002453670225703433
-9.223497329189149e-13
-0.002453670225582467
-1.073883336860253e-12
-0.002453670225505041
-7.02123302360415e-13
-0.002453670225371795
-7.930807595088381e-13
-0.002453670225288383
-1.143414989894291e-12
-0.002453670225188134
-6.190166179447909e-13
-0.002453670225097596
-8.868075653117775e-13
-0.002453670224980548
-1.142171721379498e-12
-0.002453670224907003
-7.957454314288928e-13
-0.00245367022476341
-1.02687017553053e-12
-0.002453670224653797
-1.430285421527913e-12
-0.002453670224510148
-1.099878346489697e-12
-0.002453670224382768
-1.400392240147023e-12
-0.002453670224200314
-1.853408939259007e-12
-0.002453670224049417
-1.55421804120541e-12
-0.002453670223816424
-1.988428494452193e-12
-0.002453670223564723
-2.724026961773076e-12
-0.00245367022332206
-2.162566688648474e-12
-0.00245367022352633
-1.187904875878533e-12
-0.002453670222832862
-4.678957280899989e-12
-0.002453670221368281
1.666208993925478e-13
2.925390035994902e-11
-0.00252620524421062
3.138202719100099e-11
-0.00252620524368263
-1.499427678920565e-11
-0.00252620524417472
7.608156861938524e-12
-0.002526205244214013
-2.565546779763893e-12
-0.002526205244084886
3.364727661162865e-13
-0.002526205244276421
9.575019448682585e-13
-0.00252620524399538
-2.295629555686101e-12
-0.002526205244193635
1.765914423896306e-12
-0.002526205243802357
-2.965609536024154e-12
-0.002526205244048598
1.739825422490091e-12
-0.002526205243707511
-2.634091048778461e-12
-0.002526205243851051
1.552335959424391e-12
-0.002526205243643034
-2.380127782912721e-12
-0.00252620524371032
1.088818214570477e-12
-0.002526205243445796
-2.330549244880121e-12
-0.002526205243567185
7.876101052446897e-13
-0.002526205243372869
-1.826187491270173e-12
-0.00252620524335908
3.44775183213483e-13
-0.002526205243260993
-1.401996821860716e-12
-0.00252620524325038
2.909436570534221e-13
-0.002526205243141854
-1.41813188704173e-12
-0.002526205243143043
7.740772146993181e-14
-0.00252620524300122
-1.199241300852706e-12
-0.002526205242884678
-3.167118460410206e-13
-0.002526205242806843
-1.179273130132171e-12
-0.002526205242764083
-3.643389144302406e-13
-0.002526205242778562
-8.807636344923921e-13
-0.00252620524268819
-4.085379535393438e-13
-0.002526205242567043
-1.213181775559533e-12
-0.002526205242556096
-4.62556524222356e-13
-0.002526205242504075
-9.595211532569239e-13
-0.002526205242336747
-9.04982071285786e-13
-0.002526205242303797
-8.252797606982864e-13
-0.002526205242239747
-8.144986672043373e-13
-0.00252620524221134
-1.258787989927276e-12
-0.002526205242120784
-7.004075689891432e-13
-0.002526205242045178
-9.974230767045195e-13
-0.002526205241979364
-1.139044200751005e-12
-0.002526205241933246
-7.467797715459199e-13
-0.002526205241835546
-8.907520195583737e-13
-0.002526205241822036
-1.156776360971973e-12
-0.002526205241740543
-7.011022775425926e-13
-0.002526205241703092
-9.23784549906393e-13
-0.002526205241639901
-1.205702165769049e-12
-0.002526205241604843
-8.305864810545799e-13
-0.00252620524150082
-1.131075131446666e-12
-0.002526205241466031
-1.465422559953517e-12
-0.002526205241352825
-1.213293842166178e-12
-0.002526205241267099
-1.486596836376823e-12
-0.00252620524114008
-1.980350031265475e-12
-0.00252620524101878
-1.676001057924301e-12
-0.002526205240819204
-2.187640506339402e-12
-0.002526205240641405
-2.902137872133698e-12
-0.002526205240398044
-2.405263984050748e-12
-0.002526205240515631
-1.069980990328388e-12
-0.002526205240031209
-5.162413630653422e-12
-0.002526205238536263
-1.327220476447663e-12
3.096041791293452e-11
-0.002637620056624441
3.352992408174581e-11
-0.002637620057099172
-1.451899390691535e-11
-0.002637620057376861
7.886468922370003e-12
-0.002637620057492137
-2.449121276339759e-12
-0.002637620057399404
2.446613452550967e-13
-0.002637620057560949
1.119860430368186e-12
-0.002637620057367523
-2.487976069040878e-12
-0.00263762005750737
1.905966439247736e-12
-0.002637620057228249
-3.244241644684523e-12
-0.002637620057399294
1.911263038369996e-12
-0.002637620057153795
-2.879223741638472e-12
-0.002637620057248461
1.646799592356045e-12
-0.002637620057120588
-2.507669684376637e-12
-0.002637620057146047
1.113390823738037e-12
-0.002637620056981766
-2.495111912690193e-12
-0.002637620057066923
8.721293038762702e-13
-0.002637620056975457
-1.917905738875226e-12
-0.002637620056948416
3.169346321837498e-13
-0.002637620056887742
-1.463156986859814e-12
-0.002637620056873401
2.760131081659144e-13
-0.002637620056863999
-1.428217539013793e-12
-0.002637620056816136
2.902936236869059e-14
-0.002637620056735502
-1.280987158064558e-12
-0.002637620056668615
-3.840853233807682e-13
-0.002637620056646778
-1.201073225099953e-12
-0.002637620056595657
-4.139617705561066e-13
-0.002637620056637397
-8.382304697736129e-13
-0.002637620056541686
-5.037034015557646e-13
-0.002637620056496288
-1.258214999610725e-12
-0.002637620056480058
-4.785431078967808e-13
-0.002637620056478292
-9.617529891003339e-13
-0.002637620056354928
-1.02864799962912e-12
-0.002637620056358394
-8.223977821424234e-13
-0.002637620056303223
-8.695458562386407e-13
-0.002637620056310347
-1.251883168169122e-12
-0.002637620056241005
-7.695689083933852e-13
-0.002637620056225511
-1.012199354151544e-12
-0.00263762005617281
-1.191065742090769e-12
-0.002637620056174394
-7.438767320406878e-13
-0.002637620056118724
-9.464982813139079e-13
-0.002637620056143053
-1.132732482707455e-12
-0.002637620056099234
-7.45749954887626e-13
-0.002637620056117044
-9.06026366311741e-13
-0.002637620056082608
-1.240910445621595e-12
-0.00263762005610002
-8.134304467012526e-13
-0.002637620056050855
-1.180780710984507e-12
-0.002637620056061327
-1.455720292418447e-12
-0.002637620055999645
-1.275314433311606e-12
-0.002637620055975579
-1.511082211262235e-12
-0.002637620055898551
-2.057126649957673e-12
-0.002637620055842962
-1.731810911169827e-12
-0.002637620055718545
-2.311433406436873e-12
-0.002637620055627009
-2.99364702258051e-12
-0.002637620055459386
-2.571949979242067e-12
-0.002637620055500039
-1.028617313882916e-12
-0.002637620055332238
-5.328880693193063e-12
-0.002637620054342069
-2.316072940218964e-12
3.109441526146847e-11
-0.002830126152967137
3.354622514304599e-11
-0.00283012615417899
-1.330682927411417e-11
-0.002830126154368161
8.07588752381506e-12
-0.002830126154455844
-2.360962403211525e-12
-0.00283012615446777
2.569223478095768e-13
-0.002830126154557092
1.209474689980447e-12
-0.002830126154467926
-2.576645012848912e-12
-0.002830126154538335
1.976568268428565e-12
-0.002830126154376133
-3.406036638322236e-12
-0.002830126154464439
1.99990760133049e-12
-0.002830126154321352
-3.022023948262716e-12
-0.0028301261543626
1.687971762084626e-12
-0.002830126154306141
-2.563959842936341e-12
-0.002830126154302779
1.109634959941818e-12
-0.002830126154241567
-2.556458620816802e-12
-0.002830126154268881
8.990945005123491e-13
-0.002830126154246432
-1.940606257383092e-12
-0.002830126154220439
2.903848643857786e-13
-0.002830126154221476
-1.462490301048056e-12
-0.002830126154191086
2.452220286353245e-13
-0.002830126154227101
-1.3926217546715e-12
-0.002830126154155038
-4.32407418409934e-14
-0.002830126154142674
-1.293916190774364e-12
-0.00283012615409621
-4.306339756279706e-13
-0.002830126154126455
-1.170480467020934e-12
-0.002830126154074588
-4.649083730980767e-13
-0.002830126154130645
-7.816988042314315e-13
-0.002830126154040945
-5.930385068019691e-13
-0.002830126154066929
-1.232007266751359e-12
-0.00283012615403313
-5.122881104852807e-13
-0.002830126154055321
-9.400672197951585e-13
-0.002830126153973843
-1.110529715131714e-12
-0.002830126154013264
-7.835917618262371e-13
-0.002830126153956917
-9.260626970192988e-13
-0.002830126153979477
-1.229761858791715e-12
-0.002830126153934057
-8.150966957484952e-13
-0.002830126153967061
-9.788432266339763e-13
-0.002830126153918682
-1.238941443925648e-12
-0.002830126153965718
-6.959506894528741e-13
-0.002830126153945721
-9.66263276170399e-13
-0.002830126153993151
-1.085167939357124e-12
-0.002830126153991204
-7.478043282932606e-13
-0.002830126154055073
-8.418021244655352e-13
-0.002830126154041305
-1.254718350317379e-12
-0.002830126154107407
-7.470006787265069e-13
-0.002830126154107099
-1.180981582833483e-12
-0.002830126154150222
-1.412753462873449e-12
-0.002830126154142825
-1.28282294379828e-12
-0.002830126154176355
-1.477887007753877e-12
-0.002830126154144615
-2.088927991503988e-12
-0.002830126154160723
-1.716077304936075e-12
-0.002830126154113003
-2.359055172711267e-12
-0.002830126154102647
-3.004292822642304e-12
-0.002830126154042204
-2.632074259220626e-12
-0.002830126154039036
-1.0316101110999e-12
-0.002830126154156257
-5.211136293695408e-12
-0.00283012615391532
-2.556467485039743e-12
3.012996825058532e-11
-0.003153916868836711
3.173813662241713e-11
-0.003153916870494131
-1.164910499484985e-11
-0.003153916870652826
8.235031456860038e-12
-0.003153916870701811
-2.311361198482267e-12
-0.003153916870816704
3.723737020256711e-13
-0.003153916870834706
1.227976922867121e-12
-0.003153916870839354
-2.571383411869906e-12
-0.003153916870850803
1.988320967045509e-12
-0.003153916870786417
-3.470051850711624e-12
-0.003153916870816718
2.030550514794851e-12
-0.003153916870760887
-3.077617155141011e-12
-0.003153916870748829
1.67595588469533e-12
-0.003153916870754791
-2.558015117983723e-12
-0.003153916870727093
1.081567674974158e-12
-0.003153916870753201
-2.530676709188877e-12
-0.003153916870742157
8.877034317020943e-13
-0.003153916870776539
-1.906621175135122e-12
-0.003153916870737999
2.513269547599408e-13
-0.003153916870788192
-1.41267925700007e-12
-0.003153916870739277
1.95857815982898e-13
-0.003153916870809613
-1.322772944084205e-12
-0.003153916870733451
-1.197899328777054e-13
-0.003153916870781333
-1.246785484763106e-12
-0.00315391687074025
-4.720112966312816e-13
-0.003153916870806222
-1.104157597131459e-12
-0.003153916870747114
-5.231546460408175e-13
-0.003153916870832687
-6.9551421996386e-13
-0.003153916870762969
-6.62313325251811e-13
-0.003153916870820925
-1.173746425161464e-12
-0.00315391687077952
-5.535332139994449e-13
-0.003153916870832164
-8.8780670602192e-13
-0.003153916870764873
-1.178125675952178e-12
-0.003153916870834257
-7.146959917197443e-13
-0.003153916870792466
-9.678978839970609e-13
-0.003153916870831875
-1.190646524558473e-12
-0.003153916870807402
-8.395507575414741e-13
-0.003153916870870607
-9.151570569407524e-13
-0.003153916870833386
-1.275608367674746e-12
-0.003153916870916891
-6.116528611437403e-13
-0.003153916870925924
-9.570712202980939e-13
-0.003153916870994784
-1.016460001988269e-12
-0.003153916871030048
-7.128586795453432e-13
-0.003153916871129639
-7.423018631341443e-13
-0.003153916871140592
-1.244133679315434e-12
-0.003153916871247219
-6.403457022780887e-13
-0.003153916871285176
-1.143171479275573e-12
-0.003153916871355999
-1.342372570539437e-12
-0.003153916871394071
-1.244996469235721e-12
-0.003153916871472107
-1.400141203855212e-12
-0.00315391687147683
-2.084144009404456e-12
-0.003153916871549484
-1.643612091233577e-12
-0.00315391687156109
-2.347157495869036e-12
-0.003153916871613365
-2.952079629712432e-12
-0.003153916871640122
-2.604759652404264e-12
-0.003153916871608697
-1.062587527460207e-12
-0.003153916871905536
-4.913500330446143e-12
-0.003153916872285533
-2.175761601439204e-12
2.848921347622402e-11
-0.00365666908246472
2.881624838566584e-11
-0.003656669084429966
-9.683698932048968e-12
-0.003656669084510788
8.316101631536721e-12
-0.003656669084592693
-2.229190353182818e-12
-0.0036566690847548
5.34737130638376e-13
-0.003656669084739449
1.212854672524022e-12
-0.003656669084807328
-2.503195536014209e-12
-0.003656669084785752
1.967003694056975e-12
-0.003656669084797766
-3.457720161088247e-12
-0.003656669084797393
2.030502207001378e-12
-0.003656669084813183
-3.06162592375019e-12
-0.003656669084754669
1.617564970060315e-12
-0.003656669084818888
-2.493866479144755e-12
-0.003656669084772329
1.034895363734235e-12
-0.003656669084855925
-2.447334431362311e-12
-0.003656669084825013
8.5657844281623e-13
-0.003656669084921962
-1.810090967909956e-12
-0.003656669084865225
1.941737912881628e-13
-0.003656669084955651
-1.322583731338864e-12
-0.003656669084890706
1.305529615133659e-13
-0.003656669084992012
-1.221822827504215e-12
-0.003656669084924504
-1.875312994079328e-13
-0.003656669085027527
-1.144219094956778e-12
-0.003656669084993624
-5.059935950798966e-13
-0.003656669085082401
-1.014877416854842e-12
-0.003656669085007887
-5.970663779097535e-13
-0.003656669085131746
-5.711792456051365e-13
-0.003656669085089307
-7.044052198527396e-13
-0.003656669085160155
-1.102676068592617e-12
-0.003656669085128379
-5.852579887115804e-13
-0.003656669085215584
-8.010172661449629e-13
-0.003656669085150977
-1.243107643087346e-12
-0.003656669085248043
-6.181515554564033e-13
-0.003656669085229004
-9.871450329105264e-13
-0.003656669085282749
-1.137325283033291e-12
-0.003656669085282652
-8.397836340329106e-13
-0.003656669085372441
-8.250678796569834e-13
-0.003656669085347805
-1.299801319671767e-12
-0.003656669085460507
-4.983620197595512e-13
-0.003656669085499988
-9.172713307430974e-13
-0.003656669085587217
-9.291440042375705e-13
-0.003656669085660059
-6.399265914959953e-13
-0.003656669085794921
-6.072824779566997e-13
-0.003656669085827132
-1.211866232364212e-12
-0.003656669085971487
-4.955844966274417e-13
-0.00365666908604699
-1.067438777592762e-12
-0.003656669086136387
-1.253097123494309e-12
-0.00365666908621449
-1.16701040091682e-12
-0.003656669086326928
-1.287962071427417e-12
-0.003656669086352834
-2.058347636210462e-12
-0.003656669086462438
-1.534307657206103e-12
-0.003656669086512376
-2.297205987747424e-12
-0.003656669086592566
-2.872144658680028e-12
-0.003656669086663978
-2.533121268089637e-12
-0.003656669086600319
-1.126103738441663e-12
-0.003656669086960996
-4.552447522869667e-12
-0.003656669087586609
-1.549834037528122e-12
2.628932161470925e-11
-0.004367139406500796
2.569488938472271e-11
-0.004367139408708001
-7.476365033331354e-12
-0.004367139408609041
8.217404678186037e-12
-0.004367139408839975
-1.998000809626671e-12
-0.004367139408959474
6.545185781220119e-13
-0.004367139408972254
1.225898913916327e-12
-0.004367139409068904
-2.406233077069099e-12
-0.004367139409046134
1.94454723385483e-12
-0.004367139409108593
-3.394937113902799e-12
-0.00436713940910487
2.02711641255944e-12
-0.004367139409179787
-2.986488237153364e-12
-0.004367139409078593
1.516543894091238e-12
-0.004367139409199919
-2.372662606520885e-12
-0.004367139409149618
9.844935789260516e-13
-0.004367139409272394
-2.324866010407622e-12
-0.004367139409235922
8.198472726542851e-13
-0.004367139409402981
-1.643546663321902e-12
-0.004367139409333677
1.244719211153956e-13
-0.004367139409459129
-1.197460498312836e-12
-0.00436713940938301
5.408254161274509e-14
-0.00436713940950893
-1.096251698017367e-12