/*--------------------------------*- C++ -*----------------------------------*\
| =========                 |                                                 |
| \\      /  F ield         | OpenFOAM: The Open Source CFD Toolbox           |
|  \\    /   O peration     | Version:  v1812                                 |
|   \\  /    A nd           | Web:      www.OpenFOAM.com                      |
|    \\/     M anipulation  |                                                 |
\*---------------------------------------------------------------------------*/
FoamFile
{
    version     2.0;
    format      ascii;
    class       volVectorField;
    location    "10000";
    object      U;
}
// * * * * * * * * * * * * * * * * * * * * * * * * * * * * * * * * * * * * * //

dimensions      [0 1 -1 0 0 0 0];


internalField   nonuniform List<vector> 
2494
(
(-1.031438350243604 9.438456284333461e-11 -2.629859749128957e-06)
(-1.031438349412118 -7.626721664862734e-11 -2.62983335585756e-06)
(-1.031438349754279 3.465576037252159e-11 -2.62981035856975e-06)
(-1.031438349687691 -1.118357468133798e-11 -2.62983199776972e-06)
(-1.03143834965677 2.327051633239942e-12 -2.629811844779959e-06)
(-1.031438349759455 4.931759904237983e-12 -2.629829579398453e-06)
(-1.031438349669153 -7.200150115599542e-12 -2.62981270294672e-06)
(-1.031438349723769 8.534602433091983e-12 -2.629827988515553e-06)
(-1.031438349684778 -9.680942456250012e-12 -2.629812936868161e-06)
(-1.031438349656678 9.090085998533807e-12 -2.62982688009685e-06)
(-1.031438349693478 -8.40339405031084e-12 -2.629812860690962e-06)
(-1.031438349605765 7.254151291375087e-12 -2.629826027656416e-06)
(-1.031438349689657 -6.842889563423315e-12 -2.629812628099048e-06)
(-1.031438349574271 6.299935201720305e-12 -2.629825327953978e-06)
(-1.031438349667676 -6.925341695975576e-12 -2.629812308569835e-06)
(-1.031438349515751 5.76704380110709e-12 -2.62982473392257e-06)
(-1.031438349660992 -4.725929898075191e-12 -2.629811934713479e-06)
(-1.031438349475754 3.240818399084548e-12 -2.629824220355848e-06)
(-1.031438349634273 -3.068652322330614e-12 -2.629811527659314e-06)
(-1.031438349452806 3.327740335176814e-12 -2.629823767409883e-06)
(-1.031438349616302 -3.730868832923425e-12 -2.629811102056364e-06)
(-1.031438349417317 2.89691330221612e-12 -2.629823361246752e-06)
(-1.031438349593987 -2.743219710518364e-12 -2.629810666834341e-06)
(-1.031438349382634 1.569678143479468e-12 -2.629822990960914e-06)
(-1.031438349553725 -1.738229481249485e-12 -2.629810230360238e-06)
(-1.031438349330625 1.228165286393786e-12 -2.629822643920745e-06)
(-1.03143834952126 -1.391108319778155e-12 -2.629809798111874e-06)
(-1.031438349308011 1.423076449718314e-12 -2.629822309770866e-06)
(-1.031438349480831 -2.428220806291348e-12 -2.629809374358102e-06)
(-1.031438349254352 2.153493391376159e-12 -2.629821979876662e-06)
(-1.031438349457673 -9.327580591563472e-13 -2.629808957897779e-06)
(-1.03143834920685 -3.953422430694055e-13 -2.629821645814093e-06)
(-1.031438349395616 -4.16140368088544e-13 -2.629808548094162e-06)
(-1.031438349166601 7.841859070281198e-13 -2.629821295393811e-06)
(-1.031438349327296 -2.058686198700805e-12 -2.629808140682307e-06)
(-1.031438349093002 1.180433798203451e-12 -2.629820918680055e-06)
(-1.03143834927641 -1.092222654761822e-12 -2.629807730339575e-06)
(-1.031438349018237 -4.466421358129166e-13 -2.62982050633401e-06)
(-1.031438349192547 -4.814216970329016e-13 -2.629807305352718e-06)
(-1.031438348965221 2.165218253442788e-14 -2.629820043918316e-06)
(-1.031438349107369 -1.602147072524648e-12 -2.629806853910885e-06)
(-1.031438348890619 5.657908638229645e-13 -2.629819514845513e-06)
(-1.031438349053395 -8.609776939377033e-13 -2.629806359605198e-06)
(-1.031438348803468 -3.180838760584995e-13 -2.629818899277964e-06)
(-1.031438348966116 -1.95075751241343e-13 -2.629805795451622e-06)
(-1.031438348732008 2.970157298123943e-14 -2.62981816961293e-06)
(-1.031438348850847 -1.307860744648202e-12 -2.629805126025433e-06)
(-1.031438348602015 3.003023996725283e-13 -2.629817278292057e-06)
(-1.031438348716863 -1.421668959192008e-12 -2.629804287247837e-06)
(-1.031438348404477 -1.759716343297912e-12 -2.629816144293437e-06)
(-1.031438348473277 -2.582213236662437e-12 -2.629803173753816e-06)
(-1.031438348099442 -4.828413345486703e-12 -2.629814558427091e-06)
(-1.031438348007329 -1.149006282630018e-11 -2.629801293480983e-06)
(-1.031438347615677 -1.197707942724248e-11 -2.629812472612482e-06)
(-1.03143834727487 -2.614983618988919e-11 -2.629799820818809e-06)
(-1.031438345843251 -5.466428212506209e-11 -2.629803950178548e-06)
(-1.031438345723534 -2.322046703358977e-11 -2.629782775942288e-06)
(-1.031438347854857 1.01504657074355e-10 -2.629832699605506e-06)
(-1.086124609476549 2.724414826319747e-10 -7.818301108998868e-06)
(-1.086124608166456 -2.160580047084247e-10 -7.818276122769344e-06)
(-1.08612460901723 1.03793865052406e-10 -7.818235684673196e-06)
(-1.08612460855059 -3.77471351586574e-11 -7.818278172987932e-06)
(-1.086124608791975 1.111641621532035e-11 -7.818233519997414e-06)
(-1.08612460868985 1.103956805804176e-11 -7.81827577058279e-06)
(-1.08612460874814 -2.109557675224788e-11 -7.818232745065906e-06)
(-1.086124608619098 2.209331607883288e-11 -7.81827314440843e-06)
(-1.08612460872835 -2.875471129813688e-11 -7.818231942281289e-06)
(-1.086124608521758 2.338375185124947e-11 -7.8182707799676e-06)
(-1.086124608684858 -2.60832827884196e-11 -7.818230958090152e-06)
(-1.086124608425524 2.035937082653404e-11 -7.818268703566249e-06)
(-1.086124608678993 -2.254227605484095e-11 -7.818229817887965e-06)
(-1.086124608307443 1.606042247754414e-11 -7.818266876340404e-06)
(-1.086124608635982 -2.175122992879052e-11 -7.818228557271083e-06)
(-1.086124608194768 1.384013631270562e-11 -7.818265267868789e-06)
(-1.086124608573137 -1.603084766813848e-11 -7.818227209479096e-06)
(-1.086124608096792 8.261542507642772e-12 -7.81826383854637e-06)
(-1.086124608530849 -1.200879882879171e-11 -7.818225819566665e-06)
(-1.086124607992907 7.775826421512584e-12 -7.81826254644579e-06)
(-1.08612460848701 -1.164197104752686e-11 -7.818224414023862e-06)
(-1.086124607919478 5.264784854693759e-12 -7.818261368336883e-06)
(-1.086124608402365 -1.029620874406224e-11 -7.818223013431151e-06)
(-1.086124607832785 2.590247471860062e-12 -7.818260272677773e-06)
(-1.086124608329282 -8.320126278957789e-12 -7.818221645397701e-06)
(-1.086124607707593 8.598718885066964e-13 -7.818259228862357e-06)
(-1.086124608246955 -7.748545801624557e-12 -7.818220318492642e-06)
(-1.086124607588417 1.287751466115448e-12 -7.818258212680665e-06)
(-1.086124608144196 -9.028497926368055e-12 -7.818219044438878e-06)
(-1.0861246074801 1.648438450245064e-12 -7.818257210875156e-06)
(-1.086124608032549 -6.021675378042009e-12 -7.818217819481626e-06)
(-1.086124607361429 -4.124854678504779e-12 -7.818256198912007e-06)
(-1.086124607909771 -5.921529012875777e-12 -7.818216647934154e-06)
(-1.086124607225489 -3.059836690784329e-12 -7.818255149128104e-06)
(-1.086124607746223 -1.104392286390923e-11 -7.818215513115014e-06)
(-1.086124607033922 -1.429216297364007e-12 -7.818254039188127e-06)
(-1.086124607594041 -7.287765972316554e-12 -7.81821440186677e-06)
(-1.086124606892791 -6.77722563861289e-12 -7.818252856353304e-06)
(-1.086124607402723 -5.744002507472068e-12 -7.818213288239045e-06)
(-1.086124606758593 -5.294343460783349e-12 -7.818251561524741e-06)
(-1.086124607216001 -1.039617084836983e-11 -7.818212145433601e-06)
(-1.086124606563065 -3.304000730086819e-12 -7.81825011748933e-06)
(-1.086124607071299 -8.189805718544729e-12 -7.818210936234742e-06)
(-1.086124606373273 -8.42435273476825e-12 -7.818248493225722e-06)
(-1.086124606839973 -7.871978447684861e-12 -7.818209602712172e-06)
(-1.086124606182006 -8.492200585481319e-12 -7.818246637895827e-06)
(-1.086124606587835 -1.475287444276229e-11 -7.818208096687919e-06)
(-1.086124605870713 -1.114838027497467e-11 -7.818244486460122e-06)
(-1.086124606287122 -1.77233469707997e-11 -7.818206342577084e-06)
(-1.086124605501888 -2.245454887436205e-11 -7.818241985609409e-06)
(-1.086124605827298 -2.564439030010533e-11 -7.818204278050312e-06)
(-1.0861246050342 -3.350983155324488e-11 -7.818238995534987e-06)
(-1.086124605230252 -5.100898924908581e-11 -7.818201669731308e-06)
(-1.086124604483867 -5.139577066747938e-11 -7.818236286299172e-06)
(-1.086124604562106 -7.529168350270279e-11 -7.81820048436631e-06)
(-1.08612460323049 -9.757840142224982e-11 -7.818220295579301e-06)
(-1.086124604103564 5.278600284355647e-11 -7.818201117236565e-06)
(-1.086124606457 3.76980806739308e-10 -7.818315418665679e-06)
(-1.133337328582752 4.641317804349784e-10 -1.29680724441103e-05)
(-1.133337327201742 -3.349996138986205e-10 -1.296805167194708e-05)
(-1.133337328263364 1.621642027444677e-10 -1.296799261753625e-05)
(-1.133337327569184 -6.213341292851788e-11 -1.296805269334677e-05)
(-1.133337328006847 1.843425487904766e-11 -1.296798846688536e-05)
(-1.133337327680275 1.50366357939803e-11 -1.296804969632157e-05)
(-1.133337327958263 -3.616371725390424e-11 -1.29679856360455e-05)
(-1.133337327556603 3.327760957270829e-11 -1.296804645644355e-05)
(-1.133337327923431 -4.719903614921324e-11 -1.296798291223894e-05)
(-1.133337327450289 3.312882793403656e-11 -1.296804341094607e-05)
(-1.133337327832657 -4.262095524221905e-11 -1.296798013050746e-05)
(-1.133337327330948 3.072024207072027e-11 -1.296804060899261e-05)
(-1.133337327824668 -4.036526355762039e-11 -1.296797729994308e-05)
(-1.133337327151997 2.434751402345306e-11 -1.296803803204215e-05)
(-1.133337327769067 -3.771532041108173e-11 -1.296797443511681e-05)
(-1.133337327010602 1.785369743916363e-11 -1.296803566981966e-05)
(-1.133337327659131 -2.768571351893855e-11 -1.296797156500073e-05)
(-1.133337326877083 1.115425050042077e-11 -1.296803347675421e-05)
(-1.133337327612567 -2.415445755594556e-11 -1.296796875370616e-05)
(-1.133337326702694 1.129854451971504e-11 -1.296803140206608e-05)
(-1.133337327556109 -2.107193732936676e-11 -1.296796602679718e-05)
(-1.133337326612343 4.002922101696354e-12 -1.296802943451244e-05)
(-1.133337327420602 -1.810681499379887e-11 -1.296796340674358e-05)
(-1.13333732650756 1.681276486814802e-12 -1.296802753472034e-05)
(-1.13333732734757 -1.845967646332264e-11 -1.296796093826121e-05)
(-1.133337326321192 -1.069656415640096e-12 -1.296802566673333e-05)
(-1.133337327240481 -1.721645076465132e-11 -1.29679586202468e-05)
(-1.133337326135429 -1.141165791562849e-12 -1.296802381652494e-05)
(-1.133337327086462 -1.85032669561868e-11 -1.296795646610104e-05)
(-1.133337326003097 -4.424268868830103e-12 -1.296802198476418e-05)
(-1.133337326888458 -1.344270468425951e-11 -1.29679544689761e-05)
(-1.133337325841916 -9.219282135426771e-12 -1.296802014503765e-05)
(-1.133337326776532 -1.451575506637551e-11 -1.296795265063857e-05)
(-1.133337325669964 -1.002404416856403e-11 -1.296801827929815e-05)
(-1.133337326567725 -2.327968624171102e-11 -1.296795097079728e-05)
(-1.133337325402553 -8.736678492791787e-12 -1.296801636702659e-05)
(-1.133337326361282 -1.674731268793415e-11 -1.296794942142318e-05)
(-1.133337325256273 -1.857984658257191e-11 -1.296801442095716e-05)
(-1.133337326085822 -1.325649778536053e-11 -1.296794797014676e-05)
(-1.133337325100144 -1.290455014272827e-11 -1.296801239618773e-05)
(-1.133337325901137 -2.337516009696942e-11 -1.296794660416716e-05)
(-1.133337324842673 -9.733091594574577e-12 -1.296801025890715e-05)
(-1.133337325735755 -1.845958373031191e-11 -1.29679452715644e-05)
(-1.133337324653352 -2.180965505270223e-11 -1.296800800299376e-05)
(-1.133337325446362 -1.786159116398824e-11 -1.296794391067529e-05)
(-1.133337324462435 -2.050610885174911e-11 -1.296800558131613e-05)
(-1.13333732520563 -3.224746221031863e-11 -1.296794249787537e-05)
(-1.133337324137504 -2.419086959201971e-11 -1.296800294594621e-05)
(-1.133337324930003 -3.463059970852977e-11 -1.296794097109463e-05)
(-1.133337323834446 -4.365587473441932e-11 -1.296800010374234e-05)
(-1.133337324530903 -4.298222170436881e-11 -1.296793932008577e-05)
(-1.133337323512244 -5.285677530929736e-11 -1.296799690725977e-05)
(-1.133337324138262 -7.563579966990653e-11 -1.296793744420554e-05)
(-1.133337323188327 -6.636030031514007e-11 -1.296799490738169e-05)
(-1.133337323809063 -8.345953957210113e-11 -1.296793758593904e-05)
(-1.133337322560331 -1.104506887419715e-10 -1.296796829617018e-05)
(-1.133337323513416 1.139761544150943e-10 -1.296795456674618e-05)
(-1.133337324974464 6.313508459899754e-10 -1.296813302765892e-05)
(-1.172174823919041 6.783390502459847e-10 -1.793748254467592e-05)
(-1.172174822521265 -4.490359731936218e-10 -1.79374637046552e-05)
(-1.172174823707796 2.197678916162926e-10 -1.793738649970334e-05)
(-1.172174822835004 -8.771845933575242e-11 -1.793746358863403e-05)
(-1.17217482348836 2.482059957393992e-11 -1.793738029402076e-05)
(-1.1721748229004 1.919041540933264e-11 -1.793745969327776e-05)
(-1.172174823436313 -5.315024223022357e-11 -1.793737506969318e-05)
(-1.172174822770859 4.443785172709866e-11 -1.79374558665341e-05)
(-1.172174823398458 -6.661025631829568e-11 -1.793736979890653e-05)
(-1.172174822626744 4.155414475641007e-11 -1.793745234080735e-05)
(-1.172174823320928 -5.991026210935365e-11 -1.793736448944522e-05)
(-1.172174822483946 4.108835825309809e-11 -1.793744903382177e-05)
(-1.172174823309926 -6.038713528705745e-11 -1.793735925852421e-05)
(-1.172174822289221 3.245932705813046e-11 -1.793744584903963e-05)
(-1.172174823252364 -5.457924478261986e-11 -1.793735417436958e-05)
(-1.172174822125988 2.006838680308728e-11 -1.793744274830838e-05)
(-1.172174823136449 -4.041257429656964e-11 -1.793734928673074e-05)
(-1.172174821968246 1.364347271782407e-11 -1.793743967552309e-05)
(-1.172174823074791 -3.798028810228667e-11 -1.793734467367014e-05)
(-1.172174821797896 1.367424235435868e-11 -1.793743658918183e-05)
(-1.172174822990609 -3.215855915707126e-11 -1.793734034925958e-05)
(-1.172174821666693 2.444921994768622e-12 -1.793743349233499e-05)
(-1.172174822880561 -2.629873157387554e-11 -1.793733633436327e-05)
(-1.172174821547996 4.741540057554692e-13 -1.793743037519364e-05)
(-1.17217482278768 -2.953006166995087e-11 -1.793733265468369e-05)
(-1.172174821363614 -4.743897306703265e-12 -1.793742722179657e-05)
(-1.172174822647009 -2.7516460695898e-11 -1.793732929436479e-05)
(-1.172174821189883 -5.208539158233884e-12 -1.793742404731698e-05)
(-1.172174822482237 -2.992451266581402e-11 -1.793732626571668e-05)
(-1.172174821037392 -1.014625656064485e-11 -1.793742087938398e-05)
(-1.172174822290197 -2.254272150921176e-11 -1.793732355145637e-05)
(-1.172174820851777 -1.684689255399222e-11 -1.793741771870195e-05)
(-1.17217482215919 -2.381809442620062e-11 -1.793732117405386e-05)
(-1.172174820716034 -1.753279643965306e-11 -1.793741458645422e-05)
(-1.172174821932185 -3.547426608268874e-11 -1.793731908772659e-05)
(-1.172174820475872 -1.733755718288157e-11 -1.793741148016232e-05)
(-1.172174821746413 -2.637683738613424e-11 -1.79373172999227e-05)
(-1.172174820312443 -2.978905069778245e-11 -1.793740844642845e-05)
(-1.17217482149137 -2.073567350052042e-11 -1.793731577923112e-05)
(-1.172174820169081 -2.118179942046564e-11 -1.793740547528712e-05)
(-1.172174821318367 -3.624506403860224e-11 -1.793731453164512e-05)
(-1.172174819961754 -1.596045270854116e-11 -1.793740256210376e-05)
(-1.172174821156927 -2.794798413948469e-11 -1.793731351573996e-05)
(-1.172174819797326 -3.411211870633945e-11 -1.79373997283563e-05)
(-1.172174820925556 -2.555985271749584e-11 -1.793731268816339e-05)
(-1.172174819650829 -3.014259903883332e-11 -1.793739695153963e-05)
(-1.172174820720518 -4.708850704536983e-11 -1.793731202963402e-05)
(-1.172174819420745 -3.287933682380243e-11 -1.79373941932502e-05)
(-1.172174820518818 -4.689363179402853e-11 -1.793731147201973e-05)
(-1.172174819193615 -6.049646857100469e-11 -1.793739144507459e-05)
(-1.172174820223526 -5.248839800015197e-11 -1.793731095762143e-05)
(-1.172174818987897 -6.493623418615841e-11 -1.79373884186177e-05)
(-1.172174819934003 -9.309656950141261e-11 -1.793731033251652e-05)
(-1.172174818800913 -7.499394319306871e-11 -1.793738718381831e-05)
(-1.172174819699307 -7.96811946500129e-11 -1.793731176067386e-05)
(-1.172174818416504 -1.313689517798649e-10 -1.793734996270219e-05)
(-1.172174819223285 1.333044056791308e-10 -1.793734368013923e-05)
(-1.172174819782091 8.767708888698035e-10 -1.793758026686354e-05)
(-1.202278543932323 9.110122676816314e-10 -2.259607858833933e-05)
(-1.202278542644331 -5.556023522052211e-10 -2.259605166604728e-05)
(-1.202278543974914 2.728328183833035e-10 -2.259595710600442e-05)
(-1.20227854286375 -1.089372521196788e-10 -2.259605262358718e-05)
(-1.202278543832505 2.757368650932008e-11 -2.259594703788502e-05)
(-1.202278542896266 2.468783996327302e-11 -2.259604878137178e-05)
(-1.202278543793732 -7.116222546423049e-11 -2.259593818206519e-05)
(-1.202278542767321 5.598653510710641e-11 -2.2596044894886e-05)
(-1.202278543767796 -8.664198996451519e-11 -2.259592947357815e-05)
(-1.202278542587615 5.083648371769602e-11 -2.259604105963379e-05)
(-1.202278543732105 -7.857389437131629e-11 -2.259592105323552e-05)
(-1.202278542428819 5.068469268682021e-11 -2.259603710778434e-05)
(-1.202278543712819 -7.84647258157458e-11 -2.259591308892247e-05)
(-1.202278542266448 3.94051060366674e-11 -2.259603292312044e-05)
(-1.202278543658725 -7.203751288102224e-11 -2.259590565026415e-05)
(-1.202278542092723 2.385005238995633e-11 -2.259602848635852e-05)
(-1.202278543580704 -5.467802800174342e-11 -2.2595898752078e-05)
(-1.202278541924787 1.473230961662707e-11 -2.259602378903142e-05)
(-1.202278543489516 -5.03238352746509e-11 -2.259589242412054e-05)
(-1.202278541815157 1.54481169100769e-11 -2.259601885307352e-05)
(-1.202278543392243 -4.390884019717035e-11 -2.259588663896565e-05)
(-1.202278541645611 7.871659980398011e-13 -2.259601370967817e-05)
(-1.202278543311333 -3.439256262371084e-11 -2.259588138120208e-05)
(-1.202278541527639 -8.448947339177756e-13 -2.259600842390109e-05)
(-1.202278543190072 -4.067163744845825e-11 -2.259587662755512e-05)
(-1.202278541382755 -1.024460321580393e-11 -2.259600302037217e-05)
(-1.202278543025606 -3.672514739156218e-11 -2.259587233383996e-05)
(-1.202278541270979 -9.081122781274742e-12 -2.259599755600825e-05)
(-1.202278542903495 -3.896719104253495e-11 -2.259586850756998e-05)
(-1.202278541143644 -1.55882624200283e-11 -2.259599209466582e-05)
(-1.202278542764214 -3.169986297195167e-11 -2.259586510118173e-05)
(-1.202278540978149 -2.376430399401661e-11 -2.25959866730484e-05)
(-1.202278542591507 -3.273577418054668e-11 -2.259586212596899e-05)
(-1.202278540865868 -2.546784787236347e-11 -2.259598135516822e-05)
(-1.202278542383075 -4.648530527995201e-11 -2.259585954992879e-05)
(-1.202278540734128 -2.228791608097659e-11 -2.259597618352509e-05)
(-1.202278542254776 -3.382556310296534e-11 -2.259585739568822e-05)
(-1.202278540550671 -4.148228341842934e-11 -2.259597121755631e-05)
(-1.202278542060665 -2.617782614791947e-11 -2.25958556382372e-05)
(-1.2022785404524 -2.751649992336909e-11 -2.259596651648415e-05)
(-1.20227854187966 -4.736391927259993e-11 -2.259585430917915e-05)
(-1.202278540325354 -2.092536813934465e-11 -2.259596211310472e-05)
(-1.202278541738439 -3.434918584322786e-11 -2.259585341372791e-05)
(-1.202278540192928 -4.509698171540965e-11 -2.259595807354129e-05)
(-1.202278541570722 -3.04912155251072e-11 -2.2595852951814e-05)
(-1.202278540091845 -3.724542243033131e-11 -2.259595443483345e-05)
(-1.202278541382899 -5.845933323915003e-11 -2.259585294497846e-05)
(-1.202278539938983 -4.013742345418335e-11 -2.259595120826592e-05)
(-1.202278541211524 -5.515557354486262e-11 -2.25958533761398e-05)
(-1.202278539771851 -7.275548929388304e-11 -2.259594842661703e-05)
(-1.202278540983479 -5.942907672438886e-11 -2.259585421360058e-05)
(-1.202278539607812 -7.449093827164362e-11 -2.25959457631655e-05)
(-1.202278540706573 -1.081899747580591e-10 -2.259585533163524e-05)
(-1.202278539459267 -8.228650894922856e-11 -2.259594566206621e-05)
(-1.20227854046527 -6.919051427637354e-11 -2.259585901098628e-05)
(-1.202278539157634 -1.650633265597992e-10 -2.25959018490751e-05)
(-1.202278539824942 1.087768088637978e-10 -2.259590256137462e-05)
(-1.20227853965913 1.104075621444338e-09 -2.259618801645351e-05)
(-1.223205107850156 1.150411971862998e-09 -2.671316318684572e-05)
(-1.223205106847071 -6.444615393050681e-10 -2.67131133045354e-05)
(-1.223205108439572 3.16469704363341e-10 -2.671299557949715e-05)
(-1.223205106917352 -1.206159261088253e-10 -2.671311975920345e-05)
(-1.223205108426734 2.580397597664787e-11 -2.671297917576929e-05)
(-1.223205106903423 3.107868746741101e-11 -2.671311714431102e-05)
(-1.223205108417033 -8.684798734230455e-11 -2.671296587027588e-05)
(-1.223205106795966 6.662490254418683e-11 -2.671311319359217e-05)
(-1.223205108393747 -1.082807253040577e-10 -2.671295379993718e-05)
(-1.223205106609582 6.300887301931191e-11 -2.671310830573953e-05)
(-1.223205108402867 -9.792758012937201e-11 -2.671294288614126e-05)
(-1.223205106449434 5.986884160951055e-11 -2.67131025360946e-05)
(-1.22320510836259 -9.38908977922645e-11 -2.671293306980006e-05)
(-1.223205106362727 4.574850265034575e-11 -2.671309597604572e-05)
(-1.223205108289716 -8.856752470540234e-11 -2.671292424854637e-05)
(-1.223205106206116 2.885719137061592e-11 -2.671308874789387e-05)
(-1.223205108248721 -7.005698471980105e-11 -2.671291629688618e-05)
(-1.223205106041175 1.526967231352076e-11 -2.671308097314597e-05)
(-1.223205108151133 -5.729805853251454e-11 -2.671290912550953e-05)
(-1.223205106020706 1.486751049645332e-11 -2.67130727980936e-05)
(-1.223205108045634 -5.612337531113463e-11 -2.671290262601083e-05)
(-1.22320510588023 2.987615119933014e-12 -2.671306428475877e-05)
(-1.223205107995784 -4.458418982910875e-11 -2.671289673371004e-05)
(-1.223205105770773 -5.713164440581924e-12 -2.67130555768533e-05)
(-1.223205107818952 -4.777727544608657e-11 -2.671289134602551e-05)
(-1.223205105688364 -1.499829267852301e-11 -2.671304674823072e-05)
(-1.223205107697907 -4.170761599698717e-11 -2.671288642397066e-05)
(-1.223205105672442 -1.239309699331623e-11 -2.671303788409216e-05)
(-1.223205107579842 -4.702912426335634e-11 -2.671288192956068e-05)
(-1.22320510557035 -1.797307674650277e-11 -2.671302905804068e-05)
(-1.223205107492099 -3.995264282409884e-11 -2.671287780807847e-05)
(-1.22320510546477 -3.213196071501737e-11 -2.671302034401833e-05)
(-1.223205107304644 -3.633906414781925e-11 -2.671287404890373e-05)
(-1.223205105401496 -3.255871445227698e-11 -2.671301182123958e-05)
(-1.223205107153982 -5.503280516403009e-11 -2.671287064239551e-05)
(-1.223205105352313 -2.561590897158103e-11 -2.671300355256331e-05)
(-1.223205107038966 -4.004510098489333e-11 -2.671286760206665e-05)
(-1.223205105216326 -4.799213060807589e-11 -2.671299560653301e-05)
(-1.223205106915859 -3.092957082390039e-11 -2.671286493214097e-05)
(-1.2232051051542 -3.447094930315713e-11 -2.671298807170479e-05)
(-1.22320510675101 -5.258873381228367e-11 -2.671286267702889e-05)
(-1.223205105108359 -2.649707152227597e-11 -2.671298101845706e-05)
(-1.223205106629826 -3.99434332611928e-11 -2.671286089214966e-05)
(-1.223205105018592 -5.142891920012735e-11 -2.671297454724965e-05)
(-1.223205106518426 -3.513863395118854e-11 -2.671285964114577e-05)
(-1.223205104954787 -4.46295237493388e-11 -2.671296876570673e-05)
(-1.223205106348673 -6.456369057240609e-11 -2.671285902291052e-05)
(-1.223205104877886 -4.691865527809137e-11 -2.671296378636201e-05)
(-1.223205106189793 -6.243416432269983e-11 -2.671285915081346e-05)
(-1.22320510474704 -8.22750185495475e-11 -2.671295977028709e-05)
(-1.223205106020032 -6.704987549544565e-11 -2.671286017396011e-05)
(-1.223205104594396 -8.563099523808351e-11 -2.671295660087577e-05)
(-1.223205105738521 -1.202332851222283e-10 -2.67128621618881e-05)
(-1.223205104479038 -9.262588936951759e-11 -2.671295689666143e-05)
(-1.223205105473919 -5.875222878022007e-11 -2.671286815851051e-05)
(-1.223205104172817 -2.007630224887426e-10 -2.671291310370668e-05)
(-1.223205104811993 5.073904382681057e-11 -2.671291233297729e-05)
(-1.22320510412381 1.293319287083317e-09 -2.671323368943719e-05)
(-1.235258315094527 1.367259830360379e-09 -3.002001744209795e-05)
(-1.235258314352981 -6.965497614468959e-10 -3.001994374175574e-05)
(-1.235258316510082 3.468417230511902e-10 -3.001978139755421e-05)
(-1.235258314249949 -1.223443230160186e-10 -3.001995870742523e-05)
(-1.23525831661276 1.993352896076371e-11 -3.001975923276071e-05)
(-1.235258314214355 4.048542267055459e-11 -3.001995563393996e-05)
(-1.235258316616144 -1.013740929018381e-10 -3.001974391797046e-05)
(-1.235258314163304 7.653665718138739e-11 -3.001994908703011e-05)
(-1.235258316567819 -1.284235511488505e-10 -3.001973124449399e-05)
(-1.235258314029093 7.547932396187287e-11 -3.001994056899408e-05)
(-1.235258316574718 -1.158833172649405e-10 -3.001972043841511e-05)
(-1.235258313911595 6.817553742185205e-11 -3.00199306452075e-05)
(-1.235258316507629 -1.059838107238188e-10 -3.001971104285744e-05)
(-1.235258313899929 5.018685538886976e-11 -3.001991970130497e-05)
(-1.235258316397789 -1.022581665868677e-10 -3.001970274260572e-05)
(-1.235258313804275 3.50759853469813e-11 -3.001990800561816e-05)
(-1.235258316376936 -8.162702138672856e-11 -3.001969530028126e-05)
(-1.235258313729232 1.458030180938384e-11 -3.001989578601393e-05)
(-1.235258316263733 -6.285329049537316e-11 -3.00196885207319e-05)
(-1.235258313728673 1.410864907545605e-11 -3.00198832330959e-05)
(-1.235258316160535 -6.399864751945768e-11 -3.001968226645663e-05)
(-1.235258313708008 3.533222259990666e-12 -3.001987046116548e-05)
(-1.235258316088977 -5.311940065854754e-11 -3.001967643754658e-05)
(-1.235258313634081 -1.071044921873101e-11 -3.001985760324651e-05)
(-1.235258315923503 -5.225974577457354e-11 -3.001967090058939e-05)
(-1.235258313603049 -1.751218410716914e-11 -3.001984475637406e-05)
(-1.235258315839064 -4.313382502348516e-11 -3.001966563153469e-05)
(-1.235258313655126 -1.59977634213679e-11 -3.001983200826091e-05)
(-1.235258315702654 -5.311567749760923e-11 -3.001966055636589e-05)
(-1.235258313589151 -1.954738698035459e-11 -3.001981940048841e-05)
(-1.235258315657357 -4.433990502835975e-11 -3.001965564725575e-05)
(-1.235258313554046 -3.977765065231135e-11 -3.001980702239302e-05)
(-1.235258315484651 -3.758103207322949e-11 -3.001965086053689e-05)
(-1.235258313542652 -3.615463741083932e-11 -3.001979492283808e-05)
(-1.235258315381421 -5.811796851819497e-11 -3.001964621924773e-05)
(-1.235258313556326 -3.011351536513181e-11 -3.001978315059693e-05)
(-1.235258315267487 -4.508334033467438e-11 -3.001964170931742e-05)
(-1.235258313485259 -5.193449164792014e-11 -3.0019771749129e-05)
(-1.235258315201892 -3.432479285629642e-11 -3.001963736604722e-05)
(-1.235258313455909 -3.97226521146243e-11 -3.001976078403322e-05)
(-1.235258315073852 -5.432979407045751e-11 -3.00196332140961e-05)
(-1.235258313478269 -3.142901372757751e-11 -3.001975032505855e-05)
(-1.235258314976334 -4.285942197006465e-11 -3.001962932155863e-05)
(-1.2352583134393 -5.538456033287211e-11 -3.001974044484923e-05)
(-1.235258314920317 -3.834961760837422e-11 -3.001962578054565e-05)
(-1.235258313415809 -5.047069886199956e-11 -3.001973125620749e-05)
(-1.23525831479104 -6.756565252067696e-11 -3.001962270639705e-05)
(-1.235258313412853 -5.380815803717768e-11 -3.001972291252299e-05)
(-1.235258314667701 -6.734050393974766e-11 -3.001962028653762e-05)
(-1.235258313322568 -8.927527489983043e-11 -3.001971562873253e-05)
(-1.235258314555413 -7.44152819249067e-11 -3.001961881218322e-05)
(-1.235258313204604 -9.599147977049381e-11 -3.001970954308469e-05)
(-1.235258314311508 -1.303822429886778e-10 -3.001961852538195e-05)
(-1.235258313154286 -1.049197294427667e-10 -3.001970704538124e-05)
(-1.235258314063606 -5.13518048969081e-11 -3.001962355297875e-05)
(-1.23525831279727 -2.316970632536861e-10 -3.001966795832369e-05)
(-1.235258313571551 -2.345758172102429e-11 -3.001965185541401e-05)
(-1.23525831267279 1.417350538763411e-09 -3.001998718377739e-05)
(-1.240360651767239 1.518734921017223e-09 -3.244906016127807e-05)
(-1.240360650881478 -6.969018255607663e-10 -3.244899192198193e-05)
(-1.240360653989857 3.624618819436852e-10 -3.244875468262506e-05)
(-1.240360650683034 -1.165913990034702e-10 -3.24490104573881e-05)
(-1.240360654091801 1.330672088497247e-11 -3.244873339672377e-05)
(-1.24036065071519 4.997574274278813e-11 -3.244900136069244e-05)
(-1.240360654055868 -1.12298074939914e-10 -3.244872141108907e-05)
(-1.240360650747699 8.43067284833772e-11 -3.244898823550117e-05)
(-1.240360653961621 -1.442941065998972e-10 -3.244871198401802e-05)
(-1.24036065071327 8.554476818428644e-11 -3.244897341044709e-05)
(-1.240360653909884 -1.298397253319682e-10 -3.244870401798036e-05)
(-1.240360650678079 7.40680310509508e-11 -3.244895758379561e-05)
(-1.240360653810711 -1.13788107267993e-10 -3.244869699971362e-05)
(-1.240360650731303 5.19896509302646e-11 -3.244894115333566e-05)
(-1.240360653676764 -1.122918503724554e-10 -3.244869062083542e-05)
(-1.240360650722507 3.940584167972203e-11 -3.244892435986882e-05)
(-1.240360653633232 -8.836682119259517e-11 -3.244868468108629e-05)
(-1.240360650738192 1.443303157696865e-11 -3.244890740925501e-05)
(-1.2403606535183 -6.610564334327306e-11 -3.24486789848448e-05)
(-1.240360650767686 1.344521784031432e-11 -3.244889043582288e-05)
(-1.240360653420657 -6.720961706134299e-11 -3.244867344159383e-05)
(-1.240360650835778 2.465645227073699e-12 -3.24488735605139e-05)
(-1.240360653310815 -5.797442149690544e-11 -3.244866795176853e-05)
(-1.24036065081722 -1.524225587743875e-11 -3.244885684927544e-05)
(-1.24036065320237 -5.418302388522464e-11 -3.244866242733756e-05)
(-1.240360650837686 -1.956246002928542e-11 -3.244884037854564e-05)
(-1.240360653114812 -4.176906354428357e-11 -3.244865683943516e-05)
(-1.240360650911717 -2.062506621357009e-11 -3.244882420738379e-05)
(-1.240360652981021 -5.729450435782334e-11 -3.244865114134724e-05)
(-1.240360650916215 -2.089735482330828e-11 -3.244880833342163e-05)
(-1.240360652936201 -4.484995390059487e-11 -3.244864532695756e-05)
(-1.240360650927061 -4.541949039810878e-11 -3.244879281896051e-05)
(-1.240360652812101 -3.768768228590299e-11 -3.244863934946866e-05)