/*--------------------------------*- C++ -*----------------------------------*\
| =========                 |                                                 |
| \\      /  F ield         | OpenFOAM: The Open Source CFD Toolbox           |
|  \\    /   O peration     | Version:  v1812                                 |
|   \\  /    A nd           | Web:      www.OpenFOAM.com                      |
|    \\/     M anipulation  |                                                 |
\*---------------------------------------------------------------------------*/
FoamFile
{
    version     2.0;
    format      ascii;
    class       volVectorField;
    location    "10000";
    object      wallShearStress;
}
// * * * * * * * * * * * * * * * * * * * * * * * * * * * * * * * * * * * * * //

dimensions      [0 2 -2 0 0 0 0];


internalField   uniform (0 0 0);

boundaryField
{
    inlet
    {
        type            cyclic;
    }
    outlet
    {
        type            cyclic;
    }
    bottomWall
    {
        type            calculated;
        value           nonuniform List<vector> 
58
(
(0.0009780133176827256 -4.652235556965683e-12 8.181211285019908e-08)
(0.0009780132917269475 3.395130413196685e-12 8.18112917834235e-08)
(0.0009780133022847493 -1.567943600640199e-12 8.181057636267674e-08)
(0.0009780133002820089 5.100452158219832e-13 8.181124953491614e-08)
(0.0009780132992854942 -1.30500120467061e-13 8.18106225970285e-08)
(0.0009780133024987925 -2.104254019001472e-13 8.181117430202112e-08)
(0.0009780132996797008 3.155478402550082e-13 8.181064929368145e-08)
(0.0009780133013833968 -3.614006727886055e-13 8.181112481134336e-08)
(0.0009780133001680226 4.333164782698979e-13 8.181065657073465e-08)
(0.0009780132992931708 -3.811630689921836e-13 8.181109032959194e-08)
(0.0009780133004404429 3.72665678614141e-13 8.181065420094847e-08)
(0.0009780132977088027 -2.990823613194443e-13 8.181106381105829e-08)
(0.0009780133003209133 2.987441927818525e-13 8.181064696526176e-08)
(0.0009780132967300258 -2.509049741408016e-13 8.181104204404993e-08)
(0.0009780132996366588 3.149600825785067e-13 8.181063702503932e-08)
(0.0009780132949075288 -2.360441262937203e-13 8.181102356433949e-08)
(0.000978013299430114 2.149616334517796e-13 8.181062539476596e-08)
(0.0009780132936633979 -1.217743079161818e-13 8.181100758780888e-08)
(0.0009780132985968931 1.381480380654146e-13 8.181061273173372e-08)
(0.000978013292951022 -1.295212310941737e-13 8.181099349713402e-08)
(0.0009780132980380812 1.715538234753395e-13 8.18105994916733e-08)
(0.0009780132918455874 -1.095946540267671e-13 8.181098086181626e-08)
(0.0009780132973443863 1.302058977745652e-13 8.181058595237167e-08)
(0.0009780132907663986 -4.604531862964771e-14 8.181096934260296e-08)
(0.0009780132960909005 9.672321749607115e-14 8.181057237410949e-08)
(0.0009780132891485948 -3.557158866883625e-14 8.181095854652819e-08)
(0.0009780132950803634 6.840803040776968e-14 8.181055892730973e-08)
(0.0009780132884459325 -3.988603105190403e-14 8.181094815147223e-08)
(0.0009780132938220442 1.261245484640204e-13 8.181054574476341e-08)
(0.0009780132867745217 -7.835945866374598e-14 8.181093788878909e-08)
(0.0009780132931037934 6.117958555598649e-14 8.181053278911755e-08)
(0.0009780132852971848 4.577954580159734e-14 8.181092749643597e-08)
(0.0009780132911702292 3.63171555786652e-14 8.1810520040534e-08)
(0.0009780132840463611 -1.802608889020836e-16 8.18109165952158e-08)
(0.0009780132890449874 1.202374182230085e-13 8.181050736635219e-08)
(0.0009780132817544492 -2.486996917306489e-14 8.181090487601612e-08)
(0.0009780132874630718 8.070186312840806e-14 8.181049460100333e-08)
(0.0009780132794283774 5.823176386235735e-14 8.18108920483336e-08)
(0.0009780132848521631 4.506961223475576e-14 8.181048138007378e-08)
(0.00097801327777999 3.943035021542532e-14 8.181087766304956e-08)
(0.0009780132822017676 1.017757354843887e-13 8.181046733615769e-08)
(0.0009780132754573872 2.086262015008726e-15 8.181086120412302e-08)
(0.0009780132805233665 7.69746120761314e-14 8.181045195880978e-08)
(0.0009780132727457123 5.451662695366495e-14 8.181084205443108e-08)
(0.000978013277806783 4.192455628370082e-14 8.181043440855122e-08)
(0.0009780132705234845 5.334331122288715e-14 8.18108193552973e-08)
(0.0009780132742202045 1.157941282328348e-13 8.181041358335983e-08)
(0.0009780132664780131 5.09796710119631e-14 8.181079162719265e-08)
(0.0009780132700529154 1.524950834024446e-13 8.181038748981798e-08)
(0.0009780132603322881 1.883187112184659e-13 8.181075634960788e-08)
(0.0009780132624743717 2.515281289896412e-13 8.181035285008476e-08)
(0.0009780132508465235 4.208826444583843e-13 8.181070701484607e-08)
(0.0009780132479791637 7.056335230979544e-13 8.181029435656733e-08)
(0.0009780132357981399 8.435810076137281e-13 8.181064212713521e-08)
(0.000978013225213727 1.923828472442666e-12 8.181024854323781e-08)
(0.000978013180636056 3.001890025303458e-12 8.181037700242149e-08)
(0.0009780131768021988 1.073925727328358e-14 8.180971829460446e-08)
(0.000978013243146352 -6.350334270747593e-12 8.181127136729603e-08)
)
;
    }
    topWall
    {
        type            calculated;
        value           nonuniform List<vector> 
58
(
(0.01085846314338913 6.841381494895179e-13 2.015758786896451e-07)
(0.01085846317606687 2.363412954749831e-12 2.015848553039028e-07)
(0.01085846332163358 -9.626303638115802e-13 2.015805742222726e-07)
(0.01085846319149492 2.320833563176875e-12 2.01585086684556e-07)
(0.01085846330966096 -1.829661042127127e-12 2.015822019539377e-07)
(0.01085846320445425 1.629218635549391e-12 2.015846371610484e-07)
(0.01085846329567624 -4.172734725354686e-13 2.01582842493316e-07)
(0.01085846324481863 1.273190785455032e-12 2.015841825395072e-07)
(0.01085846330915632 -8.469729061102233e-13 2.01583087246164e-07)
(0.01085846324450673 5.800313178382861e-13 2.015838198689892e-07)
(0.01085846329377391 -6.012000145994158e-13 2.015831468527328e-07)
(0.01085846326679091 4.022927105778019e-13 2.015835363172209e-07)
(0.0108584632802902 -1.281121949936927e-13 2.015831124901461e-07)
(0.01085846327105607 5.253235846464652e-13 2.015833047946681e-07)
(0.01085846329085238 -3.78759670844763e-13 2.015830271366283e-07)
(0.01085846326452037 -9.01774672449151e-14 2.015831051360021e-07)
(0.01085846328037081 1.896408008604262e-13 2.015829118723856e-07)
(0.01085846327987023 1.64589992344163e-13 2.015829241077087e-07)
(0.01085846327528783 -1.743809369602406e-13 2.015827788732232e-07)
(0.01085846327627123 2.958491291161062e-13 2.015827528762872e-07)
(0.01085846327736809 -1.171245736859964e-13 2.015826355537128e-07)
(0.01085846327274768 -4.16365240969734e-13 2.015825863649929e-07)
(0.01085846327359098 1.136517178854147e-14 2.015824843840358e-07)
(0.01085846327891813 3.46876473131421e-13 2.015824219828778e-07)
(0.01085846327221114 2.101952722050589e-13 2.015823285663658e-07)
(0.01085846327525289 3.2867829908758e-13 2.015822576358729e-07)
(0.01085846328472432 -1.80431175476038e-13 2.015821684519629e-07)
(0.01085846327175902 -1.04662505745351e-13 2.015820916800896e-07)
(0.01085846328223149 1.81108201658769e-13 2.015820048608684e-07)
(0.01085846327637112 -1.324111573214739e-13 2.015819244913554e-07)
(0.01085846327230081 -3.524190665026648e-13 2.015818371903413e-07)
(0.01085846327455022 -1.864136376850556e-13 2.015817537037052e-07)
(0.01085846327831338 3.933256455779075e-13 2.015816662154928e-07)
(0.01085846327213249 4.504177293247301e-13 2.015815799558778e-07)
(0.01085846327995377 4.895824483006664e-14 2.015814909774902e-07)
(0.01085846329021996 -2.825706901434237e-13 2.015814024938807e-07)
(0.01085846327677712 -1.606416324740499e-13 2.015813110757529e-07)
(0.01085846329086948 5.242545871541903e-13 2.015812198600479e-07)
(0.01085846329551095 3.046995511679517e-13 2.015811263277345e-07)
(0.01085846330768528 -4.206467560900881e-13 2.01581032193458e-07)
(0.0108584632887128 -2.008008787512598e-13 2.015809352012216e-07)
(0.01085846328846871 -1.009260779664503e-13 2.015808367867295e-07)
(0.01085846327867505 -1.543451423755427e-13 2.015807359447331e-07)
(0.01085846327852183 1.424032920016014e-13 2.015806333155182e-07)
(0.01085846327645022 -7.455504431826958e-14 2.015805276343144e-07)
(0.0108584632695271 -2.10967636929144e-13 2.015804194209228e-07)
(0.01085846326651633 3.306835719192464e-13 2.015803074280913e-07)
(0.01085846326924527 5.085198762136048e-13 2.015801929039142e-07)
(0.01085846327495047 -5.946217487204946e-14 2.015800719181329e-07)
(0.01085846327350052 -1.046999359206737e-14 2.015799506014975e-07)
(0.01085846327715718 1.139719109446443e-13 2.015798149887356e-07)
(0.01085846328399957 -6.329253270294461e-14 2.015796872899552e-07)
(0.01085846327639347 2.823911692285436e-13 2.015795176409833e-07)
(0.01085846329376518 2.116731083419557e-13 2.015794136883464e-07)
(0.01085846328121089 5.706059814976966e-13 2.01579166892316e-07)
(0.01085846331122989 3.31803754354199e-13 2.015786620034654e-07)
(0.01085846329360568 3.31333298470193e-12 2.015771398633362e-07)
(0.01085846328715162 -1.03840420196904e-11 2.015798478818673e-07)
)
;
    }
    left
    {
        type            cyclic;
    }
    right
    {
        type            cyclic;
    }
}


// ************************************************************************* //
