/*--------------------------------*- C++ -*----------------------------------*\
| =========                 |                                                 |
| \\      /  F ield         | OpenFOAM: The Open Source CFD Toolbox           |
|  \\    /   O peration     | Version:  v1812                                 |
|   \\  /    A nd           | Web:      www.OpenFOAM.com                      |
|    \\/     M anipulation  |                                                 |
\*---------------------------------------------------------------------------*/
FoamFile
{
    version     2.0;
    format      ascii;
    class       volScalarField;
    location    "20000";
    object      nut;
}
// * * * * * * * * * * * * * * * * * * * * * * * * * * * * * * * * * * * * * //

dimensions      [0 2 -1 0 0 0 0];


internalField   nonuniform List<scalar> 
3770
(
0.0001430027705027896
0.0001430027705027361
0.0001430027705027569
0.0001430027705027382
0.0001430027705027472
0.0001430027705027337
0.0001430027705027355
0.0001430027705027406
0.0001430027705027351
0.0001430027705027333
0.0001430027705027405
0.0001430027705027385
0.0001430027705027347
0.0001430027705027302
0.0001430027705027299
0.0001430027705027356
0.0001430027705027304
0.0001430027705027291
0.0001430027705027378
0.000143002770502731
0.0001430027705027298
0.000143002770502738
0.000143002770502731
0.0001430027705027299
0.0001430027705027374
0.0001430027705027304
0.000143002770502729
0.000143002770502737
0.0001430027705027312
0.0001430027705027309
0.0001430027705027345
0.0001430027705027363
0.0001430027705027348
0.0001430027705027336
0.0001430027705027286
0.0001430027705027292
0.0001430027705027348
0.0001430027705027308
0.0001430027705027306
0.0001430027705027362
0.0001430027705027306
0.0001430027705027315
0.0001430027705027398
0.0001430027705027437
0.0001430027705027407
0.0001430027705027356
0.0001430027705027348
0.0001430027705027429
0.0001430027705027371
0.0001430027705027407
0.000143002770502747
0.0001430027705027509
0.0001430027705027506
0.0001430027705027548
0.0001430027705027529
0.0001430027705027717
0.0001430027705027692
0.0001430027705027903
7.468766082740649e-05
7.468766082885214e-05
7.468766082780533e-05
7.468766082813516e-05
7.46876608275651e-05
7.468766082836577e-05
7.468766082793913e-05
7.46876608273538e-05
7.468766082791859e-05
7.468766082772692e-05
7.468766082729889e-05
7.468766082785726e-05
7.468766082784916e-05
7.468766082804239e-05
7.468766082783086e-05
7.468766082737874e-05
7.468766082794914e-05
7.468766082768798e-05
7.468766082710209e-05
7.468766082775176e-05
7.468766082754938e-05
7.468766082699901e-05
7.468766082765803e-05
7.468766082751995e-05
7.468766082701241e-05
7.468766082769173e-05
7.46876608275724e-05
7.468766082706395e-05
7.468766082768508e-05
7.468766082756813e-05
7.468766082715039e-05
7.46876608277618e-05
7.468766082762203e-05
7.468766082730763e-05
7.468766082789442e-05
7.468766082772107e-05
7.468766082732232e-05
7.468766082772842e-05
7.468766082746535e-05
7.46876608271394e-05
7.468766082774625e-05
7.468766082757216e-05
7.46876608271804e-05
7.468766082744684e-05
7.468766082732954e-05
7.468766082761523e-05
7.468766082745439e-05
7.468766082708966e-05
7.468766082767256e-05
7.468766082752895e-05
7.468766082697067e-05
7.468766082709668e-05
7.468766082709126e-05
7.468766082765601e-05
7.468766082735849e-05
7.4687660827002e-05
7.468766082713479e-05
7.468766082711784e-05
0.0004412296785224019
0.0004412296785326803
0.0004412296785265567
0.0004412296785287413
0.0004412296785252573
0.0004412296785287969
0.0004412296785269455
0.0004412296785242493
0.0004412296785263628
0.0004412296785257529
0.0004412296785239023
0.0004412296785263568
0.0004412296785265507
0.0004412296785270767
0.000441229678526342
0.0004412296785244403
0.0004412296785266004
0.0004412296785256586
0.0004412296785229266
0.0004412296785255348
0.0004412296785248868
0.0004412296785223538
0.0004412296785250082
0.0004412296785246942
0.0004412296785224056
0.0004412296785251244
0.0004412296785249479
0.0004412296785227021
0.0004412296785251677
0.0004412296785249263
0.0004412296785231319
0.0004412296785256964
0.0004412296785253252
0.000441229678523998
0.0004412296785263114
0.0004412296785259383
0.0004412296785243478
0.0004412296785254933
0.0004412296785244081
0.0004412296785231605
0.0004412296785255556
0.0004412296785250072
0.0004412296785231734
0.0004412296785241078
0.0004412296785238564
0.0004412296785248149
0.0004412296785242862
0.0004412296785227878
0.0004412296785250287
0.0004412296785246422
0.0004412296785222467
0.0004412296785228331
0.0004412296785227062
0.0004412296785246422
0.0004412296785235344
0.0004412296785219358
0.000441229678522871
0.0004412296785212492
0.0007966561513977862
0.0007966561514214582
0.0007966561514123556
0.0007966561514166418
0.0007966561514114097
0.0007966561514167789
0.0007966561514141211
0.0007966561514105788
0.0007966561514134372
0.0007966561514127025
0.0007966561514103862
0.000796656151413754
0.0007966561514143247
0.0007966561514150973
0.0007966561514140178
0.0007966561514116582
0.0007966561514144483
0.0007966561514130382
0.0007966561514092474
0.0007966561514127775
0.0007966561514118363
0.0007966561514084188
0.0007966561514119829
0.000796656151411627
0.0007966561514086262
0.0007966561514121938
0.0007966561514120537
0.0007966561514091939
0.000796656151412461
0.0007966561514121646
0.00079665615141
0.0007966561514130546
0.0007966561514127829
0.0007966561514114604
0.0007966561514142708
0.000796656151413898
0.0007966561514121173
0.000796656151412979
0.0007966561514112459
0.0007966561514099582
0.0007966561514130971
0.0007966561514121651
0.0007966561514096848
0.0007966561514106405
0.0007966561514105726
0.0007966561514116082
0.0007966561514107508
0.0007966561514088126
0.0007966561514116779
0.0007966561514107189
0.0007966561514076037
0.0007966561514082811
0.0007966561514082003
0.000796656151409581
0.0007966561514080711
0.000796656151405089
0.0007966561514072803
0.0007966561514015925
0.001127164525635049
0.001127164525670992
0.001127164525661475
0.001127164525667185
0.001127164525661035
0.00112716452566784
0.001127164525664798
0.001127164525660635
0.001127164525664093
0.00112716452566338
0.001127164525660838
0.001127164525664849
0.001127164525666054
0.001127164525667038
0.001127164525665648
0.00112716452566309
0.001127164525666211
0.001127164525664418
0.001127164525659793
0.001127164525663947
0.001127164525662801
0.001127164525658764
0.001127164525662897
0.001127164525662611
0.001127164525659217
0.001127164525663209
0.001127164525663175
0.001127164525660101
0.001127164525663895
0.00112716452566359
0.001127164525661285
0.001127164525664545
0.001127164525664453
0.001127164525663352
0.001127164525666243
0.001127164525666131
0.001127164525664583
0.001127164525664592
0.001127164525662209
0.001127164525661224
0.001127164525664793
0.001127164525663544
0.001127164525660843
0.001127164525662234
0.001127164525662251
0.00112716452566268
0.001127164525661418
0.001127164525659278
0.001127164525662437
0.001127164525660928
0.001127164525657394
0.00112716452565829
0.001127164525658283
0.001127164525658621
0.001127164525656761
0.001127164525652749
0.001127164525655348
0.001127164525646606
0.001434704795848777
0.001434704795895818
0.00143470479588749
0.001434704795894286
0.001434704795887559
0.001434704795895664
0.001434704795892538
0.001434704795887786
0.001434704795891763
0.001434704795891212
0.001434704795888399
0.001434704795892895
0.001434704795895148
0.001434704795896344
0.001434704795894664
0.001434704795892056
0.001434704795895315
0.00143470479589323
0.001434704795887802
0.001434704795892411
0.00143470479589116
0.001434704795886582
0.001434704795891077
0.001434704795890968
0.001434704795887351
0.001434704795891456
0.001434704795891598
0.001434704795888593
0.001434704795892802
0.001434704795892545
0.001434704795890161
0.001434704795893446
0.001434704795893584
0.001434704795892883
0.00143470479589553
0.001434704795895968
0.00143470479589513
0.001434704795893827
0.00143470479589065
0.001434704795890182
0.001434704795894006
0.001434704795892513
0.001434704795889811
0.001434704795891835
0.001434704795892076
0.001434704795891515
0.001434704795889655
0.001434704795887429
0.001434704795890666
0.001434704795888685
0.00143470479588489
0.001434704795885288
0.001434704795885475
0.0014347047958852
0.001434704795883026
0.001434704795878244
0.00143470479588098
0.001434704795869739
0.001728489822177603
0.00172848982223455
0.001728489822228715
0.001728489822236388
0.001728489822229274
0.001728489822238661
0.001728489822235705
0.001728489822230337
0.001728489822234797
0.001728489822234526
0.001728489822231209
0.00172848982223607
0.001728489822239969
0.001728489822241412
0.001728489822239416
0.001728489822236898
0.001728489822240144
0.001728489822237847
0.001728489822231597
0.00172848982223654
0.001728489822235272
0.001728489822230164
0.001728489822234881
0.00172848982223501
0.001728489822231298
0.00172848982223598
0.001728489822236272
0.00172848982223296
0.001728489822237582
0.001728489822237406
0.00172848982223488
0.001728489822238718
0.001728489822239081
0.001728489822238363
0.001728489822241007
0.001728489822241494
0.001728489822240834
0.001728489822238905
0.00172848982223519
0.001728489822235145
0.001728489822239137
0.001728489822237452
0.001728489822234921
0.001728489822237056
0.001728489822237162
0.001728489822236029
0.00172848982223386
0.001728489822231609
0.001728489822234748
0.001728489822232363
0.001728489822227797
0.001728489822228144
0.001728489822228299
0.00172848982222706
0.001728489822225221
0.001728489822219896
0.001728489822222589
0.00172848982220936
0.002017440240928683
0.002017440240994085
0.002017440240991945
0.002017440241000315
0.002017440240992948
0.002017440241003647
0.002017440241001108
0.002017440240995077
0.002017440241000017
0.002017440241000117
0.002017440240996153
0.00201744024100139
0.002017440241007478
0.002017440241009096
0.002017440241006711
0.002017440241004459
0.002017440241007554
0.002017440241005119
0.002017440240998014
0.002017440241003188
0.002017440241001974
0.002017440240996294
0.00201744024100173
0.002017440241002088
0.002017440240997835
0.002017440241003377
0.002017440241003873
0.002017440241000017
0.002017440241005148
0.002017440241005058
0.002017440241002237
0.00201744024100686
0.002017440241007538
0.002017440241006598
0.002017440241009395
0.002017440241009799
0.002017440241009119
0.002017440241006967
0.0020174402410026
0.002017440241002892
0.002017440241007076
0.002017440241005245
0.002017440241003081
0.002017440241005113
0.002017440241005058
0.002017440241003515
0.002017440241000941
0.002017440240998702
0.002017440241001581
0.002017440240998861
0.002017440240993281
0.002017440240993734
0.00201744024099375
0.002017440240991305
0.002017440240990234
0.002017440240984613
0.002017440240987105
0.002017440240972438
0.002311264069524077
0.002311264069596165
0.002311264069598911
0.002311264069607789
0.002311264069600254
0.00231126406961236
0.002311264069610482
0.002311264069603691
0.002311264069609662
0.002311264069610177
0.002311264069605002
0.002311264069610656
0.002311264069619525
0.002311264069621216
0.002311264069618296
0.002311264069616545
0.002311264069619358
0.002311264069616847
0.002311264069608852
0.002311264069614158
0.002311264069613066
0.002311264069606714
0.002311264069613196
0.002311264069613842
0.002311264069608721
0.002311264069615367
0.002311264069616161
0.00231126406961156
0.002311264069617612
0.002311264069617561
0.00231126406961401
0.002311264069619583
0.002311264069620733
0.002311264069619417
0.002311264069622578
0.002311264069622859
0.002311264069622003
0.002311264069619842
0.002311264069614421
0.002311264069615037
0.002311264069619685
0.002311264069617758
0.002311264069616193
0.002311264069617996
0.002311264069617808
0.002311264069615972
0.002311264069612774
0.002311264069610586
0.002311264069613045
0.002311264069610062
0.002311264069603605
0.002311264069604186
0.002311264069603746
0.002311264069599816
0.002311264069599926
0.002311264069594302
0.00231126406959643
0.002311264069580932
0.002621983540229164
0.002621983540305254
0.002621983540314209
0.002621983540323785
0.002621983540316112
0.002621983540329819
0.002621983540328856
0.002621983540321106
0.002621983540328574
0.002621983540329647
0.002621983540322789
0.002621983540328886
0.002621983540341275
0.002621983540342961
0.00262198354033925
0.002621983540338328
0.002621983540340735
0.002621983540338193
0.002621983540329252
0.00262198354033461
0.00262198354033369
0.002621983540326508
0.002621983540334377
0.002621983540335405
0.002621983540329061
0.002621983540337114
0.002621983540338331
0.00262198354033274
0.002621983540340054
0.002621983540340014
0.002621983540335346
0.002621983540342048
0.002621983540343888
0.002621983540342025
0.002621983540345507
0.002621983540345701
0.002621983540344808
0.002621983540342781
0.002621983540336075
0.002621983540336901
0.002621983540342196
0.00262198354034025
0.002621983540339565
0.002621983540341048
0.002621983540340723
0.002621983540338703
0.002621983540334613
0.002621983540332543
0.002621983540334418
0.002621983540331249
0.002621983540324222
0.002621983540324465
0.002621983540323612
0.002621983540318131
0.002621983540319533
0.002621983540314283
0.002621983540315869
0.002621983540300202
0.002964262355317789
0.002964262355394531
0.002964262355411099
0.00296426235542142
0.002964262355413561
0.002964262355429218
0.002964262355429451
0.002964262355420431
0.002964262355429933
0.002964262355431779
0.002964262355422726
0.002964262355429259
0.00296426235544615
0.002964262355447883
0.002964262355442956
0.002964262355443288
0.002964262355445168
0.002964262355442599
0.002964262355432615
0.002964262355437976
0.002964262355437265
0.002964262355429011
0.002964262355438713
0.002964262355440248
0.002964262355432225
0.002964262355442105
0.002964262355443914
0.002964262355437002
0.002964262355445981
0.002964262355445923
0.002964262355439689
0.002964262355447745
0.00296426235545058
0.002964262355447948
0.002964262355451874
0.002964262355452048
0.002964262355451198
0.002964262355449406
0.002964262355441335
0.002964262355442052
0.002964262355448197
0.002964262355446373
0.002964262355446855
0.002964262355447944
0.002964262355447468
0.002964262355445355
0.002964262355440031
0.002964262355438193
0.002964262355439339
0.002964262355436075
0.002964262355428833
0.002964262355428425
0.002964262355427016
0.002964262355420068
0.002964262355422973
0.002964262355418261
0.002964262355419124
0.002964262355404013
0.003353899486683589
0.003353899486756424
0.003353899486781924
0.003353899486792832
0.003353899486784578
0.003353899486803018
0.003353899486804754
0.00335389948679376
0.003353899486806005
0.003353899486808903
0.00335389948679706
0.003353899486803969
0.003353899486826637
0.003353899486828818
0.003353899486822008
0.003353899486824039
0.003353899486825324
0.003353899486822653
0.003353899486811436
0.003353899486816816
0.003353899486816326
0.003353899486806642
0.003353899486818792
0.00335389948682099
0.00335389948681068
0.003353899486822983
0.003353899486825599
0.003353899486816897
0.003353899486828102
0.003353899486827992
0.00335389948681965
0.003353899486829349
0.003353899486833558
0.003353899486829863
0.003353899486834512
0.003353899486834875
0.003353899486834136
0.003353899486832593
0.003353899486823316
0.003353899486823245
0.003353899486830675
0.003353899486829022
0.003353899486830667
0.003353899486831572
0.003353899486830964
0.003353899486828883
0.003353899486821813
0.003353899486820377
0.003353899486820701
0.003353899486817453
0.003353899486810317
0.003353899486809119
0.003353899486806973
0.003353899486798203
0.003353899486802998
0.003353899486799197
0.003353899486799246
0.003353899486785418
0.003804386211653903
0.003804386211716762
0.003804386211751827
0.003804386211762746
0.003804386211753607
0.003804386211775721
0.003804386211779353
0.003804386211765638
0.00380438621178154
0.003804386211785782
0.003804386211770515
0.003804386211777667
0.003804386211807583
0.003804386211810822
0.003804386211801267
0.003804386211805713
0.003804386211806508
0.003804386211803483
0.003804386211790685
0.003804386211796299
0.003804386211795967
0.003804386211784316
0.003804386211799736
0.00380438621180276
0.003804386211789417
0.003804386211804935
0.003804386211808599
0.00380438621179748
0.003804386211811644
0.003804386211811469
0.003804386211800459
0.003804386211812141
0.003804386211818088
0.003804386211812974
0.003804386211818808
0.003804386211819946
0.003804386211819341
0.003804386211817972
0.003804386211808015
0.003804386211805929
0.003804386211814812
0.003804386211813916
0.003804386211816428
0.0038043862118175
0.003804386211816799
0.003804386211814778
0.003804386211805181
0.003804386211804511
0.00380438621180411
0.003804386211801031
0.003804386211794653
0.00380438621179279
0.003804386211789394
0.003804386211777887
0.003804386211785049
0.003804386211782761
0.003804386211782154
0.003804386211770072
0.004322405112772425
0.004322405112818697
0.004322405112861732
0.004322405112872258
0.004322405112861398
0.004322405112887903
0.004322405112893835
0.004322405112876604
0.004322405112897049
0.0043224051129031
0.004322405112883667
0.004322405112890619
0.004322405112929288
0.004322405112934755
0.004322405112921673
0.004322405112929305
0.004322405112929702
0.00432240511292604
0.0043224051129113
0.004322405112917632
0.004322405112917336
0.004322405112902935
0.004322405112922424
0.004322405112926592
0.004322405112909399
0.004322405112928892
0.004322405112934032
0.004322405112919888
0.004322405112937653
0.004322405112937487
0.004322405112923324
0.004322405112937038
0.004322405112945271
0.004322405112938733
0.004322405112945405
0.00432240511294842
0.004322405112947956
0.004322405112946898
0.004322405112937715
0.00432240511293179
0.004322405112942194
0.004322405112943033
0.004322405112945009
0.004322405112946875
0.004322405112945958
0.00432240511294375
0.004322405112930596
0.004322405112931264
0.004322405112930628
0.004322405112927993
0.004322405112923136
0.004322405112920787
0.004322405112915862
0.004322405112900653
0.004322405112911029
0.004322405112910445
0.004322405112909386
0.004322405112899821
0.004904198047219792
0.004904198047244008
0.004904198047289828
0.004904198047299941
0.004904198047286119
0.004904198047317275
0.004904198047325715
0.00490419804730418
0.004904198047329842
0.004904198047338268
0.004904198047313987
0.004904198047320003
0.004904198047368541
0.004904198047378006
0.004904198047360856
0.0049041980473725
0.004904198047372627
0.004904198047368
0.004904198047350953
0.004904198047359004
0.004904198047358579
0.004904198047340187
0.004904198047364337
0.004904198047370101
0.004904198047348312
0.00490419804737235
0.004904198047379571
0.004904198047361961
0.00490419804738371
0.004904198047383711
0.004904198047366252
0.004904198047381404
0.004904198047392777
0.004904198047385389
0.00490419804739126
0.004904198047397907
0.00490419804739775
0.004904198047397328
0.004904198047390292
0.00490419804737849
0.004904198047391933
0.004904198047395948
0.00490419804739365
0.004904198047397282
0.004904198047396085
0.004904198047393059
0.004904198047374794
0.004904198047377546
0.004904198047377703
0.004904198047375597
0.004904198047373387
0.00490419804737066
0.004904198047364273
0.004904198047344622
0.004904198047359826
0.004904198047360461
0.004904198047358835
0.004904198047352865
0.005534874110130143
0.005534874110129854
0.005534874110169042
0.005534874110179704
0.005534874110161364
0.00553487411019662
0.00553487411020729
0.005534874110180752
0.005534874110211893
0.005534874110223212
0.00553487411019387
0.005534874110197916
0.005534874110256489
0.005534874110272133
0.005534874110250793
0.005534874110267228
0.005534874110267248
0.005534874110261421
0.005534874110241722
0.005534874110253833
0.005534874110253067
0.00553487411022824
0.005534874110257235
0.005534874110265101
0.005534874110238233
0.005534874110267023
0.005534874110277024
0.005534874110255945
0.005534874110281496
0.005534874110281851
0.005534874110261797
0.005534874110276591
0.005534874110292331
0.005534874110285835
0.005534874110287261
0.005534874110299562
0.005534874110300585
0.005534874110301037
0.005534874110296984
0.005534874110277266
0.00553487411029495
0.005534874110300575
0.005534874110289759
0.005534874110300483
0.005534874110299836
0.005534874110294195
0.005534874110272005
0.005534874110277562
0.005534874110278692
0.005534874110276792
0.005534874110277108
0.005534874110273313
0.005534874110266108
0.005534874110241889
0.005534874110261397
0.005534874110264662
0.005534874110263569
0.005534874110260475
0.006191389201445261
0.006191389201426725
0.006191389201454276
0.006191389201461421
0.0061913892014371
0.006191389201474804
0.006191389201486711
0.006191389201454617
0.006191389201490993
0.006191389201505518
0.006191389201471962
0.00619138920147279
0.006191389201540112
0.006191389201563998
0.006191389201538829
0.006191389201560766
0.006191389201560881
0.006191389201553783
0.006191389201531054
0.006191389201547068
0.006191389201546157
0.00619138920151464
0.006191389201548218
0.006191389201558622
0.006191389201526599
0.006191389201559898
0.006191389201573355
0.006191389201549469
0.006191389201577802
0.006191389201578647
0.006191389201558044
0.006191389201568958
0.006191389201590661
0.006191389201589219
0.006191389201580902
0.006191389201600121
0.006191389201605987
0.006191389201604227
0.006191389201600888
0.006191389201573797
0.00619138920159701
0.006191389201604028
0.006191389201584723
0.006191389201604162
0.006191389201603978
0.006191389201596169
0.006191389201570301
0.006191389201577912
0.006191389201581181
0.00619138920157847
0.006191389201579088
0.006191389201573789
0.006191389201567189
0.006191389201539465
0.006191389201562821
0.006191389201569747
0.006191389201569028
0.006191389201567748
0.006847891124226194
0.006847891124201071
0.006847891124211036
0.006847891124211163
0.006847891124180994
0.006847891124218148
0.006847891124229625
0.006847891124191619
0.006847891124232529
0.006847891124250291
0.006847891124215492
0.006847891124211852
0.006847891124284543
0.006847891124317799
0.006847891124289568
0.006847891124317588
0.00684789112431804
0.006847891124309742
0.006847891124283594
0.006847891124303977
0.006847891124303055
0.006847891124264113
0.006847891124301625
0.006847891124314849
0.00684789112427807
0.006847891124315156
0.006847891124332603
0.006847891124307543
0.006847891124336274
0.006847891124337752
0.0068478911243205
0.006847891124321656
0.006847891124351817
0.006847891124353543
0.00684789112433338
0.006847891124363496
0.006847891124373799
0.006847891124368952
0.006847891124364744
0.006847891124332539
0.006847891124361689
0.006847891124370975
0.006847891124343838
0.006847891124371358
0.006847891124372323
0.006847891124363169
0.006847891124333642
0.006847891124343373
0.006847891124349489
0.006847891124345937
0.006847891124349671
0.006847891124341545
0.006847891124331972
0.006847891124301361
0.006847891124328033
0.006847891124339606
0.006847891124338592
0.006847891124337596
0.007481005340048394
0.007481005340031632
0.007481005340028313
0.007481005340017934
0.007481005339974998
0.007481005340007011
0.007481005340016158
0.007481005339972182
0.007481005340016685
0.007481005340037456
0.007481005340009192
0.007481005340000079
0.007481005340070853
0.0074810053401127
0.007481005340082316
0.007481005340116467
0.007481005340117495
0.007481005340108142
0.007481005340078272
0.00748100534010367
0.007481005340103002
0.007481005340055907
0.007481005340096491
0.007481005340112663
0.007481005340071974
0.007481005340111662
0.007481005340133452
0.007481005340110051
0.007481005340134896
0.00748100534013721
0.007481005340129752
0.007481005340120222
0.007481005340153171
0.007481005340161729
0.007481005340130812
0.007481005340168532
0.007481005340186843
0.007481005340180897
0.007481005340172205
0.00748100534013367
0.007481005340167416
0.007481005340179502
0.007481005340145663
0.007481005340180174
0.007481005340183119
0.007481005340173057
0.007481005340140259
0.00748100534015242
0.007481005340158841
0.007481005340155361
0.007481005340159903
0.007481005340150627
0.007481005340140317
0.007481005340106327
0.00748100534013557
0.00748100534015302
0.007481005340150241
0.007481005340147834
0.008073157916938856
0.008073157916928803
0.008073157916921935
0.008073157916904
0.0080731579168439
0.008073157916870424
0.008073157916876078
0.008073157916826577
0.008073157916873753
0.008073157916897025
0.0080731579168757
0.008073157916861789
0.008073157916929405
0.008073157916978367
0.008073157916946742
0.008073157916985771
0.008073157916987492
0.008073157916977112
0.008073157916943515
0.008073157916972188
0.008073157916972329
0.008073157916919165
0.008073157916962153
0.008073157916981304
0.008073157916938021
0.008073157916978588
0.008073157917004879
0.008073157916987508
0.008073157917001682
0.008073157917004891
0.00807315791699945
0.008073157916982232
0.008073157917023222
0.008073157917038797
0.008073157917000766
0.008073157917044228
0.008073157917061582
0.00807315791706128
0.008073157917054886
0.008073157917006553
0.008073157917043198
0.008073157917058101
0.008073157917018821
0.008073157917059745
0.008073157917065428
0.00807315791705478
0.008073157917019649
0.00807315791703354
0.008073157917037893
0.008073157917034878
0.008073157917036257
0.008073157917029426
0.00807315791702291
0.008073157916983782
0.008073157917014429
0.008073157917038533
0.008073157917031989
0.008073157917026997
0.008613435368889342
0.008613435368883336
0.008613435368875341
0.008613435368852425
0.008613435368779126
0.008613435368800496
0.008613435368802569
0.008613435368748876
0.008613435368798088
0.0086134353688232
0.008613435368807563
0.008613435368789748
0.008613435368854346
0.008613435368909071
0.008613435368877088
0.008613435368919642
0.008613435368921962
0.008613435368910526
0.00861343536887312
0.008613435368903809
0.008613435368905116
0.008613435368847643
0.008613435368892395
0.008613435368914556
0.008613435368870765
0.008613435368909522
0.008613435368940353
0.008613435368935603
0.008613435368928578
0.008613435368932876
0.008613435368931778
0.008613435368905773
0.008613435368955867
0.008613435368978238
0.008613435368935871
0.008613435368983605
0.008613435369004488
0.008613435369004597
0.008613435368998827
0.008613435368944667
0.008613435368982668
0.008613435369
0.008613435368956443
0.008613435369003147
0.008613435369012211
0.008613435369001504
0.008613435368966433
0.008613435368979013
0.008613435368982366
0.008613435368977441
0.008613435368976628
0.008613435368970473
0.008613435368969096
0.008613435368928179
0.008613435368958335
0.008613435368984299
0.008613435368976442
0.008613435368970013
0.009096626853609985
0.009096626853605587
0.009096626853598253
0.009096626853572345
0.009096626853490861
0.00909662685350612
0.009096626853505279
0.009096626853450224
0.009096626853501287
0.009096626853527627
0.009096626853516246
0.009096626853495268
0.009096626853557204
0.00909662685361684
0.009096626853585444
0.009096626853630153
0.009096626853632907
0.009096626853620402
0.009096626853578897
0.009096626853610568
0.009096626853613225
0.009096626853552883
0.00909662685359868
0.009096626853623942
0.0090966268535831
0.009096626853615716
0.009096626853650886
0.009096626853645378
0.009096626853625616
0.009096626853652092
0.009096626853654276
0.009096626853610673
0.00909662685366395
0.009096626853691831
0.00909662685364694
0.009096626853697685
0.009096626853724183
0.009096626853724322
0.00909662685371858
0.009096626853659083
0.009096626853697169
0.009096626853716372
0.009096626853669491
0.009096626853720828
0.009096626853733705
0.009096626853723755
0.009096626853694223
0.009096626853701032
0.009096626853701544
0.009096626853689116
0.0090966268536879
0.009096626853688504
0.009096626853690238
0.00909662685365017
0.009096626853678338
0.009096626853700831
0.00909662685369356
0.009096626853686734
0.009521481523544232
0.009521481523542364
0.009521481523534521
0.009521481523507095
0.00952148152342353
0.009521481523429055
0.009521481523425839
0.009521481523374139
0.009521481523427173
0.00952148152345428
0.00952148152344612
0.00952148152342254
0.009521481523481871
0.009521481523546311
0.009521481523516529
0.009521481523561219
0.009521481523564279
0.009521481523550991
0.009521481523505062
0.009521481523536802
0.009521481523540952
0.009521481523479029
0.009521481523524963
0.009521481523553513
0.009521481523521502
0.009521481523541306
0.009521481523580276
0.009521481523574656
0.009521481523543105
0.009521481523583446
0.00952148152359102
0.009521481523538062
0.009521481523591791
0.009521481523623844
0.009521481523577581
0.009521481523630249
0.009521481523663423
0.009521481523658832
0.009521481523653482
0.009521481523593273
0.00952148152363053
0.00952148152365106
0.009521481523601641
0.009521481523656393
0.009521481523673278
0.009521481523664926
0.009521481523652854
0.009521481523646094
0.009521481523638044
0.009521481523629438
0.009521481523625757
0.009521481523624109
0.009521481523625568
0.009521481523592919
0.00952148152361749
0.009521481523632068
0.009521481523626498
0.009521481523619755
0.009889003983219466
0.009889003983218896
0.009889003983210699
0.009889003983183266
0.009889003983103776
0.009889003983096823
0.009889003983090228
0.00988900398304556
0.009889003983100234
0.009889003983127705
0.009889003983121631
0.009889003983095859
0.009889003983152747
0.009889003983222852
0.009889003983195937
0.00988900398323554
0.009889003983238677
0.009889003983226135
0.009889003983175864
0.009889003983207344
0.009889003983213235
0.009889003983151073
0.009889003983195869
0.009889003983227869
0.009889003983215067
0.009889003983212652
0.009889003983253458
0.009889003983255819
0.009889003983206754
0.009889003983255424
0.009889003983268495
0.009889003983210689
0.009889003983263988
0.009889003983299168
0.009889003983252301
0.009889003983306
0.009889003983346066
0.009889003983343367
0.009889003983337528
0.009889003983271805
0.009889003983307377
0.009889003983328754
0.009889003983277467
0.009889003983334543
0.009889003983355366
0.009889003983347985
0.00988900398335066
0.009889003983348015
0.009889003983341291
0.009889003983331947
0.009889003983317865