/*--------------------------------*- C++ -*----------------------------------*\
| =========                 |                                                 |
| \\      /  F ield         | OpenFOAM: The Open Source CFD Toolbox           |
|  \\    /   O peration     | Version:  v1812                                 |
|   \\  /    A nd           | Web:      www.OpenFOAM.com                      |
|    \\/     M anipulation  |                                                 |
\*---------------------------------------------------------------------------*/
FoamFile
{
    version     2.0;
    format      ascii;
    class       volScalarField;
    location    "20000";
    object      nuTilda_0;
}
// * * * * * * * * * * * * * * * * * * * * * * * * * * * * * * * * * * * * * //

dimensions      [0 2 -1 0 0 0 0];


internalField   nonuniform List<scalar> 
3770
(
0.0004781331918027805
0.0004781331918027228
0.0004781331918027453
0.000478133191802725
0.0004781331918027348
0.0004781331918027202
0.0004781331918027222
0.0004781331918027275
0.0004781331918027217
0.0004781331918027194
0.0004781331918027284
0.0004781331918027328
0.0004781331918027262
0.0004781331918027164
0.0004781331918027162
0.0004781331918027223
0.0004781331918027167
0.0004781331918027154
0.0004781331918027246
0.0004781331918027173
0.000478133191802716
0.0004781331918027249
0.0004781331918027174
0.0004781331918027161
0.0004781331918027242
0.0004781331918027167
0.0004781331918027152
0.0004781331918027241
0.0004781331918027173
0.0004781331918027172
0.0004781331918027207
0.0004781331918027258
0.0004781331918027236
0.00047813319180272
0.0004781331918027147
0.0004781331918027155
0.0004781331918027216
0.0004781331918027172
0.0004781331918027169
0.0004781331918027229
0.0004781331918027169
0.0004781331918027178
0.0004781331918027314
0.0004781331918027426
0.0004781331918027334
0.0004781331918027222
0.0004781331918027213
0.0004781331918027302
0.0004781331918027239
0.0004781331918027278
0.0004781331918027345
0.0004781331918027383
0.0004781331918027383
0.000478133191802743
0.0004781331918027408
0.0004781331918027612
0.0004781331918027585
0.0004781331918027812
0.0003920894708061971
0.0003920894708084107
0.000392089470806808
0.0003920894708073134
0.0003920894708064407
0.0003920894708076669
0.0003920894708070138
0.0003920894708061176
0.000392089470806983
0.0003920894708066901
0.0003920894708060418
0.0003920894708069645
0.000392089470806931
0.0003920894708071729
0.0003920894708068503
0.0003920894708061558
0.0003920894708070287
0.0003920894708066274
0.00039208947080573
0.0003920894708067253
0.0003920894708064158
0.0003920894708055733
0.0003920894708065833
0.0003920894708063728
0.0003920894708055958
0.0003920894708066423
0.0003920894708064573
0.000392089470805675
0.0003920894708066227
0.000392089470806447
0.0003920894708058124
0.000392089470806731
0.0003920894708065183
0.0003920894708060556
0.0003920894708069449
0.000392089470806662
0.0003920894708060533
0.0003920894708066824
0.0003920894708062849
0.0003920894708057856
0.0003920894708067123
0.0003920894708064473
0.0003920894708058821
0.0003920894708063524
0.0003920894708061203
0.0003920894708065056
0.0003920894708062687
0.0003920894708057106
0.0003920894708066037
0.0003920894708063833
0.000392089470805529
0.0003920894708057235
0.0003920894708057155
0.0003920894708065805
0.0003920894708061238
0.0003920894708055776
0.000392089470805781
0.0003920894708057549
0.0007308094844088535
0.0007308094844166334
0.0007308094844120001
0.0007308094844136547
0.0007308094844110188
0.0007308094844136985
0.0007308094844122981
0.0007308094844102584
0.0007308094844118598
0.0007308094844114007
0.0007308094844100055
0.0007308094844119067
0.0007308094844120293
0.0007308094844124021
0.0007308094844118543
0.0007308094844104055
0.0007308094844120371
0.000730809484411318
0.0007308094844092487
0.0007308094844112257
0.0007308094844107361
0.0007308094844088192
0.0007308094844108311
0.0007308094844105975
0.0007308094844088654
0.0007308094844109537
0.0007308094844108104
0.0007308094844090914
0.0007308094844109368
0.0007308094844107672
0.0007308094844094303
0.0007308094844113861
0.0007308094844110878
0.0007308094844101008
0.0007308094844118272
0.0007308094844114716
0.0007308094844102723
0.0007308094844111676
0.0007308094844103646
0.0007308094844094209
0.0007308094844112213
0.0007308094844108118
0.0007308094844094874
0.0007308094844103761
0.0007308094844100654
0.0007308094844106188
0.0007308094844102673
0.0007308094844091423
0.0007308094844108402
0.000730809484410545
0.000730809484408733
0.0007308094844091849
0.00073080948440909
0.0007308094844105557
0.0007308094844097124
0.000730809484408501
0.0007308094844092087
0.0007308094844079808
0.001000452842132976
0.001000452842151435
0.00100045284214434
0.001000452842147686
0.001000452842143609
0.001000452842147797
0.001000452842145727
0.001000452842142967
0.001000452842145199
0.001000452842144631
0.00100045284214282
0.001000452842145483
0.001000452842145905
0.0010004528421465
0.001000452842145679
0.001000452842143817
0.001000452842145984
0.001000452842144872
0.001000452842141911
0.00100045284214467
0.00100045284214394
0.001000452842141278
0.001000452842144061
0.001000452842143792
0.001000452842141453
0.001000452842144307
0.001000452842144178
0.001000452842141903
0.001000452842144388
0.001000452842144194
0.001000452842142576
0.00100045284214497
0.001000452842144746
0.001000452842143748
0.00100045284214588
0.00100045284214543
0.001000452842144042
0.001000452842144774
0.001000452842143463
0.001000452842142454
0.001000452842144871
0.001000452842144157
0.001000452842142227
0.001000452842143022
0.001000452842142883
0.001000452842143597
0.001000452842143048
0.001000452842141567
0.001000452842143804
0.001000452842143052
0.001000452842140625
0.001000452842141172
0.001000452842141113
0.001000452842142188
0.001000452842140999
0.00100045284213867
0.001000452842140378
0.001000452842135942
0.001268592903397261
0.001268592903427591
0.001268592903419564
0.001268592903424389
0.001268592903419204
0.00126859290342495
0.001268592903422388
0.001268592903418881
0.001268592903421804
0.00126859290342121
0.001268592903419048
0.001268592903422482
0.00126859290342347
0.0012685929034243
0.001268592903423173
0.001268592903420972
0.001268592903423588
0.001268592903422056
0.00126859290341814
0.001268592903421657
0.0012685929034207
0.0012685929034173
0.001268592903420791
0.001268592903420564
0.001268592903417701
0.001268592903421203
0.001268592903421144
0.001268592903418465
0.001268592903421523
0.001268592903421339
0.001268592903419539
0.001268592903422307
0.001268592903422229
0.001268592903421349
0.001268592903423735
0.00126859290342337
0.00126859290342201
0.00126859290342212
0.001268592903420189
0.001268592903419334
0.001268592903422278
0.001268592903421249
0.001268592903418933
0.001268592903420087
0.001268592903419978
0.001268592903420249
0.001268592903419425
0.001268592903417694
0.001268592903420363
0.001268592903419087
0.001268592903416105
0.001268592903416898
0.001268592903416898
0.001268592903417178
0.001268592903415583
0.001268592903412191
0.001268592903414383
0.001268592903407005
0.001536100535714744
0.00153610053575681
0.001536100535749367
0.001536100535755456
0.001536100535749448
0.001536100535756701
0.001536100535753916
0.001536100535749676
0.001536100535753239
0.001536100535752756
0.001536100535750225
0.001536100535754321
0.001536100535756289
0.001536100535757355
0.001536100535755939
0.001536100535753535
0.00153610053575642
0.00153610053575453
0.001536100535749649
0.001536100535753791
0.001536100535752691
0.001536100535748605
0.001536100535752626
0.001536100535752545
0.001536100535749307
0.001536100535753149
0.001536100535753251
0.001536100535750456
0.001536100535753972
0.001536100535753847
0.001536100535751951
0.001536100535754937
0.001536100535755061
0.00153610053575449
0.001536100535756981
0.001536100535757006
0.001536100535755983
0.00153610053575491
0.001536100535752224
0.001536100535751794
0.001536100535755068
0.001536100535753771
0.001536100535751283
0.001536100535753041
0.001536100535753026
0.001536100535752385
0.001536100535751143
0.001536100535749289
0.001536100535752188
0.001536100535750418
0.001536100535747001
0.001536100535747419
0.001536100535747614
0.001536100535747358
0.001536100535745366
0.001536100535741079
0.001536100535743525
0.001536100535733472
0.00180391783242687
0.001803917832479711
0.001803917832474302
0.001803917832481439
0.00180391783247485
0.001803917832483568
0.001803917832480841
0.001803917832475876
0.001803917832480022
0.001803917832479783
0.00180391783247671
0.001803917832481337
0.001803917832484872
0.001803917832486195
0.001803917832484491
0.00180391783248204
0.001803917832485009
0.001803917832482845
0.001803917832476991
0.001803917832481616
0.001803917832480465
0.001803917832475732
0.001803917832480108
0.001803917832480242
0.001803917832476806
0.001803917832481257
0.00180391783248151
0.001803917832478394
0.001803917832482331
0.001803917832482287
0.001803917832480273
0.001803917832483917
0.001803917832484247
0.001803917832483652
0.001803917832486174
0.001803917832486253
0.001803917832485335
0.001803917832483599
0.001803917832480463
0.001803917832480435
0.001803917832483817
0.001803917832482299
0.001803917832479843
0.001803917832481757
0.001803917832481465
0.001803917832480207
0.001803917832478845
0.001803917832476952
0.001803917832479872
0.001803917832477668
0.001803917832473381
0.001803917832473799
0.001803917832473993
0.001803917832472826
0.00180391783247104
0.001803917832466082
0.001803917832468581
0.001803917832456307
0.002075262818030266
0.002075262818092394
0.002075262818090369
0.002075262818098344
0.002075262818091365
0.00207526281810154
0.002075262818099151
0.002075262818093444
0.002075262818098145
0.002075262818098257
0.002075262818094513
0.002075262818099652
0.002075262818105325
0.002075262818106832
0.002075262818104801
0.002075262818102486
0.002075262818105366
0.002075262818103012
0.002075262818096172
0.002075262818101148
0.002075262818100028
0.002075262818094629
0.002075262818099786
0.002075262818100141
0.002075262818096123
0.002075262818101452
0.002075262818101904
0.002075262818098244
0.002075262818102977
0.002075262818102978
0.002075262818100455
0.002075262818104951
0.002075262818105574
0.002075262818104796
0.002075262818107361
0.002075262818107393
0.002075262818106502
0.002075262818104472
0.002075262818100419
0.002075262818100815
0.002075262818104583
0.002075262818102878
0.002075262818100674
0.002075262818102527
0.002075262818102024
0.002075262818100282
0.002075262818098635
0.002075262818096735
0.002075262818099481
0.002075262818096914
0.002075262818091516
0.002075262818092091
0.002075262818092192
0.002075262818089849
0.002075262818088705
0.002075262818083342
0.002075262818085713
0.002075262818071784
0.002356507858669675
0.002356507858739217
0.002356507858741877
0.002356507858750475
0.002356507858743236
0.002356507858754932
0.002356507858753152
0.002356507858746626
0.002356507858752397
0.002356507858752917
0.002356507858747964
0.002356507858753647
0.00235650785876208
0.002356507858763659
0.002356507858761186
0.002356507858759235
0.002356507858761872
0.002356507858759399
0.002356507858751538
0.002356507858756754
0.002356507858755738
0.002356507858749584
0.002356507858755826
0.002356507858756464
0.002356507858751563
0.002356507858758013
0.002356507858758754
0.00235650785875434
0.002356507858760125
0.002356507858760167
0.002356507858756827
0.002356507858762322
0.002356507858763386
0.002356507858762281
0.00235650785876496
0.002356507858764936
0.002356507858764042
0.002356507858761918
0.002356507858756629
0.002356507858757481
0.002356507858761802
0.002356507858759927
0.002356507858758229
0.002356507858759891
0.002356507858759314
0.002356507858757206
0.002356507858754955
0.002356507858753066
0.00235650785875545
0.002356507858752595
0.002356507858746124
0.002356507858746908
0.002356507858746667
0.002356507858742863
0.002356507858742792
0.002356507858737337
0.002356507858739398
0.002356507858724453
0.002657760110348557
0.002657760110422739
0.002657760110431486
0.002657760110440868
0.002657760110433433
0.002657760110446824
0.002657760110445927
0.002657760110438402
0.002657760110445694
0.002657760110446771
0.002657760110440146
0.002657760110446411
0.002657760110458375
0.002657760110459929
0.002657760110456781
0.002657760110455503
0.002657760110457754
0.002657760110455216
0.002657760110446274
0.00265776011045164
0.002657760110450783
0.002657760110443724
0.002657760110451379
0.002657760110452399
0.002657760110446267
0.00265776011045414
0.002657760110455296
0.002657760110449873
0.00265776011045699
0.002657760110457065
0.00265776011045257
0.002657760110459244
0.002657760110460967
0.002657760110459354
0.002657760110462274
0.002657760110462204
0.002657760110461316
0.002657760110459242
0.002657760110452441
0.002657760110453737
0.002657760110458777
0.002657760110456741
0.002657760110455864
0.002657760110457247
0.00265776011045661
0.002657760110454278
0.002657760110451105
0.002657760110449268
0.002657760110451098
0.002657760110448018
0.002657760110440706
0.002657760110441265
0.002657760110440719
0.002657760110435411
0.002657760110436582
0.002657760110431429
0.002657760110432986
0.00265776011041772
0.002992595111834315
0.002992595111909692
0.002992595111925995
0.002992595111936194
0.002992595111928538
0.002992595111943965
0.00299259511194425
0.002992595111935425
0.002992595111944772
0.002992595111946627
0.002992595111937821
0.002992595111944681
0.00299259511196121
0.0029925951119627
0.002992595111958472
0.002992595111958302
0.002992595111960044
0.002992595111957457
0.002992595111947325
0.002992595111952794
0.002992595111952131
0.002992595111943923
0.002992595111953432
0.00299259511195496
0.002992595111947147
0.002992595111956864
0.002992595111958605
0.002992595111951831
0.002992595111960655
0.00299259511196075
0.002992595111954665
0.002992595111962762
0.00299259511196546
0.002992595111963094
0.002992595111966453
0.002992595111966364
0.002992595111965529
0.002992595111963608
0.002992595111955051
0.002992595111956653
0.002992595111962613
0.002992595111960465
0.002992595111960812
0.002992595111961853
0.002992595111961133
0.002992595111958706
0.002992595111954223
0.002992595111952521
0.002992595111953617
0.002992595111950355
0.002992595111942429
0.002992595111942428
0.002992595111941511
0.002992595111934864
0.002992595111937524
0.002992595111932861
0.002992595111933719
0.002992595111918881
0.003376223514151575
0.003376223514223493
0.003376223514248728
0.003376223514259584
0.003376223514251517
0.003376223514269805
0.003376223514271598
0.003376223514260779
0.003376223514272889
0.003376223514275805
0.003376223514264228
0.003376223514271665
0.003376223514294103
0.00337622351429579
0.003376223514289808
0.003376223514291202
0.003376223514292382
0.003376223514289702
0.003376223514278178
0.003376223514283792
0.00337622351428332
0.003376223514273584
0.003376223514285564
0.003376223514287759
0.003376223514277656
0.003376223514289818
0.003376223514292358
0.003376223514283761
0.003376223514294834
0.003376223514294922
0.003376223514286696
0.00337622351429654
0.003376223514300621
0.00337622351429717
0.003376223514301314
0.003376223514301307
0.003376223514300565
0.003376223514298849
0.003376223514288438
0.003376223514289917
0.003376223514297274
0.00337622351429492
0.003376223514296736
0.00337622351429764
0.003376223514296836
0.003376223514294465
0.003376223514288111
0.003376223514286633
0.003376223514286908
0.003376223514283502
0.003376223514275291
0.003376223514274521
0.003376223514272951
0.003376223514264747
0.003376223514269363
0.00337622351426559
0.003376223514265631
0.003376223514251964
0.003821843705792259
0.003821843705854546
0.003821843705889407
0.003821843705900338
0.003821843705891386
0.003821843705913427
0.003821843705917143
0.003821843705903593
0.003821843705919378
0.003821843705923653
0.00382184370590867
0.003821843705916608
0.003821843705946531
0.00382184370594894
0.003821843705940276
0.003821843705943836
0.003821843705944595
0.003821843705941659
0.00382184370592839
0.003821843705934391
0.003821843705934061
0.003821843705922214
0.003821843705937475
0.003821843705940507
0.003821843705927363
0.003821843705942766
0.003821843705946353
0.003821843705935305
0.003821843705949351
0.003821843705949414
0.003821843705938451
0.003821843705950422
0.003821843705956317
0.003821843705951343
0.003821843705956892
0.003821843705957379
0.003821843705956559
0.003821843705954999
0.003821843705943033
0.003821843705943431
0.003821843705952494
0.003821843705950295
0.003821843705953655
0.003821843705954713
0.003821843705953945
0.003821843705951739
0.003821843705942656
0.003821843705941588
0.003821843705941159
0.003821843705937734
0.003821843705929681
0.003821843705928207
0.003821843705925461
0.003821843705914943
0.00382184370592213
0.003821843705919871
0.003821843705919211
0.003821843705907198
0.004335987542338078
0.004335987542384012
0.004335987542426941
0.00433598754243755
0.004335987542426894
0.004335987542453416
0.004335987542459485
0.004335987542442413
0.004335987542462761
0.004335987542468863
0.004335987542449721
0.004335987542457783
0.004335987542496834
0.004335987542501024
0.004335987542488814
0.004335987542495068
0.004335987542495561
0.004335987542492253
0.004335987542476893
0.004335987542483787
0.004335987542483556
0.004335987542468727
0.004335987542488051
0.004335987542492244
0.00433598754247524
0.00433598754249465
0.004335987542499715
0.004335987542485605
0.004335987542503267
0.004335987542503365
0.004335987542489128
0.004335987542503327
0.004335987542511677
0.004335987542505031
0.00433598754251198
0.004335987542513857
0.004335987542512735
0.004335987542511224
0.004335987542498827
0.00433598754249636
0.00433598754250742
0.00433598754250636
0.004335987542510463
0.004335987542512148
0.004335987542511401
0.004335987542509198
0.004335987542496302
0.004335987542495891
0.004335987542495294
0.004335987542492366
0.004335987542485111
0.00433598754248292
0.004335987542478691
0.004335987542465019
0.004335987542475741
0.004335987542475197
0.004335987542474006
0.00433598754246445
0.004914780145260715
0.004914780145284721
0.004914780145330621
0.004914780145340832
0.004914780145327242
0.004914780145358522
0.004914780145367179
0.004914780145345802
0.004914780145371394
0.004914780145379888
0.004914780145355855
0.00491478014536338
0.004914780145412855
0.004914780145420487
0.004914780145404101
0.004914780145413699
0.00491478014541409
0.004914780145410109
0.004914780145392333
0.004914780145400909
0.004914780145400796
0.004914780145381869
0.004914780145405821
0.004914780145411629
0.004914780145390017
0.004914780145414005
0.004914780145421157
0.004914780145403553
0.004914780145425204
0.004914780145425477
0.004914780145407752
0.004914780145423667
0.004914780145435304
0.004914780145427413
0.004914780145434402
0.004914780145439484
0.004914780145437992
0.004914780145436252
0.004914780145426244
0.004914780145418584
0.004914780145431605
0.004914780145433147
0.004914780145435334
0.0049147801454383
0.004914780145437615
0.004914780145435132
0.004914780145416592
0.004914780145416999
0.004914780145417474
0.004914780145415731
0.004914780145410416
0.004914780145407385
0.004914780145401635
0.004914780145384222
0.004914780145400153
0.004914780145401121
0.004914780145399231
0.004914780145392991
0.005543198311152888
0.005543198311152434
0.005543198311192062
0.00554319831120273
0.005543198311184598
0.005543198311220104
0.00554319831123111
0.005543198311204737
0.005543198311235833
0.00554319831124723
0.005543198311217786
0.005543198311223899
0.005543198311284276
0.005543198311297465
0.005543198311276705
0.005543198311290251
0.005543198311290631
0.005543198311285646
0.00554319831126522
0.00554319831127612
0.005543198311276169
0.005543198311252329
0.005543198311281116
0.005543198311289053
0.005543198311262348
0.005543198311291128
0.005543198311301075
0.005543198311279972
0.005543198311305433
0.005543198311306044
0.005543198311285458
0.005543198311301402
0.005543198311317337
0.005543198311309699
0.005543198311313608
0.005543198311325055
0.005543198311324585
0.005543198311321352
0.005543198311314755
0.005543198311300118
0.005543198311317673
0.005543198311323686
0.005543198311317435
0.0055431983113225
0.005543198311322776
0.005543198311319307
0.005543198311295395
0.005543198311298804
0.005543198311299826
0.005543198311297317
0.005543198311295541
0.005543198311291644
0.0055431983112845
0.005543198311263293
0.005543198311283932
0.005543198311287548
0.005543198311285924
0.005543198311282491
0.006198050193123023
0.006198050193104323
0.00619805019313312
0.006198050193140035
0.006198050193115567
0.006198050193153674
0.00619805019316607
0.006198050193134155
0.006198050193170504
0.00619805019318507
0.006198050193150241
0.006198050193153928
0.006198050193224543
0.006198050193245425
0.006198050193220616
0.00619805019323879
0.006198050193239162
0.006198050193232826
0.006198050193209548
0.006198050193223765
0.006198050193223943
0.006198050193194271
0.006198050193227667
0.006198050193238175
0.006198050193206308
0.006198050193239635
0.006198050193253062
0.006198050193229134
0.006198050193257383
0.006198050193258446
0.006198050193237031
0.006198050193249609
0.006198050193270742
0.006198050193267439
0.006198050193262283
0.006198050193279068
0.006198050193285413
0.006198050193281827
0.006198050193275786
0.006198050193253061
0.006198050193275835
0.006198050193282904
0.00619805019326744
0.006198050193281973
0.006198050193282012
0.006198050193275118
0.006198050193248013
0.006198050193253092
0.006198050193256831
0.00619805019325206
0.006198050193251876
0.006198050193249166
0.006198050193240673
0.006198050193215823
0.006198050193240782
0.006198050193247617
0.006198050193246262
0.006198050193244879
0.006853340740397194
0.006853340740371976
0.006853340740386108
0.006853340740385504
0.006853340740352877
0.006853340740390667
0.006853340740402817
0.006853340740364987
0.006853340740405874
0.006853340740423531
0.00685334074038439
0.006853340740384592
0.006853340740463469
0.006853340740493566
0.006853340740465504
0.00685334074048931
0.006853340740489666
0.006853340740481692
0.006853340740455189
0.006853340740473908
0.006853340740474115
0.006853340740437456
0.006853340740474873
0.006853340740488247
0.006853340740451614
0.006853340740488767
0.006853340740506226
0.006853340740481119
0.006853340740509773
0.006853340740511422
0.006853340740493226
0.006853340740496715
0.006853340740523268
0.006853340740524182
0.006853340740509358
0.00685334074053637
0.006853340740544082
0.006853340740543814
0.006853340740539562
0.006853340740506171
0.00685334074053477
0.006853340740544168
0.006853340740520097
0.00685334074054355
0.006853340740543972
0.00685334074053478
0.006853340740504301
0.00685334074051148
0.0068533407405209
0.00685334074051348
0.006853340740510805
0.006853340740509388
0.006853340740499357
0.006853340740470718
0.006853340740499653
0.006853340740510297
0.006853340740508867
0.006853340740508294
0.007485574124316351
0.007485574124299734
0.007485574124299408
0.00748557412428851
0.00748557412424432
0.007485574124277269
0.007485574124287276
0.007485574124243372
0.007485574124287825
0.007485574124308199
0.007485574124267926
0.007485574124263646
0.007485574124347032
0.007485574124386623
0.007485574124356352
0.007485574124386883
0.007485574124387302
0.007485574124377762
0.007485574124347418
0.007485574124373454
0.007485574124373655
0.007485574124326869
0.007485574124367444
0.007485574124383822
0.007485574124343251
0.007485574124383043
0.007485574124404921
0.007485574124381482
0.007485574124406262
0.007485574124408713
0.007485574124400625
0.007485574124392559
0.007485574124425201
0.007485574124433334
0.007485574124404502
0.00748557412443962
0.007485574124449904
0.007485574124450172
0.007485574124446092
0.007485574124404865
0.007485574124438383
0.007485574124450933
0.007485574124419641
0.00748557412445011
0.007485574124451882
0.007485574124441345
0.00748557412440762
0.00748557412441775
0.007485574124428043
0.007485574124419941
0.007485574124417006
0.007485574124416074
0.007485574124404449
0.007485574124372348
0.007485574124404722
0.007485574124420838
0.007485574124417428
0.007485574124415638
0.008077082521544592
0.008077082521535404
0.008077082521529989
0.008077082521512385
0.008077082521452292
0.008077082521480209
0.008077082521486955
0.008077082521437209
0.008077082521484216
0.008077082521506782
0.008077082521473669
0.008077082521464052
0.008077082521544241
0.008077082521591769
0.008077082521560299
0.008077082521595389
0.008077082521596128
0.008077082521585463
0.008077082521551385
0.00807708252158099
0.00807708252158215
0.008077082521529191
0.008077082521572266
0.008077082521591677
0.008077082521548398
0.008077082521589113
0.00807708252161566
0.008077082521598276
0.008077082521612402
0.008077082521615729
0.00807708252161087
0.008077082521594442
0.008077082521635168
0.008077082521650547
0.008077082521613722
0.008077082521655151
0.008077082521668244
0.008077082521665847
0.008077082521661633
0.008077082521616076
0.008077082521653248
0.008077082521669087
0.008077082521632055
0.008077082521669495
0.008077082521673395
0.008077082521661984
0.008077082521625173
0.008077082521638685
0.008077082521644673
0.008077082521638183
0.00807708252163742
0.00807708252163241
0.008077082521619145
0.00807708252158661
0.008077082521622422
0.008077082521649102
0.008077082521637193
0.008077082521629511
0.008616883959774226
0.008616883959768196
0.008616883959760459
0.008616883959740605
0.008616883959668272
0.008616883959691683
0.008616883959695152
0.008616883959640543
0.008616883959689322
0.008616883959713398
0.008616883959686437
0.008616883959672401
0.00861688395974931
0.008616883959803114
0.008616883959771445
0.008616883959809273
0.008616883959810338
0.008616883959798581
0.008616883959760789
0.008616883959792623
0.008616883959795213
0.008616883959738105
0.00861688395978303
0.00861688395980548
0.008616883959761314
0.008616883959800292
0.008616883959831768
0.008616883959827067
0.008616883959820007
0.00861688395982438
0.008616883959823567
0.008616883959798162
0.008616883959848458
0.008616883959870841
0.00861688395982952
0.008616883959875679
0.00861688395989328
0.008616883959891339
0.008616883959886284
0.008616883959834199
0.008616883959873034
0.008616883959891755
0.008616883959850287
0.008616883959894706
0.008616883959901483
0.008616883959889693
0.008616883959850706
0.00861688395986389
0.008616883959870966
0.008616883959864799
0.008616883959864345
0.008616883959849751
0.008616883959836411
0.008616883959809113
0.008616883959846427
0.008616883959876505
0.008616883959861673
0.008616883959850977
0.009099719372647289
0.009099719372638751
0.009099719372630015
0.009099719372612777
0.009099719372533776
0.009099719372551888
0.009099719372552975
0.009099719372496198
0.009099719372546382
0.009099719372571313
0.009099719372548516
0.009099719372530983
0.009099719372605432
0.009099719372664298
0.009099719372633475
0.009099719372672913
0.009099719372674174
0.009099719372661186
0.009099719372619278
0.009099719372652396
0.009099719372656636
0.009099719372596798
0.009099719372642839
0.009099719372668366
0.009099719372626269
0.009099719372659182
0.009099719372695818
0.009099719372690456
0.009099719372670687
0.009099719372697214
0.009099719372699584
0.009099719372656452
0.009099719372710055
0.009099719372738135
0.009099719372694352
0.009099719372743797
0.009099719372767471
0.009099719372763755
0.00909971937275785
0.009099719372701688
0.009099719372740752
0.009099719372761775
0.009099719372716886
0.009099719372766801
0.009099719372777027
0.009099719372765507
0.009099719372727509
0.009099719372736863
0.009099719372744198
0.009099719372737833
0.009099719372738839
0.009099719372725043
0.009099719372710787
0.009099719372683829
0.00909971937271958
0.009099719372746656
0.009099719372732266
0.009099719372720564
0.009524304587333986
0.009524304587325358
0.009524304587315319
0.009524304587298886
0.009524304587218634
0.009524304587225543
0.009524304587225736
0.009524304587174333
0.009524304587225954
0.009524304587251268
0.009524304587232009
0.009524304587211608
0.009524304587283339
0.00952430458734683
0.009524304587317954
0.009524304587358612
0.009524304587359837
0.009524304587345553
0.009524304587298593
0.009524304587331521
0.009524304587337497
0.009524304587276182
0.009524304587322405
0.009524304587351151
0.009524304587316266
0.009524304587336347
0.009524304587378272
0.009524304587373061
0.009524304587341546
0.009524304587381908
0.009524304587389693
0.009524304587337119
0.009524304587391152
0.009524304587423588
0.009524304587378563
0.009524304587430032
0.009524304587461192
0.009524304587460657
0.009524304587452999
0.009524304587388914
0.009524304587427014
0.009524304587449801
0.009524304587402317
0.009524304587456222
0.009524304587470238
0.009524304587459896
0.009524304587429203
0.00952430458742896
0.009524304587432595
0.009524304587426721
0.009524304587429465
0.009524304587428121
0.009524304587414274
0.009524304587382182
0.009524304587411998
0.00952430458742586
0.009524304587417312
0.009524304587409738
0.009891621359013416
0.009891621359006017
0.009891621358995201
0.009891621358978647
0.009891621358901483
0.009891621358903299
0.009891621358902713
0.009891621358853618
0.009891621358906436
0.009891621358931775
0.009891621358914525
0.009891621358891795
0.009891621358961263
0.009891621359030444
0.009891621359004754
0.009891621359043139
0.009891621359043964
0.009891621359028381
0.009891621358976196
0.009891621359008769
0.009891621359016728
0.00989162135895524
0.009891621359000362
0.009891621359032517
0.009891621359015257
0.009891621359012975
0.009891621359058085
0.0098916213590613
0.009891621359012285
0.00989162135906094
0.009891621359074265
0.00989162135901679
0.009891621359070367
0.009891621359106099
0.009891621359060616
0.009891621359113085
0.009891621359153367
0.009891621359151144
0.009891621359142663
0.009891621359074518
0.009891621359110491
0.009891621359134548
0.009891621359085168
0.009891621359141841
0.009891621359159799
0.009891621359151536
0.00989162135914097
0.009891621359129897
0.009891621359122341
0.009891621359113981
0.009891621359112229
0.00989162135911574