/*--------------------------------*- C++ -*----------------------------------*\
| =========                 |                                                 |
| \\      /  F ield         | OpenFOAM: The Open Source CFD Toolbox           |
|  \\    /   O peration     | Version:  v1812                                 |
|   \\  /    A nd           | Web:      www.OpenFOAM.com                      |
|    \\/     M anipulation  |                                                 |
\*---------------------------------------------------------------------------*/
FoamFile
{
    version     2.0;
    format      ascii;
    class       volScalarField;
    location    "20000";
    object      nuTilda;
}
// * * * * * * * * * * * * * * * * * * * * * * * * * * * * * * * * * * * * * //

dimensions      [0 2 -1 0 0 0 0];


internalField   nonuniform List<scalar> 
3770
(
0.0004781331918029518
0.0004781331918028943
0.0004781331918029166
0.0004781331918028964
0.0004781331918029063
0.0004781331918028915
0.0004781331918028937
0.0004781331918028995
0.0004781331918028933
0.000478133191802892
0.0004781331918028973
0.0004781331918028812
0.0004781331918028825
0.000478133191802888
0.0004781331918028874
0.0004781331918028937
0.000478133191802888
0.0004781331918028866
0.0004781331918028961
0.0004781331918028887
0.0004781331918028874
0.0004781331918028962
0.0004781331918028887
0.0004781331918028876
0.0004781331918028956
0.0004781331918028881
0.0004781331918028865
0.0004781331918028945
0.0004781331918028891
0.0004781331918028888
0.0004781331918028933
0.0004781331918028887
0.0004781331918028882
0.0004781331918028919
0.0004781331918028862
0.0004781331918028866
0.0004781331918028923
0.0004781331918028882
0.0004781331918028882
0.0004781331918028942
0.0004781331918028883
0.0004781331918028892
0.0004781331918028885
0.0004781331918028779
0.0004781331918028872
0.0004781331918028938
0.0004781331918028929
0.0004781331918029015
0.0004781331918028952
0.0004781331918028993
0.000478133191802906
0.0004781331918029111
0.0004781331918029102
0.0004781331918029144
0.0004781331918029123
0.0004781331918029325
0.0004781331918029299
0.0004781331918029527
0.0003920894708300199
0.0003920894708322333
0.00039208947083063
0.0003920894708311342
0.000392089470830261
0.0003920894708314862
0.0003920894708308327
0.0003920894708299362
0.0003920894708307997
0.0003920894708305047
0.0003920894708298322
0.0003920894708305226
0.0003920894708305616
0.0003920894708309883
0.0003920894708306613
0.0003920894708299744
0.0003920894708308492
0.0003920894708304527
0.0003920894708295562
0.0003920894708305496
0.0003920894708302389
0.0003920894708293957
0.0003920894708304025
0.0003920894708301888
0.0003920894708294115
0.0003920894708304361
0.000392089470830259
0.0003920894708294897
0.0003920894708304487
0.0003920894708302618
0.0003920894708296097
0.0003920894708305884
0.0003920894708303714
0.0003920894708298444
0.0003920894708307653
0.0003920894708305424
0.0003920894708299272
0.0003920894708305312
0.0003920894708301155
0.0003920894708296172
0.0003920894708305524
0.0003920894708302819
0.000392089470829598
0.0003920894708298546
0.0003920894708298024
0.0003920894708303663
0.0003920894708300975
0.000392089470829538
0.0003920894708304292
0.0003920894708302105
0.0003920894708293545
0.0003920894708295435
0.0003920894708295345
0.0003920894708303986
0.0003920894708299458
0.000392089470829401
0.0003920894708296042
0.0003920894708295785
0.0007308094844707727
0.0007308094844785482
0.0007308094844739136
0.0007308094844755653
0.000730809484472928
0.0007308094844756052
0.0007308094844742034
0.0007308094844721623
0.0007308094844737593
0.0007308094844732949
0.0007308094844718884
0.0007308094844736936
0.000730809484473869
0.0007308094844742971
0.0007308094844737314
0.000730809484472304
0.000730809484473942
0.0007308094844732372
0.0007308094844711719
0.0007308094844731417
0.0007308094844726503
0.0007308094844707337
0.0007308094844727385
0.0007308094844724961
0.0007308094844707646
0.0007308094844727851
0.0007308094844726633
0.000730809484470987
0.000730809484472877
0.0007308094844726791
0.000730809484471296
0.0007308094844732185
0.0007308094844729585
0.0007308094844719335
0.0007308094844737128
0.0007308094844735176
0.000730809484472309
0.0007308094844731422
0.0007308094844722991
0.0007308094844713544
0.0007308094844731813
0.0007308094844727598
0.0007308094844712968
0.0007308094844717882
0.0007308094844717411
0.0007308094844726708
0.0007308094844722128
0.0007308094844710686
0.0007308094844727617
0.0007308094844724725
0.0007308094844706588
0.000730809484471093
0.0007308094844709956
0.0007308094844724598
0.0007308094844716271
0.0007308094844704196
0.0007308094844711272
0.0007308094844699008
0.001000452842215276
0.001000452842233723
0.001000452842226628
0.001000452842229966
0.001000452842225887
0.00100045284223007
0.001000452842227997
0.001000452842225235
0.001000452842227461
0.001000452842226885
0.001000452842225083
0.001000452842227685
0.001000452842228144
0.001000452842228751
0.001000452842227897
0.001000452842226072
0.001000452842228251
0.00100045284222716
0.001000452842224209
0.001000452842226956
0.00100045284222622
0.001000452842223555
0.00100045284222633
0.001000452842226047
0.001000452842223708
0.001000452842226444
0.001000452842226348
0.001000452842224147
0.001000452842226731
0.001000452842226477
0.001000452842224748
0.00100045284222712
0.001000452842226916
0.001000452842225865
0.001000452842228092
0.001000452842227898
0.001000452842226511
0.001000452842227145
0.00100045284222577
0.00100045284222477
0.001000452842227234
0.0010004528422265
0.001000452842224565
0.00100045284222528
0.001000452842225279
0.001000452842226143
0.001000452842225402
0.001000452842223873
0.001000452842226104
0.001000452842225359
0.00100045284222293
0.001000452842223447
0.001000452842223382
0.001000452842224458
0.001000452842223289
0.001000452842220967
0.001000452842222675
0.001000452842218243
0.00126859290350077
0.001268592903531079
0.001268592903523053
0.001268592903527865
0.001268592903522677
0.001268592903528414
0.001268592903525847
0.001268592903522336
0.00126859290352525
0.001268592903524646
0.001268592903522507
0.001268592903525874
0.001268592903526899
0.001268592903527729
0.001268592903526542
0.0012685929035244
0.001268592903527037
0.001268592903525531
0.001268592903521635
0.001268592903525135
0.001268592903524164
0.001268592903520758
0.001268592903524242
0.001268592903523997
0.001268592903521134
0.001268592903524456
0.001268592903524437
0.001268592903521874
0.001268592903525121
0.001268592903524839
0.001268592903522847
0.00126859290352559
0.001268592903525513
0.001268592903524567
0.001268592903527024
0.001268592903527019
0.001268592903525732
0.001268592903525706
0.00126859290352367
0.001268592903522847
0.001268592903525879
0.001268592903524818
0.001268592903522552
0.001268592903523732
0.001268592903523787
0.00126859290352418
0.001268592903523035
0.001268592903521205
0.001268592903523868
0.001268592903522596
0.001268592903519616
0.00126859290352036
0.001268592903520352
0.001268592903520638
0.001268592903519078
0.001268592903515698
0.00126859290351789
0.001268592903510518
0.00153610053583898
0.001536100535881016
0.001536100535873572
0.001536100535879643
0.00153610053587363
0.001536100535880873
0.001536100535878077
0.001536100535873829
0.001536100535877381
0.001536100535876886
0.001536100535874376
0.001536100535878379
0.001536100535880401
0.001536100535881471
0.001536100535879952
0.001536100535877636
0.001536100535880554
0.001536100535878696
0.001536100535873851
0.001536100535877966
0.001536100535876844
0.001536100535872751
0.001536100535876768
0.001536100535876667
0.001536100535873436
0.00153610053587707
0.001536100535877202
0.001536100535874538
0.001536100535878348
0.001536100535878098
0.001536100535875921
0.001536100535878847
0.00153610053587897
0.001536100535878332
0.001536100535880674
0.001536100535881137
0.001536100535880443
0.00153610053587926
0.00153610053587639
0.001536100535875975
0.001536100535879421
0.001536100535878079
0.001536100535875678
0.001536100535877497
0.001536100535877758
0.001536100535877285
0.001536100535875539
0.001536100535873524
0.001536100535876415
0.001536100535874645
0.001536100535871258
0.001536100535871601
0.001536100535871763
0.001536100535871519
0.001536100535869585
0.001536100535865315
0.00153610053586776
0.001536100535857715
0.001803917832571266
0.001803917832624069
0.001803917832618658
0.001803917832625771
0.001803917832619173
0.001803917832627876
0.001803917832625133
0.001803917832620154
0.001803917832624288
0.001803917832624035
0.001803917832620959
0.001803917832625452
0.001803917832629078
0.001803917832630418
0.001803917832628548
0.001803917832626228
0.001803917832629243
0.001803917832627118
0.001803917832621328
0.001803917832625908
0.001803917832624728
0.001803917832619991
0.001803917832624365
0.001803917832624483
0.00180391783262104
0.001803917832625368
0.001803917832625641
0.001803917832622575
0.001803917832626905
0.001803917832626727
0.001803917832624343
0.001803917832627892
0.001803917832628229
0.001803917832627555
0.001803917832629997
0.001803917832630496
0.001803917832629923
0.001803917832628127
0.001803917832624643
0.0018039178326246
0.001803917832628341
0.001803917832626773
0.00180391783262444
0.001803917832626428
0.001803917832626575
0.001803917832625551
0.001803917832623458
0.001803917832621347
0.001803917832624256
0.001803917832622044
0.001803917832617816
0.001803917832618126
0.001803917832618263
0.001803917832617116
0.001803917832615421
0.001803917832610486
0.001803917832612983
0.001803917832600716
0.002075262818194553
0.002075262818256637
0.002075262818254606
0.002075262818262549
0.002075262818255554
0.002075262818265709
0.002075262818263297
0.00207526281825757
0.002075262818262259
0.002075262818262352
0.002075262818258587
0.002075262818263545
0.002075262818269333
0.002075262818270871
0.002075262818268588
0.002075262818266465
0.002075262818269408
0.0020752628182671
0.002075262818260363
0.002075262818265269
0.002075262818264114
0.002075262818258723
0.002075262818263884
0.002075262818264222
0.002075262818260183
0.002075262818265438
0.002075262818265911
0.002075262818262251
0.002075262818267133
0.00207526281826704
0.002075262818264349
0.002075262818268728
0.002075262818269374
0.002075262818268473
0.002075262818271135
0.002075262818271547
0.002075262818270923
0.002075262818268879
0.002075262818264726
0.002075262818264993
0.002075262818268982
0.002075262818267241
0.0020752628182652
0.002075262818267135
0.00207526281826712
0.002075262818265678
0.002075262818263168
0.002075262818261023
0.002075262818263756
0.002075262818261172
0.002075262818255884
0.002075262818256302
0.00207526281825631
0.002075262818253991
0.002075262818252984
0.002075262818247651
0.002075262818250016
0.002075262818236093
0.002356507858854127
0.00235650785892362
0.002356507858926266
0.002356507858934823
0.002356507858927557
0.002356507858939227
0.002356507858937415
0.002356507858930867
0.002356507858936622
0.002356507858937118
0.002356507858932126
0.002356507858937564
0.00235650785894612
0.002356507858947754
0.002356507858944919
0.002356507858943246
0.002356507858945962
0.002356507858943545
0.002356507858935845
0.002356507858940955
0.0023565078589399
0.002356507858933778
0.002356507858940027
0.002356507858940649
0.002356507858935711
0.002356507858942116
0.002356507858942882
0.002356507858938446
0.002356507858944283
0.002356507858944228
0.0023565078589408
0.002356507858946166
0.002356507858947277
0.002356507858945998
0.002356507858949068
0.002356507858949355
0.002356507858948534
0.002356507858946452
0.002356507858941231
0.002356507858941809
0.002356507858946299
0.002356507858944443
0.002356507858942945
0.002356507858944688
0.00235650785894453
0.002356507858942779
0.002356507858939648
0.002356507858937526
0.002356507858939896
0.002356507858937018
0.002356507858930808
0.002356507858931355
0.00235650785893092
0.002356507858927132
0.002356507858927248
0.002356507858921829
0.002356507858923879
0.002356507858908939
0.002657760110554224
0.002657760110628357
0.002657760110637081
0.002657760110646409
0.002657760110638931
0.002657760110652284
0.002657760110651344
0.002657760110643793
0.002657760110651068
0.002657760110652112
0.002657760110645427
0.002657760110651355
0.00265776011066343
0.002657760110665076
0.002657760110661441
0.002657760110660559
0.002657760110662908
0.002657760110660433
0.002657760110651731
0.002657760110656945
0.002657760110656048
0.002657760110649053
0.00265776011065672
0.002657760110657721
0.002657760110651538
0.002657760110659383
0.00265776011066057
0.002657760110655122
0.002657760110662248
0.002657760110662205
0.002657760110657654
0.002657760110664178
0.002657760110665974
0.00265776011066415
0.002657760110667562
0.002657760110667761
0.002657760110666893
0.002657760110664922
0.002657760110658398
0.002657760110659184
0.002657760110664347
0.002657760110662456
0.002657760110661798
0.002657760110663245
0.002657760110662942
0.002657760110660988
0.00265776011065697
0.002657760110654946
0.002657760110656773
0.002657760110653686
0.002657760110646857
0.002657760110647082
0.002657760110646239
0.002657760110640897
0.002657760110642271
0.002657760110637158
0.002657760110638703
0.002657760110623438
0.002992595112063216
0.00299259511213855
0.002992595112154814
0.002992595112164944
0.002992595112157227
0.002992595112172595
0.002992595112172823
0.002992595112163967
0.002992595112173294
0.002992595112175106
0.002992595112166216
0.002992595112172616
0.0029925951121892
0.002992595112190907
0.002992595112186053
0.002992595112186393
0.002992595112188241
0.002992595112185722
0.00299259511217593
0.002992595112181187
0.002992595112180487
0.002992595112172388
0.002992595112181912
0.002992595112183419
0.002992595112175541
0.002992595112185239
0.002992595112187016
0.00299259511218023
0.002992595112189045
0.002992595112188984
0.002992595112182863
0.002992595112190766
0.002992595112193552
0.002992595112190962
0.002992595112194829
0.002992595112195007
0.002992595112194174
0.002992595112192419
0.002992595112184514
0.002992595112185192
0.002992595112191227
0.002992595112189446
0.002992595112189923
0.002992595112190992
0.002992595112190532
0.002992595112188468
0.00299259511218322
0.002992595112181413
0.00299259511218254
0.002992595112179336
0.002992595112172251
0.002992595112171839
0.002992595112170442
0.002992595112163617
0.002992595112166474
0.002992595112161849
0.002992595112162696
0.002992595112147862
0.003376223514406746
0.003376223514478639
0.003376223514503808
0.003376223514514574
0.003376223514506425
0.003376223514524625
0.003376223514526337
0.003376223514515484
0.003376223514527571
0.00337622351453043
0.003376223514518737
0.003376223514525544
0.003376223514547919
0.00337622351455008
0.003376223514543344
0.003376223514545361
0.003376223514546631
0.003376223514543995
0.003376223514532933
0.003376223514538237
0.003376223514537753
0.003376223514528198
0.003376223514540192
0.00337622351454236
0.003376223514532181
0.003376223514544326
0.003376223514546908
0.003376223514538318
0.003376223514549379
0.003376223514549267
0.003376223514541032
0.0033762235145506
0.003376223514554757
0.003376223514551106
0.003376223514555703
0.003376223514556069
0.00337622351455534
0.00337622351455382
0.003376223514544688
0.003376223514544587
0.00337622351455192
0.003376223514550304
0.003376223514551923
0.003376223514552817
0.00337622351455222
0.003376223514550173
0.003376223514543181
0.003376223514541764
0.003376223514542086
0.003376223514538884
0.003376223514531864
0.003376223514530673
0.003376223514528544
0.003376223514519878
0.003376223514524613
0.003376223514520862
0.00337622351452091
0.003376223514507261
0.003821843706077519
0.003821843706139813
0.003821843706174561
0.003821843706185381
0.003821843706176322
0.003821843706198236
0.003821843706201834
0.003821843706188242
0.003821843706204
0.003821843706208204
0.003821843706193072
0.003821843706200148
0.00382184370622979
0.003821843706233011
0.003821843706223531
0.00382184370622795
0.003821843706228737
0.003821843706225739
0.003821843706213063
0.003821843706218621
0.003821843706218293
0.00382184370620675
0.003821843706222032
0.003821843706225028
0.003821843706211804
0.003821843706227182
0.003821843706230814
0.003821843706219796
0.003821843706233831
0.003821843706233655
0.003821843706222744
0.003821843706234316
0.003821843706240209
0.00382184370623514
0.003821843706240925
0.003821843706242062
0.003821843706241465
0.003821843706240112
0.003821843706230272
0.003821843706228172
0.003821843706236971
0.003821843706236101
0.003821843706238578
0.003821843706239642
0.003821843706238947
0.003821843706236948
0.003821843706227431
0.003821843706226773
0.003821843706226375
0.00382184370622333
0.003821843706217033
0.003821843706215181
0.003821843706211807
0.003821843706200391
0.003821843706207488
0.00382184370620522
0.00382184370620462
0.003821843706192647
0.004335987542657452
0.004335987542703438
0.004335987542746205
0.004335987542756665
0.004335987542745871
0.004335987542772209
0.004335987542778104
0.00433598754276098
0.004335987542781297
0.004335987542787309
0.004335987542767996
0.004335987542774894
0.004335987542813317
0.004335987542818762
0.004335987542805753
0.004335987542813351
0.004335987542813744
0.004335987542810102
0.00433598754279546
0.004335987542801747
0.004335987542801452
0.004335987542787145
0.004335987542806514
0.004335987542810656
0.004335987542793569
0.004335987542812941
0.00433598754281805
0.004335987542803992
0.004335987542821648
0.004335987542821481
0.004335987542807407
0.00433598754282103
0.004335987542829211
0.004335987542822714
0.004335987542829343
0.00433598754283235
0.004335987542831894
0.004335987542830847
0.004335987542821752
0.004335987542815832
0.004335987542826165
0.004335987542827015
0.004335987542828959
0.004335987542830815
0.004335987542829902
0.004335987542827708
0.004335987542814634
0.004335987542815308
0.004335987542814676
0.00433598754281206
0.004335987542807256
0.00433598754280492
0.00433598754280002
0.004335987542784891
0.004335987542795199
0.004335987542794618
0.004335987542793567
0.004335987542784062
0.004914780145617601
0.004914780145641714
0.004914780145687337
0.004914780145697406
0.004914780145683642
0.004914780145714663
0.004914780145723065
0.004914780145701621
0.004914780145727173
0.004914780145735563
0.004914780145711385
0.004914780145717366
0.004914780145765688
0.004914780145775125
0.004914780145758043
0.00491478014576965
0.004914780145769775
0.004914780145765163
0.004914780145748195
0.004914780145756208
0.004914780145755783
0.004914780145737473
0.004914780145761521
0.00491478014576726
0.004914780145745564
0.004914780145769499
0.004914780145776688
0.004914780145759154
0.00491478014578081
0.00491478014578081
0.004914780145763428
0.00491478014577851
0.004914780145789831
0.004914780145782479
0.004914780145788317
0.004914780145794946
0.004914780145794798
0.004914780145794386
0.004914780145787399
0.004914780145775622
0.00491478014578901
0.004914780145793023
0.004914780145790706
0.004914780145794327
0.004914780145793132
0.004914780145790116
0.004914780145771931
0.004914780145774685
0.004914780145774841
0.004914780145772741
0.00491478014577056
0.004914780145767847
0.004914780145761484
0.004914780145741903
0.004914780145757037
0.004914780145757667
0.004914780145756049
0.004914780145750107
0.005543198311549231
0.005543198311548945
0.005543198311588012
0.005543198311598643
0.005543198311580356
0.005543198311615505
0.005543198311626142
0.005543198311599683
0.00554319831163073
0.005543198311642015
0.005543198311612762
0.005543198311616786
0.005543198311675175
0.005543198311690783
0.005543198311669504
0.005543198311685903
0.005543198311685921
0.005543198311680109
0.005543198311660471
0.005543198311672552
0.005543198311671785
0.005543198311647028
0.005543198311675937
0.005543198311683779
0.00554319831165699
0.005543198311685695
0.005543198311695665
0.005543198311674649
0.005543198311700124
0.005543198311700477
0.005543198311680485
0.00554319831169523
0.005543198311710922
0.00554319831170445
0.005543198311705862
0.00554319831171813
0.005543198311719156
0.005543198311719623
0.005543198311715593
0.005543198311695912
0.005543198311713543
0.005543198311719151
0.005543198311708346
0.005543198311719063
0.005543198311718414
0.005543198311712781
0.005543198311690664
0.005543198311696214
0.005543198311697342
0.005543198311695451
0.005543198311695775
0.005543198311691992
0.005543198311684807
0.005543198311660648
0.005543198311680092
0.005543198311683345
0.005543198311682259
0.005543198311679175
0.006198050193558807
0.006198050193540311
0.006198050193567799
0.006198050193574929
0.006198050193550662
0.006198050193588283
0.006198050193600163
0.006198050193568137
0.006198050193604435
0.006198050193618929
0.006198050193585448
0.006198050193586266
0.006198050193653433
0.006198050193677277
0.006198050193652161
0.006198050193674063
0.006198050193674177
0.006198050193667091
0.006198050193644414
0.006198050193660399
0.006198050193659485
0.006198050193628031
0.006198050193661537
0.006198050193671919
0.006198050193639964
0.006198050193673192
0.006198050193686619
0.006198050193662786
0.006198050193691057
0.0061980501936919
0.006198050193671344
0.006198050193682228
0.006198050193703887
0.006198050193702454
0.006198050193694144
0.006198050193713329
0.006198050193719182
0.006198050193717431
0.006198050193714109
0.006198050193687062
0.006198050193710227
0.006198050193717229
0.006198050193697954
0.006198050193717367
0.006198050193717182
0.006198050193709387
0.006198050193683578
0.006198050193691181
0.006198050193694442
0.006198050193691744
0.006198050193692363
0.006198050193687066
0.006198050193680487
0.006198050193652813
0.006198050193676113
0.006198050193683025
0.00619805019368231
0.006198050193681032
0.006853340740870423
0.00685334074084534
0.006853340740855278
0.006853340740855408
0.006853340740825293
0.006853340740862386
0.006853340740873843
0.006853340740835897
0.006853340740876742
0.006853340740894475
0.006853340740859743
0.006853340740856099
0.00685334074092866
0.006853340740961871
0.006853340740933684
0.00685334074096167
0.006853340740962122
0.006853340740953836
0.00685334074092773
0.006853340740948084
0.006853340740947162
0.006853340740908276
0.006853340740945728
0.006853340740958931
0.00685334074092221
0.006853340740959238
0.006853340740976657
0.006853340740951637
0.006853340740980322
0.006853340740981797
0.006853340740964575
0.006853340740965724
0.006853340740995846
0.006853340740997571
0.006853340740977426
0.006853340741007502
0.006853340741017795
0.006853340741012944
0.006853340741008744
0.006853340740976592
0.006853340741005697
0.006853340741014968
0.006853340740987868
0.006853340741015353
0.006853340741016318
0.006853340741007179
0.006853340740977701
0.006853340740987423
0.006853340740993521
0.006853340740989984
0.006853340740993728
0.006853340740985598
0.006853340740976041
0.006853340740945474
0.006853340740972099
0.006853340740983656
0.006853340740982644
0.006853340740981649
0.007485574124823539
0.007485574124806797
0.007485574124803477
0.007485574124793111
0.00748557412475023
0.007485574124782203
0.007485574124791337
0.007485574124747415
0.007485574124791863
0.00748557412481261
0.007485574124784402
0.007485574124775292
0.007485574124845956
0.007485574124887756
0.007485574124857409
0.007485574124891525
0.007485574124892552
0.007485574124883211
0.007485574124853378
0.007485574124878744
0.007485574124878076
0.007485574124831038
0.007485574124871571
0.007485574124887723
0.007485574124847084
0.007485574124886723
0.007485574124908486
0.007485574124885114
0.007485574124909929
0.007485574124912239
0.007485574124904792
0.007485574124895271
0.007485574124928181
0.007485574124936729
0.007485574124905846
0.007485574124943524
0.007485574124961828
0.007485574124955878
0.007485574124947188
0.007485574124908705
0.00748557412494241
0.007485574124954482
0.007485574124920678
0.007485574124955154
0.007485574124958099
0.007485574124948049
0.007485574124915293
0.007485574124927443
0.007485574124933849
0.007485574124930382
0.007485574124934931
0.007485574124925651
0.007485574124915357
0.007485574124881405
0.007485574124910606
0.007485574124928038
0.007485574124925263
0.007485574124922858
0.00807708252208158
0.008077082522071535
0.008077082522064672
0.008077082522046754
0.008077082521986714
0.008077082522013208
0.008077082522018856
0.008077082521969403
0.008077082522016533
0.008077082522039782
0.008077082522018495
0.008077082522004593
0.008077082522072124
0.008077082522121042
0.008077082522089446
0.008077082522128444
0.008077082522130165
0.008077082522119795
0.008077082522086231
0.008077082522114875
0.008077082522115014
0.008077082522061902
0.008077082522104848
0.008077082522123981
0.008077082522080739
0.008077082522121266
0.008077082522147531
0.008077082522130177
0.008077082522144338
0.008077082522147543
0.008077082522142107
0.008077082522124905
0.008077082522165855
0.008077082522181415
0.00807708252214342
0.008077082522186842
0.008077082522204185
0.008077082522203887
0.008077082522197496
0.008077082522149207
0.008077082522185813
0.0080770825222007
0.008077082522161457
0.008077082522202345
0.008077082522208026
0.008077082522197389
0.008077082522162294
0.008077082522176173
0.008077082522180519
0.008077082522177512
0.008077082522178893
0.008077082522172065
0.008077082522165567
0.008077082522126466
0.008077082522157076
0.008077082522181154
0.008077082522174624
0.00807708252216964
0.008616883960335638
0.008616883960329638
0.008616883960321647
0.008616883960298746
0.008616883960225506
0.008616883960246855
0.008616883960248924
0.008616883960195276
0.00861688396024445
0.008616883960269541
0.008616883960253931
0.008616883960236126
0.008616883960300657
0.008616883960355339
0.00861688396032338
0.008616883960365907
0.008616883960368226
0.0086168839603568
0.008616883960319425
0.008616883960350088
0.008616883960351393
0.008616883960293965
0.008616883960338681
0.008616883960360824
0.008616883960317068
0.008616883960355794
0.008616883960386601
0.008616883960381854
0.008616883960374834
0.008616883960379129
0.008616883960378031
0.008616883960352047
0.0086168839604021
0.008616883960424452
0.008616883960382118
0.008616883960429816
0.008616883960450687
0.008616883960450798
0.008616883960445031
0.008616883960390913
0.008616883960428883
0.008616883960446199
0.008616883960402675
0.008616883960449344
0.008616883960458403
0.008616883960447705
0.008616883960412667
0.008616883960425236
0.008616883960428583
0.008616883960423663
0.008616883960422849
0.00861688396041671
0.008616883960415348
0.008616883960374447
0.008616883960404571
0.00861688396043051
0.008616883960422667
0.008616883960416249
0.009099719373227337
0.009099719373222948
0.009099719373215621
0.00909971937318972
0.00909971937310829
0.009099719373123536
0.009099719373122692
0.009099719373067677
0.009099719373118707
0.00909971937314503
0.009099719373133667
0.009099719373112701
0.009099719373174582
0.009099719373234179
0.009099719373202803
0.009099719373247486
0.009099719373250241
0.009099719373237744
0.009099719373196268
0.009099719373227916
0.009099719373230571
0.009099719373170268
0.009099719373216034
0.009099719373241279
0.009099719373200466
0.00909971937323306
0.009099719373268204
0.009099719373262699
0.009099719373242951
0.009099719373269409
0.009099719373271592
0.009099719373228017
0.009099719373281258
0.009099719373309119
0.009099719373264257
0.00909971937331497
0.009099719373341452
0.009099719373341596
0.009099719373335858
0.009099719373276397
0.009099719373314457
0.009099719373333644
0.009099719373286793
0.009099719373338097
0.009099719373350967
0.009099719373341026
0.009099719373311523
0.009099719373318325
0.00909971937331883
0.009099719373306404
0.009099719373305186
0.009099719373305804
0.009099719373307554
0.009099719373267499
0.00909971937329564
0.009099719373318113
0.009099719373310855
0.009099719373304038
0.009524304587927027
0.009524304587925166
0.00952430458791733
0.009524304587889911
0.009524304587806391
0.009524304587811911
0.009524304587808695
0.009524304587757026
0.009524304587810029
0.009524304587837122
0.009524304587828976
0.009524304587805408
0.009524304587864692
0.009524304587929093
0.009524304587899329
0.009524304587943996
0.009524304587947056
0.009524304587933777
0.009524304587887876
0.009524304587919597
0.009524304587923742
0.009524304587861855
0.009524304587907761
0.009524304587936296
0.009524304587904306
0.009524304587924097
0.009524304587963042
0.009524304587957425
0.009524304587925893
0.00952430458796621
0.009524304587973778
0.009524304587920852
0.00952430458797455
0.009524304588006583
0.009524304587960346
0.009524304588012985
0.00952430458804614
0.009524304588041549
0.009524304588036202
0.009524304587976033
0.009524304588013267
0.009524304588033784
0.009524304587984393
0.009524304588039113
0.00952430458805599
0.009524304588047644
0.009524304588035595
0.009524304588028833
0.009524304588020779
0.009524304588012176
0.009524304588008492
0.009524304588006844
0.009524304588008316
0.009524304587975686
0.009524304588000238
0.009524304588014808
0.009524304588009243
0.009524304588002505
0.009891621359616359
0.009891621359615793
0.009891621359607604
0.009891621359580176
0.009891621359500726
0.00989162135949377
0.009891621359487174
0.009891621359442533
0.009891621359497178
0.009891621359524637
0.009891621359518576
0.009891621359492815
0.009891621359549662
0.009891621359619731
0.009891621359592829
0.009891621359632412
0.00989162135963555
0.009891621359623017
0.009891621359572774
0.009891621359604237
0.009891621359610123
0.009891621359547994
0.009891621359592765
0.009891621359624748
0.009891621359611956
0.009891621359609543
0.009891621359650323
0.009891621359652682
0.009891621359603643
0.009891621359652287
0.009891621359665351
0.009891621359607574
0.009891621359660848
0.009891621359696007
0.009891621359649164
0.009891621359702835
0.009891621359742881
0.009891621359740182
0.009891621359734348
0.009891621359668663
0.009891621359704216
0.009891621359725579
0.009891621359674318
0.009891621359731363
0.009891621359752177
0.009891621359744801
0.009891621359747485
0.009891621359744848
0.009891621359738128
0.00989162135972879
0.009891621359714704
0.009891621359702327