/*--------------------------------*- C++ -*----------------------------------*\
| =========                 |                                                 |
| \\      /  F ield         | OpenFOAM: The Open Source CFD Toolbox           |
|  \\    /   O peration     | Version:  v1812                                 |
|   \\  /    A nd           | Web:      www.OpenFOAM.com                      |
|    \\/     M anipulation  |                                                 |
\*---------------------------------------------------------------------------*/
FoamFile
{
    version     2.0;
    format      ascii;
    class       volScalarField;
    location    "20000";
    object      p;
}
// * * * * * * * * * * * * * * * * * * * * * * * * * * * * * * * * * * * * * //

dimensions      [0 2 -2 0 0 0 0];


internalField   nonuniform List<scalar> 
3770
(
-3.339919830046432e-16
-3.211288692346308e-12
-3.147062880456832e-12
-4.023223638864911e-12
-4.15057921032994e-12
-4.490409519259826e-12
-4.576225876334526e-12
-4.668647075060413e-12
-4.765713835936002e-12
-4.768732577728239e-12
-4.750405033453455e-12
-4.789786260399729e-12
-4.803121908557204e-12
-4.739218351291828e-12
-4.708911832827282e-12
-4.652578680959384e-12
-4.639471395743369e-12
-4.601692888504714e-12
-4.561604412039133e-12
-4.551402861878957e-12
-4.500166844825337e-12
-4.459427629441566e-12
-4.448237855284285e-12
-4.380719956433896e-12
-4.329050991222574e-12
-4.294023620930749e-12
-4.240158125167138e-12
-4.175000706954015e-12
-4.122771381950423e-12
-4.056192530127766e-12
-4.016809651521486e-12
-3.975294358394518e-12
-3.924469806032269e-12
-3.869180070088376e-12
-3.854342902340752e-12
-3.779364468683458e-12
-3.692972690231651e-12
-3.635942467177085e-12
-3.5714515446582e-12
-3.464180518622432e-12
-3.456104621609249e-12
-3.351896624971317e-12
-3.284268885113453e-12
-3.18099566666572e-12
-3.138594320981122e-12
-2.995233882032864e-12
-2.977185381126742e-12
-2.791486442382783e-12
-2.814082238356661e-12
-2.548837514236554e-12
-2.590556886353765e-12
-2.19258321150569e-12
-2.369970991315657e-12
-1.803323790948313e-12
-2.151030368703059e-12
-1.195415826229845e-12
-1.654616927288132e-12
-6.010100594671604e-13
4.304263750589795e-15
-3.207390361816037e-12
-3.147568038114415e-12
-4.021393812944472e-12
-4.150409476463619e-12
-4.489380694661396e-12
-4.576283358902267e-12
-4.668366927430179e-12
-4.765374447921735e-12
-4.768849161968179e-12
-4.75041572738374e-12
-4.789418055658416e-12
-4.802947616161188e-12
-4.73906554622974e-12
-4.708970106885418e-12
-4.652446578453101e-12
-4.639118313360154e-12
-4.60181530592088e-12
-4.561598060249092e-12
-4.551111168894648e-12
-4.500327160826481e-12
-4.459464961574597e-12
-4.44800143328042e-12
-4.380901145243831e-12
-4.329114265724032e-12
-4.293772521121489e-12
-4.240310688996452e-12
-4.175116068697209e-12
-4.122632415535741e-12
-4.056326228279567e-12
-4.016839045553041e-12
-3.975248130789115e-12
-3.924554854181718e-12
-3.868832965672957e-12
-3.853999501775962e-12
-3.779613073941691e-12
-3.693021690084893e-12
-3.63581090230287e-12
-3.571772056857605e-12
-3.464182862678631e-12
-3.455942916319775e-12
-3.352189573715717e-12
-3.284571251807173e-12
-3.181130148921269e-12
-3.138678471984421e-12
-2.995324865393022e-12
-2.977644171982127e-12
-2.791761570716497e-12
-2.814286184847842e-12
-2.549446478469293e-12
-2.591494614284332e-12
-2.193158641793124e-12
-2.370661461021979e-12
-1.803986880214873e-12
-2.152704124327777e-12
-1.197076680383676e-12
-1.655452865953627e-12
-6.044858951411158e-13
1.884801442758096e-14
-3.196409685868668e-12
-3.147579002930931e-12
-4.017169540574317e-12
-4.149010959738064e-12
-4.486619585534656e-12
-4.576860529743072e-12
-4.66746214276966e-12
-4.764227647465728e-12
-4.769387183570539e-12
-4.750021794641849e-12
-4.788024293066111e-12
-4.802386520941538e-12
-4.738772666182678e-12
-4.709578464609526e-12
-4.651919898147004e-12
-4.638175150286156e-12
-4.602737590195689e-12
-4.561422761745868e-12
-4.550165783075042e-12
-4.50124470185591e-12
-4.459333648857932e-12
-4.447065548670354e-12
-4.381761205048551e-12
-4.329032619842038e-12
-4.292795969793209e-12
-4.241109590415703e-12
-4.175203995297563e-12
-4.121972045997761e-12
-4.056933498921755e-12
-4.016706054872156e-12
-3.974816549096625e-12
-3.924909065618378e-12
-3.867859624844732e-12
-3.853242526490263e-12
-3.780601825728498e-12
-3.693047590040081e-12
-3.635567525395403e-12
-3.572890329893159e-12
-3.463883743434376e-12
-3.455444392538476e-12
-3.35345576400153e-12
-3.285538979881381e-12
-3.181357722611692e-12
-3.138775891871568e-12
-2.99558296241525e-12
-2.979234393058013e-12
-2.792292811233038e-12
-2.814885238273525e-12
-2.551658268005851e-12
-2.594220268486684e-12
-2.194545678716025e-12
-2.372572027927956e-12
-1.805890867337294e-12
-2.158094209919981e-12
-1.201586110844594e-12
-1.660070869895632e-12
-6.13225728812014e-13
3.86832434220373e-14
-3.178984934372446e-12
-3.146360190400664e-12
-4.011072866891308e-12
-4.146559749860182e-12
-4.482758189107886e-12
-4.577189145937204e-12
-4.666031916768118e-12
-4.762628466014124e-12
-4.769812887800545e-12
-4.74927971498513e-12
-4.786133855605762e-12
-4.801644511871198e-12
-4.738419018057766e-12
-4.710251439337898e-12
-4.651138457802074e-12
-4.636987868927185e-12
-4.603827126849601e-12
-4.561142273506932e-12
-4.548993267736417e-12
-4.502328756939433e-12
-4.459128428985257e-12
-4.445903223001082e-12
-4.382736669494176e-12
-4.328932231419465e-12
-4.291618771422514e-12
-4.241986953317336e-12
-4.175288083938821e-12
-4.121242384574515e-12
-4.057713298035408e-12
-4.016328778228035e-12
-3.974116683810444e-12
-3.925486469346677e-12
-3.866616845392361e-12
-3.852176241915957e-12
-3.781704766740233e-12
-3.693162985706552e-12
-3.635501396887773e-12
-3.574267803353296e-12
-3.463456597758755e-12
-3.454958222074046e-12
-3.355118076930476e-12
-3.286818489168608e-12
-3.181708892487699e-12
-3.139084150910576e-12
-2.996176495094922e-12
-2.981333417995712e-12
-2.793103049548338e-12
-2.816045553677104e-12
-2.554728830267799e-12
-2.597910939657736e-12
-2.196596977494302e-12
-2.37562969707963e-12
-1.808987705186849e-12
-2.165652740122212e-12
-1.207955150464567e-12
-1.667956092958999e-12
-6.275039174796773e-13
5.522509998536961e-14
-3.161401768351897e-12
-3.143708209398685e-12
-4.005228612561045e-12
-4.143557733893546e-12
-4.479204221914457e-12
-4.577031676432888e-12
-4.664410061403164e-12
-4.761102166798966e-12
-4.769907272509768e-12
-4.74831040428059e-12
-4.784441222043815e-12
-4.800978147297846e-12
-4.738149898716065e-12
-4.710771963970819e-12
-4.65031045745397e-12
-4.636027633852059e-12
-4.604709080614343e-12
-4.560750852172457e-12
-4.548066143498983e-12
-4.503190794047354e-12
-4.458818249124411e-12
-4.444999284839061e-12
-4.383432199347885e-12
-4.328761888614917e-12
-4.290767440275431e-12
-4.242581140253097e-12
-4.17521682823301e-12
-4.120789362965846e-12
-4.058394811937598e-12
-4.015724195718174e-12
-3.973397499236343e-12
-3.926118928272872e-12
-3.865457732725436e-12
-3.851149347437321e-12
-3.782514454942941e-12
-3.693362669021607e-12
-3.635770624414499e-12
-3.57539600857849e-12
-3.462937247317407e-12
-3.454762137887964e-12
-3.356601211913519e-12
-3.287798767088001e-12
-3.181998203355496e-12
-3.139559198637631e-12
-2.997022526691367e-12
-2.983208323564257e-12
-2.793800618039547e-12
-2.817502340105428e-12
-2.55760812798013e-12
-2.601164480645009e-12
-2.19841327415192e-12
-2.378779789661007e-12
-1.812189488300178e-12
-2.172748712768976e-12
-1.213618565214739e-12
-1.676092372186871e-12
-6.430175794119738e-13
6.726238343891271e-14
-3.145584577789672e-12
-3.139920030939265e-12
-3.999975264660765e-12
-4.14025844900374e-12
-4.476015820394455e-12
-4.576480236130879e-12
-4.662772306640759e-12
-4.759664416363667e-12
-4.769715575550798e-12
-4.747287814450388e-12
-4.782990215780521e-12
-4.800334683509154e-12
-4.737907003900176e-12
-4.711155008307312e-12
-4.649538508055656e-12
-4.635253252169634e-12
-4.605378292209347e-12
-4.560348944622111e-12
-4.547355815602845e-12
-4.503824687461256e-12
-4.458492255672169e-12
-4.444315670996735e-12
-4.383828925274624e-12
-4.328596116658662e-12
-4.290207594968995e-12
-4.242874889781192e-12
-4.175056361271521e-12
-4.120573012106586e-12
-4.058891182426414e-12
-4.015017161699693e-12
-3.972765190405705e-12
-3.926688970658134e-12
-3.864339460222425e-12
-3.850146240065702e-12
-3.783032380973576e-12
-3.693718203419563e-12
-3.636325045407197e-12
-3.576228210389387e-12
-3.462390495852669e-12
-3.45479044592214e-12
-3.357814051936648e-12
-3.288433601911689e-12
-3.182192556166796e-12
-3.14019649634396e-12
-2.998056598724936e-12
-2.984801672367781e-12
-2.79441190821785e-12
-2.819052366690897e-12
-2.560150060248041e-12
-2.603930239562181e-12
-2.199988386800206e-12
-2.381686391595566e-12
-1.815209062658237e-12
-2.178947549297897e-12
-1.218487547944435e-12
-1.683634984157823e-12
-6.577583999887505e-13
7.554833718630969e-14
-3.131391925107092e-12
-3.135119034377012e-12
-3.995074500124782e-12
-4.136674260822956e-12
-4.472939532177234e-12
-4.575590192305746e-12
-4.661139375700709e-12
-4.758226645369361e-12
-4.769303670912823e-12
-4.746246122110388e-12
-4.781617136927545e-12
-4.799614294667389e-12
-4.737639014912633e-12
-4.711437498147827e-12
-4.648849982487087e-12
-4.634568115878275e-12
-4.605893494512625e-12
-4.559989275081813e-12
-4.54675947814026e-12
-4.504286935620845e-12
-4.458209491323731e-12
-4.443759256129728e-12
-4.383973005554023e-12
-4.328453780091031e-12
-4.289820005948018e-12
-4.242926781912862e-12
-4.174830797436936e-12
-4.120478780978884e-12
-4.05922467513672e-12
-4.014243999061816e-12
-3.972196065512715e-12
-3.927186314754656e-12
-3.863234507136903e-12
-3.84916059000353e-12
-3.783398897818199e-12
-3.694240140022156e-12
-3.63704282365878e-12
-3.576818136774937e-12
-3.461858749967634e-12
-3.454951850119624e-12
-3.358792191378488e-12
-3.288834784377389e-12
-3.182394660933067e-12
-3.14100060603128e-12
-2.999196984350955e-12
-2.98618320563015e-12
-2.795020528465145e-12
-2.820659305342086e-12
-2.562504462972641e-12
-2.606474726802992e-12
-2.201480957189921e-12
-2.384387331872523e-12
-1.818047050351753e-12
-2.184482036777835e-12
-1.222923803594159e-12
-1.690688828854946e-12
-6.716751489813508e-13
8.039908561304049e-14
-3.118554854779053e-12
-3.129261212281412e-12
-3.990340877699332e-12
-4.132750435724154e-12
-4.469812073657365e-12
-4.574363538954564e-12
-4.659489970434576e-12
-4.756733422797699e-12
-4.768706875409623e-12
-4.745210579845047e-12
-4.780211858983071e-12
-4.798758594710608e-12
-4.737340711160966e-12
-4.711628683123755e-12
-4.648220847125452e-12
-4.633915628267474e-12
-4.606275665570581e-12
-4.559683540249536e-12
-4.546230163772538e-12
-4.504604147423231e-12
-4.457953083247048e-12
-4.443262330399368e-12
-4.383928883563839e-12
-4.328329510344266e-12
-4.289527906704207e-12
-4.242811124769602e-12
-4.174543325868787e-12
-4.120440680749229e-12
-4.059493931798682e-12
-4.013415504374368e-12
-3.971639543936605e-12
-3.927681780795281e-12
-3.862109668161467e-12
-3.848150896086047e-12
-3.783710641947692e-12
-3.694875799533996e-12
-3.637823220679509e-12
-3.5772477019414e-12
-3.461352318215997e-12
-3.455202704855444e-12
-3.359581118183677e-12
-3.289124185395943e-12
-3.182679730614624e-12
-3.141901932283892e-12
-3.000355469761259e-12
-2.98741656827386e-12
-2.795685220133267e-12
-2.822313992195706e-12
-2.564791571857537e-12
-2.608916179644267e-12
-2.202946414795018e-12
-2.387000510638344e-12
-1.820746981475506e-12
-2.189460806694308e-12
-1.22712600925556e-12
-1.697353207046567e-12
-6.850243443822472e-13
8.148192641237729e-14
-3.107031611437786e-12
-3.12221317081322e-12
-3.985629110239027e-12
-4.128386772045137e-12
-4.466495416519292e-12
-4.572749691512298e-12
-4.65775393720588e-12
-4.75510393465512e-12
-4.76794603113243e-12
-4.744144900770231e-12
-4.778666695435257e-12
-4.797713260856304e-12
-4.737013866986624e-12
-4.711731357563735e-12
-4.647648644684729e-12
-4.633285141398969e-12
-4.606533659962309e-12
-4.559426826544599e-12
-4.545735031608932e-12
-4.504791855532175e-12
-4.45767772176412e-12
-4.442761735948328e-12
-4.383759038373192e-12
-4.328201189098515e-12
-4.289258792203996e-12
-4.242591786009143e-12
-4.174205578310314e-12
-4.12040095002649e-12
-4.059741315037164e-12
-4.012535764437801e-12
-3.971035544119561e-12
-3.928184081704539e-12
-3.861021711027344e-12
-3.847170348887162e-12
-3.784047595601715e-12
-3.695573380922493e-12
-3.638626189530136e-12
-3.577578009211884e-12
-3.460849184182924e-12
-3.455470051758122e-12
-3.360174896425561e-12
-3.289336799923886e-12
-3.183084585781038e-12
-3.142841377166123e-12
-3.001516706089819e-12
-2.98856357869564e-12
-2.796437567112365e-12
-2.824018452695207e-12
-2.567069389482998e-12
-2.61128623606882e-12
-2.204431929930032e-12
-2.38958912607097e-12
-1.823382594543169e-12
-2.193916245189232e-12
-1.23122892592523e-12
-1.703633577433238e-12
-6.979661801647695e-13
7.801828454363604e-14
-3.096956053306687e-12
-3.113679075728354e-12
-3.980759603800179e-12
-4.1234259479008e-12
-4.462826955367872e-12
-4.570663436981318e-12
-4.655822665687627e-12
-4.753211918024482e-12
-4.767024728552166e-12
-4.743080915319269e-12
-4.776902184323956e-12
-4.796412689948934e-12
-4.736658450426538e-12
-4.711724812971644e-12
-4.647096319916372e-12
-4.632651839130215e-12
-4.606661954911138e-12
-4.559213630997038e-12
-4.545247716011517e-12
-4.504853128739234e-12
-4.4573546844934e-12
-4.442203341165475e-12
-4.38350884338077e-12
-4.32805748826263e-12
-4.288957347435507e-12
-4.242315664510518e-12
-4.173840360387188e-12
-4.120334069025562e-12
-4.060015261754654e-12
-4.011640249971911e-12
-3.970359497455966e-12
-3.928688453372904e-12
-3.859970413705747e-12
-3.846188633486916e-12
-3.784383005852349e-12
-3.696295077178674e-12
-3.639452612411821e-12
-3.577859279135426e-12
-3.460367086155206e-12
-3.455743152675329e-12
-3.360582218113181e-12
-3.289500977617091e-12
-3.183586413296466e-12
-3.143768393916476e-12
-3.002695970099659e-12
-2.989670145699527e-12
-2.797311635310804e-12
-2.825749483443921e-12
-2.569334370790428e-12
-2.613597892699575e-12
-2.206033083266353e-12
-2.392197035294382e-12
-1.826050431535239e-12
-2.197834346433535e-12
-1.235388214634388e-12
-1.709494481326656e-12
-7.105725672868818e-13
6.833656298470964e-14
-3.088912376501673e-12
-3.103186849039084e-12
-3.975503625028921e-12
-4.117610420717514e-12
-4.458557964328996e-12
-4.567940728602668e-12
-4.653565209455844e-12
-4.750880433623884e-12
-4.765891094058403e-12
-4.741964099115601e-12
-4.77475963929439e-12
-4.794731181355866e-12
-4.736264689103845e-12
-4.711578985509787e-12
-4.646561069724863e-12
-4.632019238054092e-12
-4.606655425299092e-12
-4.55903495161586e-12
-4.5447297931567e-12
-4.504792524298336e-12
-4.456961218254582e-12
-4.441523329135528e-12
-4.383205891165532e-12
-4.327879039289595e-12
-4.288557046657104e-12
-4.242008767593241e-12
-4.173439335477485e-12
-4.120175869215697e-12
-4.060330042971698e-12
-4.010757292917348e-12
-3.96955141257872e-12
-3.929145767043172e-12
-3.859038684013819e-12
-3.845257201838783e-12
-3.784713061282814e-12
-3.697027342808416e-12
-3.640322233820401e-12
-3.578109742865443e-12
-3.45991756922308e-12
-3.455968804298507e-12
-3.360755814356263e-12
-3.289595669121915e-12
-3.184209429179637e-12
-3.144690824379189e-12
-3.003918559894425e-12
-2.990732754173091e-12
-2.798333698469474e-12
-2.827497337761661e-12
-2.571593513722432e-12
-2.615849741116446e-12
-2.20785425964051e-12
-2.394796998964597e-12
-1.82884889832536e-12
-2.20113523063716e-12
-1.239780042832724e-12
-1.714788419289827e-12
-7.227619478775137e-13
4.979972299455025e-14
-3.084387754040077e-12
-3.090185977491006e-12
-3.969691155442422e-12
-4.110607735488506e-12
-4.453361969901185e-12
-4.564375463390714e-12
-4.650838023959916e-12
-4.747872724666335e-12
-4.764460039839517e-12
-4.740803860137463e-12
-4.772056885594535e-12
-4.792479287892367e-12
-4.73581417397406e-12
-4.71123459844028e-12
-4.646010916206346e-12
-4.631369894157906e-12
-4.606489793029352e-12
-4.558906615889179e-12
-4.54415379956902e-12
-4.504598818291178e-12
-4.456461050118519e-12
-4.4406269635171e-12
-4.382880670086548e-12
-4.327664268247922e-12
-4.287976072120439e-12
-4.241693803290767e-12
-4.172998956285916e-12
-4.119867138773886e-12
-4.060745670450036e-12
-4.009935443884283e-12
-3.968557610541985e-12
-3.929539375264547e-12
-3.858231958174295e-12
-3.844299455792421e-12
-3.784970803514042e-12
-3.697755684264773e-12
-3.641247489877979e-12
-3.578357894600193e-12
-3.459561117557358e-12
-3.45613705886519e-12
-3.360639669984167e-12
-3.289615707749383e-12
-3.184965413464769e-12
-3.145568606383445e-12
-3.005168429938393e-12
-2.99171953661831e-12
-2.799531195364615e-12
-2.829196509112421e-12
-2.573781926601737e-12
-2.617982639176824e-12
-2.210006687091031e-12
-2.397334610934344e-12
-1.831806453190986e-12
-2.203556842353724e-12
-1.24449434448439e-12
-1.719145455041996e-12
-7.339895196460593e-13
1.882061585953394e-14
-3.0864707249195e-12
-3.074374973269336e-12
-3.963323784790864e-12
-4.102059646832498e-12
-4.446824935183914e-12
-4.559712501192818e-12
-4.647473420907715e-12
-4.743882046129311e-12
-4.762610024135162e-12
-4.739540726451083e-12
-4.768507340287835e-12
-4.7893746702479e-12
-4.73528511546729e-12
-4.710639861468605e-12
-4.645447171158508e-12
-4.630704060355256e-12
-4.606158809797895e-12
-4.558863061087243e-12
-4.543485575620732e-12
-4.504273080327986e-12
-4.455800931606447e-12
-4.439389385935431e-12
-4.382565264491534e-12
-4.327390836588724e-12
-4.287090782303196e-12
-4.241403604136383e-12
-4.172485960179413e-12
-4.119290571053199e-12
-4.061326765391062e-12
-4.009190692930019e-12
-3.967265329593706e-12
-3.929868881071125e-12
-3.857574193401634e-12
-3.843221619222118e-12
-3.785141528521888e-12
-3.698539939594985e-12
-3.642230999254569e-12
-3.5786042217666e-12
-3.459343183623575e-12
-3.456164703105615e-12
-3.36009648364059e-12
-3.289496191780525e-12
-3.185874546524839e-12
-3.146358556092854e-12
-3.006433038353656e-12
-2.992591480085726e-12
-2.800907689415251e-12
-2.83075167042139e-12
-2.57578853019274e-12
-2.619860620694974e-12
-2.212528269807366e-12
-2.399703757780431e-12
-1.834806035440818e-12
-2.204576781871491e-12
-1.249368719248669e-12
-1.721878901717666e-12
-7.428861871685224e-13
-2.798931302164802e-14
-3.100371507278687e-12
-3.056162399021504e-12
-3.956754602866553e-12
-4.091765312096599e-12
-4.438587781215843e-12
-4.553715186728852e-12
-4.643307523904861e-12
-4.738595693689529e-12
-4.760221287884836e-12
-4.738178783408351e-12
-4.763849270217745e-12
-4.785088472273868e-12
-4.734603412159709e-12
-4.709753673840089e-12
-4.644848850886652e-12
-4.629966270380515e-12
-4.605634730355683e-12
-4.55894407397201e-12
-4.542700300145077e-12
-4.503829612740096e-12
-4.45493221338676e-12
-4.437666281034836e-12
-4.382288613300387e-12
-4.327044057629873e-12
-4.28575790228987e-12
-4.241168916232151e-12
-4.171862289604421e-12
-4.118330674859541e-12
-4.062176794977952e-12
-4.008548150351391e-12
-3.96556370592701e-12
-3.930188256006777e-12
-3.856993887758635e-12
-3.841775792720503e-12
-3.78517365575245e-12
-3.699433159592742e-12
-3.643190670629059e-12
-3.578863985006901e-12
-3.459395261086775e-12
-3.455981735259421e-12
-3.358984164211697e-12
-3.289196277402446e-12
-3.186903610292391e-12
-3.146971472704972e-12
-3.007679041451333e-12
-2.993346692358857e-12
-2.802367729305112e-12
-2.831927553424636e-12
-2.577295676167642e-12
-2.621247059696446e-12
-2.215301917542568e-12
-2.401793586884843e-12
-1.837443583208177e-12
-2.203524016806477e-12
-1.253797444235283e-12
-1.722114253797526e-12
-7.469576543880605e-13
-9.238593890055733e-14
-3.133169519659755e-12
-3.037250056080745e-12
-3.950734887491224e-12
-4.079855994268464e-12
-4.428476270469776e-12
-4.546232868731445e-12
-4.638230368485911e-12
-4.731768341568459e-12
-4.757163046275268e-12
-4.736699820632315e-12
-4.757882951288884e-12
-4.779287354412893e-12
-4.733614464827701e-12
-4.708546096404533e-12
-4.64421125357425e-12
-4.629105157383158e-12
-4.604891679079877e-12
-4.559141774725533e-12
-4.54175055525447e-12
-4.503330929699772e-12
-4.453863830077204e-12
-4.435334785143368e-12
-4.382050686858484e-12
-4.326594208040795e-12
-4.283830902934646e-12
-4.240996313339366e-12
-4.171067049376259e-12
-4.116873380946516e-12
-4.063369985792691e-12
-4.008020551252143e-12
-3.963334973973042e-12
-3.930529271435233e-12
-3.856468489607189e-12
-3.839762502183967e-12
-3.78501578248669e-12
-3.700501234043151e-12
-3.643933961685816e-12
-3.579110821555608e-12
-3.459860460161031e-12
-3.455396808003697e-12
-3.357169195182292e-12
-3.288725525519484e-12
-3.187988730913348e-12
-3.147382933857915e-12
-3.008949499253074e-12
-2.994062054861907e-12
-2.80367170213383e-12
-2.832395033017455e-12
-2.57783303817634e-12
-2.621833001629952e-12
-2.217980965907098e-12
-2.403386565650268e-12
-1.838945040530732e-12
-2.199720454497819e-12
-1.256739571048106e-12
-1.71905920435434e-12
-7.426310582936635e-13
-1.729501966013509e-13
-3.192278865891413e-12
-3.020801531556916e-12
-3.946435850881092e-12
-4.066954162535193e-12
-4.416714522295195e-12
-4.537344741673514e-12
-4.632249555471952e-12
-4.723338884056279e-12
-4.753348198688857e-12
-4.735124421415159e-12
-4.750619701884846e-12
-4.771752105390722e-12
-4.732072862154416e-12
-4.706926668241073e-12
-4.643459039439859e-12
-4.628081416454531e-12
-4.603917737921546e-12
-4.559402452058775e-12
-4.540596509159679e-12
-4.502860807878858e-12
-4.452657810329199e-12
-4.432359612883271e-12
-4.3818188056081e-12
-4.326017386187856e-12
-4.281211969770211e-12
-4.240856337223573e-12
-4.17003215708474e-12
-4.114875735392555e-12
-4.064922142093265e-12
-4.007653317390397e-12
-3.960597612552593e-12
-3.930839227486669e-12
-3.856061961449029e-12
-3.837086274460126e-12
-3.784392015315368e-12
-3.701687825510895e-12
-3.644127366561491e-12
-3.579295450684421e-12
-3.460916360798221e-12
-3.454189259643229e-12
-3.354777994203367e-12
-3.288318071269495e-12
-3.188960794237563e-12
-3.147557693772607e-12
-3.010278963356312e-12
-2.994755473506467e-12
-2.804415188566708e-12
-2.831810849259807e-12
-2.576866327900466e-12
-2.621258874322056e-12
-2.220009451612833e-12
-2.404200108725166e-12
-1.838418766623241e-12
-2.192699580165869e-12
-1.256747175958122e-12
-1.71242755896715e-12
-7.258382012292618e-13
-2.648225229280835e-13
-3.282412311291015e-12
-3.010727648162879e-12
-3.94563607747601e-12
-4.054184987751182e-12
-4.403996613679665e-12
-4.527388606423219e-12
-4.625521563457665e-12
-4.713494756223726e-12
-4.748741072143959e-12
-4.73341844576566e-12
-4.742285990632465e-12
-4.762491826465308e-12
-4.729674274942788e-12
-4.704760811329906e-12
-4.642495297257073e-12
-4.626904229776157e-12
-4.602730771813439e-12
-4.559577079619181e-12
-4.539158381123341e-12
-4.502550379561701e-12
-4.451478753299564e-12
-4.428815755362812e-12
-4.381533970116429e-12
-4.325275095811553e-12
-4.27788900009157e-12
-4.240668980216919e-12
-4.16869417837994e-12
-4.112398954620965e-12
-4.066700276433364e-12
-4.007497430796317e-12
-3.95755816354384e-12
-3.930889283802559e-12
-3.855969486675081e-12
-3.834027238866414e-12
-3.782907343298726e-12
-3.702729142797465e-12
-3.643460570747256e-12
-3.579360219950401e-12
-3.462591999540977e-12
-3.4522265814789e-12
-3.352253494227869e-12
-3.288212795901454e-12
-3.189449827789481e-12
-3.147520855738586e-12
-3.011507610005206e-12
-2.995231745470352e-12
-2.804224713462679e-12
-2.829980022880675e-12
-2.574143399748381e-12
-2.619342504442515e-12
-2.220758221503597e-12
-2.403916845395853e-12
-1.835142559324058e-12
-2.182427554112102e-12
-1.252337043531724e-12
-1.702696022672825e-12
-6.934156862926343e-13
-3.609152135508107e-13
-3.403463734163957e-12
-3.010524944974308e-12
-3.950436780555208e-12
-4.04298580237216e-12
-4.391468596632688e-12
-4.516974796975836e-12
-4.61833758127388e-12
-4.702627019255522e-12
-4.743358761523543e-12
-4.731508121104711e-12
-4.733321583776027e-12
-4.751807000847388e-12
-4.726171854486288e-12
-4.701854646379452e-12
-4.64118076500942e-12
-4.625609732802241e-12
-4.601390588678697e-12
-4.559475227749197e-12
-4.537324760468662e-12
-4.502544680774836e-12
-4.450559766452047e-12
-4.424884597447601e-12
-4.381138826009085e-12
-4.324325164847905e-12
-4.273938941640228e-12
-4.240300824934182e-12
-4.167033984969116e-12
-4.109657343970098e-12
-4.068362845282129e-12
-4.007602871661967e-12
-3.954659588135506e-12
-3.930301101063193e-12
-3.856357237067062e-12
-3.831105416795983e-12
-3.780240772641589e-12
-3.703267344400725e-12
-3.64189395884682e-12
-3.579395932612687e-12
-3.464662261075647e-12
-3.449544885274565e-12
-3.350073162081009e-12
-3.288318702312166e-12
-3.188997928765444e-12
-3.147316284677507e-12
-3.012344773813228e-12
-2.995105651492144e-12
-2.802808121059767e-12
-2.826895876591437e-12
-2.569871666152486e-12
-2.616238548566951e-12
-2.219691000375685e-12
-2.402276792996827e-12
-1.82873765451095e-12
-2.169299233575219e-12
-1.242531993653784e-12
-1.690952953487387e-12
-6.442495996871255e-13
-4.538985841796134e-13
-3.551005029286375e-12
-3.022169847926201e-12
-3.962485530886666e-12
-4.034947342168514e-12
-4.380476285354594e-12
-4.506807511820519e-12
-4.611054548718967e-12
-4.691222733782708e-12
-4.737181250480061e-12
-4.72919325714487e-12
-4.724240611826208e-12
-4.740284783493799e-12
-4.721559305464091e-12
-4.69803058904558e-12
-4.639303162943982e-12
-4.624307478970311e-12
-4.600039950298776e-12
-4.559048652479492e-12
-4.535102741504937e-12
-4.502843764608888e-12
-4.449975916303437e-12
-4.420772854758904e-12
-4.380583502346276e-12
-4.323132631528993e-12
-4.269493705918121e-12
-4.239556640051286e-12
-4.165092316254725e-12
-4.107049005205629e-12
-4.069393362604613e-12
-4.007826091507533e-12
-3.952327164310789e-12
-3.928828429858544e-12
-3.857258267924916e-12
-3.828645332221437e-12
-3.776487296817067e-12
-3.703346437478197e-12
-3.639764822530938e-12
-3.579576254867925e-12
-3.466727478646804e-12
-3.446178660411192e-12
-3.348095583947822e-12
-3.288339133194005e-12
-3.187558533117312e-12
-3.146824656386654e-12
-3.012581583525429e-12
-2.994210345054795e-12
-2.800106905702183e-12
-2.822831506700403e-12
-2.564335130524516e-12
-2.61218673970271e-12
-2.216615735760666e-12
-2.399094787618091e-12
-1.819164812444883e-12
-2.153913785280785e-12
-1.227039855415796e-12
-1.678610820438172e-12
-5.794947669756752e-13
-5.387817022633549e-13
-3.718207140723273e-12
-3.044976456383952e-12
-3.982582124990745e-12
-4.031506428798026e-12
-4.371962855042927e-12
-4.497480438677522e-12
-4.603961643432275e-12
-4.679725375218849e-12
-4.730062847839473e-12
-4.726110044419755e-12
-4.715576235093842e-12
-4.728747048354657e-12
-4.716101192432112e-12
-4.69335688587252e-12
-4.636810721709363e-12
-4.623002745988616e-12
-4.598726455585935e-12
-4.558392011354795e-12
-4.532634247566783e-12
-4.503262397655317e-12
-4.449592377513315e-12
-4.416633331129363e-12
-4.379848377300341e-12
-4.321676735185621e-12
-4.264717256409079e-12
-4.238098316753461e-12
-4.163033421045362e-12
-4.105296522571764e-12
-4.069785443980933e-12
-4.007914528636132e-12
-3.950528383976333e-12
-3.926542325425077e-12
-3.858225921219328e-12
-3.826439103276808e-12
-3.772140296223632e-12
-3.703314364323713e-12
-3.63750722032001e-12
-3.579934468757515e-12
-3.468453318985582e-12
-3.442260034884829e-12
-3.345899034833429e-12
-3.287931362141603e-12
-3.18524753641038e-12
-3.145864155759033e-12
-3.012141362737487e-12
-2.992687680779909e-12
-2.796286394812965e-12
-2.81809170176469e-12
-2.55777244630176e-12
-2.607506811444697e-12
-2.211784310409491e-12
-2.394202128154225e-12
-1.806517792802142e-12
-2.136830908803667e-12
-1.206237273510494e-12
-1.667146585407018e-12
-5.021378646178408e-13
-6.135557250206696e-13
-3.898473209272051e-12
-3.07690829814164e-12
-4.010109610452971e-12
-4.032946737981193e-12
-4.366084335422294e-12
-4.489304588257539e-12
-4.597223689862112e-12
-4.668452394661569e-12
-4.721871649352269e-12
-4.721919979583402e-12
-4.707672096698347e-12
-4.717911794337234e-12
-4.710185289674906e-12
-4.688220970045242e-12
-4.6339623490269e-12
-4.621594599962105e-12
-4.597323178195372e-12
-4.557584642988373e-12
-4.530051194095871e-12
-4.503562075023139e-12
-4.449175179694602e-12
-4.412535720569508e-12
-4.378907698729063e-12
-4.319977560419556e-12
-4.259800468199663e-12
-4.235447220442792e-12
-4.161161281544087e-12
-4.105328970860837e-12
-4.070097880382244e-12
-4.008000315836635e-12
-3.948722053285516e-12
-3.92335029369094e-12
-3.858650708807435e-12
-3.824145745095547e-12
-3.767548582161635e-12
-3.703182582640546e-12
-3.635306805566403e-12
-3.580439627705039e-12
-3.469752907724749e-12
-3.437990285841916e-12
-3.343304345027561e-12
-3.28678824955552e-12
-3.18197260883943e-12
-3.144456088113393e-12
-3.011174317677958e-12
-2.990877403945294e-12
-2.791414247728273e-12
-2.812643948912801e-12
-2.55052414653562e-12
-2.602594483768289e-12
-2.205637615008364e-12
-2.387687681835006e-12
-1.791149473073049e-12
-2.118748813020405e-12
-1.181142552403468e-12
-1.657565927400274e-12
-4.160096481940734e-13
-6.777664464933792e-13
-4.08621245373996e-12
-3.116347997309583e-12
-4.043485229108014e-12
-4.038589675405436e-12
-4.362666233140443e-12
-4.482288780192063e-12
-4.590803422463767e-12
-4.657555288997284e-12
-4.712766259593909e-12
-4.71660439131382e-12
-4.700495786806019e-12
-4.708054543621188e-12
-4.704131245419663e-12
-4.682931612756461e-12
-4.630956710466693e-12
-4.620016464116453e-12
-4.595782957326064e-12
-4.556686465174344e-12
-4.527413340733226e-12
-4.503639815625642e-12
-4.448571544385621e-12
-4.408506837479335e-12
-4.377684667051902e-12
-4.31813367791224e-12
-4.254989489237716e-12
-4.232205960091282e-12
-4.159943513628539e-12
-4.105867475900472e-12
-4.069497899328275e-12
-4.008768194127595e-12
-3.947318885348078e-12
-3.919545687374014e-12
-3.858428445159622e-12
-3.821730747257857e-12
-3.76266654815223e-12
-3.7026641623074e-12
-3.633244606755658e-12
-3.581028892082951e-12
-3.470712602071962e-12
-3.433678225656702e-12
-3.340303647166303e-12
-3.284960184444748e-12
-3.177857540712155e-12
-3.142519246371713e-12
-3.009590213953135e-12
-2.9890707271979e-12
-2.785793706916367e-12
-2.806466392077705e-12
-2.542628895182211e-12
-2.597270771548657e-12
-2.198370949281677e-12
-2.380037172434343e-12
-1.773903374767032e-12
-2.100675302032557e-12