/*--------------------------------*- C++ -*----------------------------------*\
| =========                 |                                                 |
| \\      /  F ield         | OpenFOAM: The Open Source CFD Toolbox           |
|  \\    /   O peration     | Version:  v1812                                 |
|   \\  /    A nd           | Web:      www.OpenFOAM.com                      |
|    \\/     M anipulation  |                                                 |
\*---------------------------------------------------------------------------*/
FoamFile
{
    version     2.0;
    format      ascii;
    class       surfaceScalarField;
    location    "20000";
    object      phi;
}
// * * * * * * * * * * * * * * * * * * * * * * * * * * * * * * * * * * * * * //

dimensions      [0 3 -1 0 0 0 0];
oriented        oriented;


internalField   nonuniform List<scalar> 
7417
(
-0.000677465725763578
9.083100398723853e-16
-0.000677465725766539
2.961114872377086e-15
-0.0006774657257660566
-4.832576501541315e-16
-0.0006774657257672564
1.199324297182814e-15
-0.0006774657257671757
-8.115718918242011e-17
-0.0006774657257677481
5.723243351708984e-16
-0.0006774657257679836
2.350969213900112e-16
-0.000677465725768057
7.334390170621357e-17
-0.0006774657257681835
1.268723062726639e-16
-0.0006774657257683262
1.566000850963737e-16
-0.0006774657257682265
-1.142859110767348e-16
-0.0006774657257682879
6.057642518599912e-17
-0.0006774657257684059
1.178401922059547e-16
-0.0006774657257684977
9.232541501592787e-17
-0.0006774657257686598
1.622953773316626e-16
-0.000677465725768645
-1.435625468559987e-17
-0.0006774657257687742
1.29347772188024e-16
-0.0006774657257689442
1.69800601750546e-16
-0.000677465725768857
-8.792936224349023e-17
-0.0006774657257689366
7.37719607245998e-17
-0.0006774657257690582
1.265947818915144e-16
-0.0006774657257689456
-1.125414573348106e-16
-0.0006774657257689959
5.017433072046544e-17
-0.0006774657257690706
7.439600071016196e-17
-0.0006774657257689341
-1.36682316952507e-16
-0.0006774657257689683
3.395066226406073e-17
-0.0006774657257690677
9.954786821055183e-17
-0.0006774657257689229
-1.451438310687205e-16
-0.0006774657257689151
-8.022326470181749e-18
-0.0006774657257689904
7.534181121233669e-17
-0.0006774657257689263
-6.447794443872033e-17
-0.0006774657257689154
-1.947525463397972e-17
-0.0006774657257689756
6.783976301476389e-17
-0.00067746572576894
-3.512204712640771e-17
-0.0006774657257690114
7.178753131355021e-17
-0.0006774657257691065
9.921155507190707e-17
-0.000677465725769039
-7.155798004633965e-17
-0.0006774657257690603
2.053199221582501e-17
-0.0006774657257690954
3.470095775528443e-17
-0.0006774657257689247
-1.708729172401048e-16
-0.0006774657257689873
6.204102245097185e-17
-0.0006774657257690041
8.418392480919479e-18
-0.0006774657257688966
-1.008423270169932e-16
-0.0006774657257687544
-1.417524623652663e-16
-0.0006774657257686423
-1.119734128544577e-16
-0.0006774657257684761
-1.66031973614457e-16
-0.0006774657257684666
-9.029648415723998e-18
-0.0006774657257681063
-3.666627984928981e-16
-0.0006774657257680573
-4.080141804481386e-17
-0.0006774657257677881
-2.68067193345241e-16
-0.0006774657257676126
-1.751328331884485e-16
-0.0006774657257669142
-6.980370359931436e-16
-0.0006774657257667231
-1.913969863237349e-16
-0.0006774657257657879
-9.358988740505056e-16
-0.0006774657257657078
-8.054937187335657e-17
-0.0006774657257640109
-1.697114716708921e-15
-0.0006774657257636704
-3.403632162958129e-16
-8.975946342333515e-16
-0.0004325227993409976
3.389393692216674e-15
-0.0004325227993451744
7.138327295379279e-15
-0.0004325227993452892
-3.690299228418471e-16
-0.0004325227993469855
2.895233805303092e-15
-0.0004325227993472152
1.482396141740354e-16
-0.0004325227993480048
1.361749886962524e-15
-0.0004325227993484349
6.64945249218197e-16
-0.0004325227993486876
3.25959853299002e-16
-0.0004325227993488737
3.131817628160905e-16
-0.0004325227993490694
3.613180536052417e-16
-0.0004325227993490062
-1.874807590728291e-16
-0.0004325227993491009
1.544544210235671e-16
-0.0004325227993492633
2.803578893111859e-16
-0.0004325227993494091
2.385412867196751e-16
-0.0004325227993496101
3.635350761310232e-16
-0.0004325227993496783
5.438589053955889e-17
-0.0004325227993498516
3.027494610720632e-16
-0.0004325227993500884
4.064691912585658e-16
-0.0004325227993500572
-1.198406920222031e-16
-0.000432522799350137
1.496137467228662e-16
-0.0004325227993503061
2.99044433661842e-16
-0.0004325227993502307
-1.880003136136219e-16
-0.0004325227993502606
7.98913537286948e-17
-0.0004325227993503583
1.717750728664617e-16
-0.0004325227993502287
-2.665385293027483e-16
-0.0004325227993502391
4.411715065113571e-17
-0.0004325227993503598
2.201635055582158e-16
-0.0004325227993502239
-2.812403576332397e-16
-0.0004325227993501756
-5.64323714056993e-17
-0.0004325227993502586
1.580544254649655e-16
-0.0004325227993501766
-1.468181701666653e-16
-0.0004325227993501313
-7.048873808360536e-17
-0.0004325227993502282
1.694989096037661e-16
-0.0004325227993502449
-1.802131112769247e-17
-0.0004325227993502965
1.239809310525638e-16
-0.0004325227993503767
1.819369191602131e-16
-0.0004325227993503662
-8.48929676551362e-17
-0.0004325227993503994
5.302251034160086e-17
-0.0004325227993503839
1.892918055031405e-17
-0.0004325227993502257
-3.295468066781357e-16
-0.0004325227993502286
6.44482760635128e-17
-0.0004325227993502108
-1.502928383496084e-17
-0.0004325227993500486
-2.58854093606525e-16
-0.0004325227993498654
-3.245590454665355e-16
-0.0004325227993496853
-2.918815602158525e-16
-0.0004325227993494605
-3.90774455054403e-16
-0.0004325227993492978
-1.715634048675079e-16
-0.0004325227993488874
-7.807585763372293e-16
-0.0004325227993485978
-3.247008046623075e-16
-0.0004325227993482292
-6.353911153782328e-16
-0.0004325227993477308
-6.729668789335412e-16
-0.0004325227993469452
-1.483389102678151e-15
-0.0004325227993462892
-8.476986581000792e-16
-0.0004325227993452219
-2.003878530882775e-15
-0.0004325227993443576
-9.452704712672173e-16
-0.0004325227993424242
-3.630913629679501e-15
-0.0004325227993411602
-1.604318716875626e-15
-3.538861584566909e-15
-0.0002933251500845063
6.482345579015993e-15
-0.0002933251500893885
1.202035917779322e-14
-0.0002933251500898954
1.375398053645549e-16
-0.0002933251500916648
4.664433740610587e-15
-0.0002933251500922233
7.065898792037347e-16
-0.0002933251500931189
2.25722518065011e-15
-0.0002933251500934269
9.72816302312481e-16
-0.0002933251500938055
7.045676983989455e-16
-0.0002933251500941023
6.101845206372867e-16
-0.0002933251500941994
4.634899052236214e-16
-0.0002933251500942668
-1.252246603533016e-16
-0.0002933251500944995
3.86871926728817e-16
-0.0002933251500946775
4.582008862503615e-16
-0.0002933251500948035
3.647127177887231e-16
-0.0002933251500948567
4.168083878190044e-16
-0.000293325150095011
2.087625936917186e-16
-0.0002933251500952296
5.214425330374399e-16
-0.0002933251500952858
4.625388898273804e-16
-0.0002933251500953398
-6.610422074193774e-17
-0.0002933251500954894
2.971357175545665e-16
-0.0002933251500954986
3.101522259168132e-16
-0.0002933251500955144
-1.722737921262434e-16
-0.0002933251500956304
1.958446349212337e-16
-0.0002933251500955925
1.339244190397474e-16
-0.0002933251500955566
-3.025581519173408e-16
-0.0002933251500956544
1.419242626896106e-16
-0.0002933251500956319
1.977216317001704e-16
-0.0002933251500955741
-3.391845667480694e-16
-0.0002933251500956031
-2.752260627473762e-17
-0.0002933251500955751
1.300769479536459e-16
-0.0002933251500955528
-1.692442344281368e-16
-0.0002933251500955697
-5.660884274622583e-17
-0.0002933251500955951
1.978086631704986e-16
-0.0002933251500957069
9.384454609246017e-17
-0.0002933251500957798
1.968862641492093e-16
-0.0002933251500957054
1.091568404294563e-16
-0.0002933251500957475
-4.414716338250809e-17
-0.0002933251500958026
1.078690249526192e-16
-0.0002933251500956448
-1.390178024971359e-16
-0.0002933251500955947
-3.796528069596805e-16
-0.0002933251500956309
1.005593954183301e-16
-0.0002933251500954393
-2.097136679650156e-16
-0.0002933251500952165
-4.790624719008304e-16
-0.0002933251500950683
-4.726867630934491e-16
-0.00029332515009494
-4.200262789655492e-16
-0.0002933251500947365
-5.941740682187875e-16
-0.0002933251500943968
-5.112181015586943e-16
-0.0002933251500940732
-1.106672436628281e-15
-0.0002933251500937433
-6.517369177067056e-16
-0.0002933251500931827
-1.195721094451076e-15
-0.0002933251500924982
-1.35744055150324e-15
-0.0002933251500917972
-2.184295265109303e-15
-0.0002933251500910627
-1.582234171731307e-15
-0.000293325150090057
-3.009735364327669e-15
-0.0002933251500887018
-2.300553163637782e-15
-0.0002933251500868054
-5.527366565300066e-15
-0.000293325150085166
-3.243668500604669e-15
-7.293549128403299e-15
-0.0002254850404406834
9.434093869564648e-15
-0.0002254850404458304
1.716759116132775e-14
-0.0002254850404467049
1.011732042134003e-15
-0.0002254850404484782
6.437540626836434e-15
-0.0002254850404492396
1.467861129421917e-15
-0.0002254850404501651
3.182567802845719e-15
-0.0002254850404504769
1.284506116477752e-15
-0.0002254850404509208
1.148406899117913e-15
-0.0002254850404512664
9.558277360979918e-16
-0.0002254850404513594
5.598985669531507e-16
-0.0002254850404514972
8.559725790212579e-18
-0.0002254850404517655
6.547306421811885e-16
-0.0002254850404519397
6.324644849361455e-16
-0.0002254850404520568
4.820345561374567e-16
-0.0002254850404520609
4.211681309121744e-16
-0.0002254850404522476
3.95785910964483e-16
-0.0002254850404524738
7.47668498667252e-16
-0.0002254850404524792
4.678577731986264e-16
-0.0002254850404525723
2.6633412800531e-17
-0.0002254850404527357
4.588849119443115e-16
-0.0002254850404527044
2.801070908212719e-16
-0.0002254850404527607
-1.159859953179746e-16
-0.0002254850404528942
3.292827995011542e-16
-0.0002254850404528266
6.604949685320607e-17
-0.000225485040452831
-2.982943541687871e-16
-0.0002254850404529427
2.534533556122308e-16
-0.0002254850404528835
1.385320958091146e-16
-0.0002254850404528621
-3.607448863496628e-16
-0.0002254850404529045
1.487460978619978e-17
-0.0002254850404528496
7.497624468163166e-17
-0.0002254850404528609
-1.581441067711142e-16
-0.0002254850404528986
-2.111880508168245e-17
-0.0002254850404528966
1.976468879424301e-16
-0.0002254850404530239
2.213898047534684e-16
-0.0002254850404530882
2.615385422626797e-16
-0.0002254850404529706
-7.460347983378243e-18
-0.0002254850404530324
1.636074693605021e-17
-0.0002254850404530898
1.650010341095926e-16
-0.0002254850404528938
-3.351767578460873e-16
-0.0002254850404528847
-3.890196691541142e-16
-0.0002254850404529195
1.350548838364889e-16
-0.0002254850404526785
-4.529445457898662e-16
-0.0002254850404524413
-7.148443512860051e-16
-0.0002254850404523051
-6.085829014645256e-16
-0.0002254850404521903
-5.347202483906058e-16
-0.0002254850404519963
-7.881682166714542e-16
-0.0002254850404516007
-9.0672834506413e-16
-0.0002254850404513211
-1.387558460979091e-15
-0.0002254850404509588
-1.011676907391693e-15
-0.0002254850404503548
-1.798846775004338e-15
-0.0002254850404496183
-2.093632052556529e-15
-0.0002254850404489767
-2.82571613891916e-15
-0.0002254850404481912
-2.367944978575537e-15
-0.0002254850404472366
-3.964742886234268e-15
-0.0002254850404457048
-3.832706497268877e-15
-0.0002254850404439065
-7.325858477611286e-15
-0.0002254850404421232
-5.027071005314364e-15
-1.168361678849228e-14
-0.0001802308354358035
1.194261280341927e-14
-0.0001802308354410508
2.241474434150164e-14
-0.0001802308354422451
2.205879636913845e-15
-0.0001802308354440342
8.226452358088424e-15
-0.000180230835444946
2.379517397237712e-15
-0.0001802308354458919
4.128405955212108e-15
-0.0001802308354462522
1.64474746483051e-15
-0.0001802308354467429
1.639167973811136e-15
-0.0001802308354471196
1.332584258513228e-15
-0.0001802308354472416
6.839776380376126e-16
-0.0001802308354474242
1.892632392134539e-16
-0.0001802308354476944
9.248473492745238e-16
-0.000180230835447864
8.01936757378982e-16
-0.0001802308354479801
5.981066702989883e-16
-0.0001802308354479711
4.121370524385403e-16
-0.0001802308354481723
5.971009349390535e-16
-0.0001802308354483973
9.725995991410229e-16
-0.0001802308354483986
4.691213939739381e-16
-0.000180230835448514
1.419219566333775e-16
-0.0001802308354486756
6.196984855606851e-16
-0.0001802308354486451
2.503826989294875e-16
-0.0001802308354487221
-3.906015133431593e-17
-0.0001802308354488511
4.583214875799518e-16
-0.0001802308354487896
4.563047075120728e-18
-0.0001802308354488147
-2.732572066024986e-16
-0.0001802308354489161
3.549517139201674e-16
-0.0001802308354488564
7.892121750594452e-17
-0.0001802308354488538
-3.634155516519668e-16
-0.0001802308354488882
4.927057928408412e-17
-0.0001802308354488344
2.11128042646809e-17
-0.0001802308354488656
-1.269265951220484e-16
-0.0001802308354489071
1.925837611215712e-17
-0.000180230835448898
1.896889302292656e-16
-0.0001802308354490179
3.412973851638554e-16
-0.0001802308354490664
3.100113821908621e-16
-0.000180230835448945
-1.282030636947313e-16
-0.000180230835449014
8.489221489265884e-17
-0.0001802308354490662
2.170154773955345e-16
-0.000180230835448868
-5.333210585335682e-16
-0.0001802308354488728
-3.841845840231052e-16
-0.0001802308354488974
1.596473717054478e-16
-0.000180230835448648
-7.035762322722924e-16
-0.0001802308354484143
-9.474395134746011e-16
-0.0001802308354482821
-7.407656479045309e-16
-0.0001802308354481652
-6.516356325154915e-16
-0.0001802308354479698
-9.835174346670316e-16
-0.0001802308354475614
-1.314965518407878e-15
-0.0001802308354473029
-1.647149027674745e-15
-0.0001802308354469165
-1.396974195428304e-15
-0.0001802308354463102
-2.405202563661207e-15
-0.0001802308354455722
-2.831663194644395e-15
-0.000180230835444963
-3.434889041291859e-15
-0.0001802308354441469
-3.183997454942194e-15
-0.0001802308354432073
-4.904399463622031e-15
-0.0001802308354416213
-5.418733574205702e-15
-0.000180230835439884
-9.063088609984668e-15
-0.0001802308354380652
-6.845830241798975e-15
-1.64555535658361e-14
-0.0001460970988685434
1.390483927951413e-14
-0.0001460970988737775
2.764909158413518e-14
-0.0001460970988752654
3.693468386517969e-15
-0.0001460970988770763
1.003714785946661e-14
-0.0001460970988781167
3.419816569162408e-15
-0.0001460970988790862
5.097787255390866e-15
-0.0001460970988795095
2.067948535417924e-15
-0.0001460970988800382
2.167915766610522e-15
-0.0001460970988804417
1.736127593189639e-15
-0.0001460970988806024
8.464045487970521e-16
-0.0001460970988808199
4.045421416625706e-16
-0.0001460970988810824
1.187063598960088e-15
-0.0001460970988812503
9.697433081065073e-16
-0.00014609709888137
7.180408372036827e-16
-0.0001460970988813602
4.025448671411818e-16
-0.0001460970988815682
8.054474459342453e-16
-0.0001460970988817915
1.195968148065554e-15
-0.0001460970988818037
4.811716417374705e-16
-0.0001460970988819336
2.715185229251162e-16
-0.0001460970988820921
7.772298472020043e-16
-0.000146097098882076
2.349474131027834e-16
-0.000146097098882163
4.790209007906544e-17
-0.0001460970988822817
5.769450724612377e-16
-0.0001460970988822378
-3.954592392174983e-17
-0.0001460970988822732
-2.379831927943295e-16
-0.0001460970988823584
4.399763853224382e-16
-0.0001460970988823109
3.138936929343714e-17
-0.0001460970988823188
-3.556106073705214e-16
-0.0001460970988823395
6.9940390707434e-17
-0.0001460970988822959
-2.256045689993937e-17
-0.0001460970988823386
-8.436663462586135e-17
-0.0001460970988823772
5.652506367777453e-17
-0.0001460970988823694
1.828524209892275e-16
-0.0001460970988824779
4.500877139509944e-16
-0.0001460970988825139
3.462515742733784e-16
-0.0001460970988824054
-2.362225946713094e-16
-0.000146097098882473
1.518291954269725e-16
-0.0001460970988825158
2.595966189251369e-16
-0.0001460970988823271
-7.222543979586188e-16
-0.0001460970988823341
-3.773411331350909e-16
-0.0001460970988823481
1.733683249834981e-16
-0.0001460970988821048
-9.481526123436824e-16
-0.0001460970988818816
-1.169966166736532e-15
-0.0001460970988817548
-8.673406246506664e-16
-0.0001460970988816284
-7.778981594920767e-16
-0.0001460970988814252
-1.186638995553125e-15
-0.0001460970988810184
-1.721655445907919e-15
-0.000146097098880772
-1.894030054139901e-15
-0.0001460970988803694
-1.798220146315861e-15
-0.0001460970988797762
-2.997664480156588e-15
-0.000146097098879048
-3.559559892732937e-15
-0.0001460970988784573
-4.025392416860424e-15
-0.0001460970988776253
-4.016286417963994e-15
-0.0001460970988766922
-5.83780025924316e-15
-0.0001460970988750932
-7.018028048349352e-15
-0.0001460970988733953
-1.076124994344464e-14
-0.0001460970988715906
-8.650577916073584e-15
-2.146397105301978e-14
-0.000118813112944282
1.527726878390452e-14
-0.0001188131129494476
3.281447744555531e-14
-0.0001188131129512185
5.464317244317262e-15
-0.0001188131129530669
1.188533238590753e-14
-0.0001188131129542312
4.584109370332695e-15
-0.0001188131129552356
6.102156775142582e-15
-0.0001188131129557309
2.563164024197768e-15
-0.0001188131129562964
2.733478608387321e-15
-0.000118813112956728
2.167758838033346e-15
-0.0001188131129569329
1.052363681113085e-15
-0.0001188131129571805
6.513269275587078e-16
-0.0001188131129574365
1.443111201456285e-15
-0.000118813112957606
1.139147281527873e-15
-0.0001188131129577342
8.46218897966916e-16
-0.0001188131129577297
3.979515511843772e-16
-0.000118813112957941
1.016718742118593e-15
-0.0001188131129581653
1.420254128005158e-15
-0.0001188131129581945
5.103605222210406e-16
-0.000118813112958336
4.130080457391221e-16
-0.0001188131129584921
9.329788818331189e-16
-0.0001188131129584955
2.385890424833608e-16
-0.0001188131129585875
1.399164334188084e-16
-0.0001188131129586942
6.836935229032908e-16
-0.0001188131129586713
-6.246353234582988e-17
-0.0001188131129587142
-1.950325090358504e-16
-0.0001188131129587818
5.076196184903112e-16
-0.0001188131129587504
5.342759999534554e-20
-0.0001188131129587647
-3.413481211285035e-16
-0.0001188131129587714
7.662041398524394e-17
-0.0001188131129587411
-5.283792658461408e-17
-0.0001188131129587917
-3.374913055021713e-17
-0.0001188131129588248
8.903049401918129e-17
-0.0001188131129588212
1.799356491958803e-16
-0.0001188131129589184
5.472087101821245e-16
-0.000118813112958945
3.728008032007589e-16
-0.0001188131129588541
-3.267469530556206e-16
-0.000118813112958917
2.146362044237825e-16
-0.0001188131129589506
2.93075460472435e-16
-0.0001188131129587761
-8.967769027230026e-16
-0.0001188131129587789
-3.74496370811973e-16
-0.0001188131129587814
1.759490280202345e-16
-0.0001188131129585483
-1.181842652252797e-15
-0.000118813112958336
-1.381701475087681e-15
-0.000118813112958212
-9.913469444430886e-16
-0.0001188131129580718
-9.180558553572504e-16
-0.0001188131129578606
-1.397819843889499e-15
-0.0001188131129574608
-2.121385154151373e-15
-0.000118813112957221
-2.134368371362638e-15
-0.0001188131129568051
-2.213727911417529e-15
-0.0001188131129562267
-3.576116351109591e-15
-0.0001188131129555051
-4.281284899951448e-15
-0.0001188131129549217
-4.608724942972158e-15
-0.0001188131129540777
-4.860316427542424e-15
-0.0001188131129531455
-6.769928150976719e-15
-0.0001188131129515441
-8.619387464148989e-15
-0.0001188131129498628
-1.244245061828258e-14
-0.0001188131129480903
-1.042308035705449e-14
-2.664635936520639e-14
-9.617328547610315e-05
1.603473812973902e-14
-9.617328548120435e-05
3.791582549810337e-14
-9.617328548327353e-05
7.533193262944349e-15
-9.617328548519396e-05
1.380557925508507e-14
-9.617328548649632e-05
5.886326793692824e-15
-9.617328548755795e-05
7.163629192325981e-15
-9.617328548813906e-05
3.14415655805008e-15
-9.617328548874926e-05
3.343697865383674e-15
-9.617328548921684e-05
2.635428350090209e-15
-9.6173285489472e-05
1.30856740453352e-15
-9.617328548975163e-05
9.295526451370171e-16
-9.617328549000746e-05
1.69864769904101e-15
-9.617328549018493e-05
1.316547798427597e-15
-9.617328549032703e-05
9.8849751625992e-16
-9.617328549033199e-05
4.031416831214281e-16
-9.617328549054748e-05
1.232474080754348e-15
-9.61732854907763e-05
1.649132738805633e-15
-9.617328549082579e-05
5.598105760796814e-16
-9.617328549097934e-05
5.662212021507352e-16
-9.617328549113779e-05
1.090774384123311e-15
-9.617328549116211e-05
2.632436800619263e-16
-9.617328549125805e-05
2.358040004530578e-16
-9.617328549135437e-05
7.799185798343244e-16
-9.617328549135362e-05
-6.334293869538082e-17
-9.617328549140286e-05
-1.459123989185024e-16
-9.617328549145509e-05
5.597349634082919e-16
-9.617328549143968e-05
-1.544113448072797e-17
-9.617328549145927e-05
-3.218456796724839e-16
-9.617328549145322e-05
7.054030655509765e-17
-9.617328549143616e-05
-6.997202845214313e-17
-9.617328549149247e-05
2.240423062799716e-17
-9.61732854915196e-05
1.153337882748568e-16
-9.617328549152148e-05
1.823585280311417e-16
-9.617328549160871e-05
6.346568683728623e-16
-9.617328549162679e-05
3.910585533078925e-16
-9.617328549155191e-05
-4.013048720907068e-16
-9.617328549160993e-05
2.721948956458464e-16
-9.617328549163823e-05
3.21232537700881e-16
-9.617328549147722e-05
-1.057895308414175e-15
-9.617328549147116e-05
-3.806933167162585e-16
-9.617328549146302e-05
1.675064322341526e-16
-9.617328549123898e-05
-1.40675783048539e-15
-9.617328549103185e-05
-1.588505992388687e-15
-9.617328549090574e-05
-1.117288864733944e-15
-9.617328549074975e-05
-1.073895319284674e-15
-9.617328549053108e-05
-1.616429986489595e-15
-9.617328549013751e-05
-2.514806026663052e-15
-9.617328548989816e-05
-2.373837588157144e-15
-9.617328548946702e-05
-2.643803248180779e-15
-9.617328548889449e-05
-4.147988857003838e-15
-9.617328548816938e-05
-5.005999579787226e-15
-9.617328548758103e-05
-5.196986805509209e-15
-9.617328548671615e-05
-5.725410671833594e-15
-9.617328548577036e-05
-7.716100327710526e-15
-9.617328548415662e-05
-1.023345827599974e-14
-9.617328548245764e-05
-1.414165159817942e-14
-9.617328548071203e-05
-1.216867804996008e-14
-3.201191976708438e-14
-7.624308906531123e-05
1.610817853310131e-14
-7.624308907040332e-05
4.300774786577807e-14
-7.624308907282734e-05
9.957073509072957e-15
-7.624308907488086e-05
1.585894433438904e-14
-7.624308907636206e-05
7.36746949891263e-15
-7.624308907752043e-05
8.321967763526183e-15
-7.624308907821363e-05
3.837306299215355e-15
-7.62430890788892e-05
4.019283667615515e-15
-7.624308907941031e-05
3.156575249657867e-15
-7.624308907972748e-05
1.626320889283583e-15
-7.624308908004768e-05
1.249451824691223e-15
-7.624308908031364e-05
1.964594866922015e-15
-7.624308908050805e-05
1.51088249190479e-15
-7.624308908067224e-05
1.152635931860502e-15
-7.62430890806912e-05
4.2205013423488e-16
-7.624308908091475e-05
1.455985700871369e-15
-7.624308908115465e-05
1.889003961676435e-15
-7.624308908122847e-05
6.336364647605871e-16
-7.624308908139791e-05
7.355991084490716e-16
-7.624308908156458e-05
1.257270575865762e-15
-7.624308908161225e-05
3.110789333332942e-16
-7.624308908171482e-05
3.383411221021367e-16
-7.624308908180525e-05
8.703770597393914e-16
-7.624308908182569e-05
-4.289209212166201e-17
-7.624308908188193e-05
-8.967010165772047e-17
-7.624308908192163e-05
5.994831080434168e-16
-7.624308908192167e-05
-1.533747785734624e-17
-7.624308908194546e-05
-2.980948647104517e-16
-7.624308908192914e-05
5.419460563675429e-17
-7.624308908192503e-05
-7.403635116775628e-17
-7.624308908198584e-05
8.327433989418459e-17
-7.624308908200659e-05
1.357952777903633e-16
-7.624308908201532e-05
1.914011403586429e-16
-7.624308908209522e-05
7.144613291981392e-16
-7.624308908210578e-05
4.015638028897235e-16
-7.624308908204466e-05
-4.622394899041638e-16
-7.624308908209861e-05
3.262096410020547e-16
-7.624308908212331e-05
3.458071361808642e-16
-7.624308908197234e-05
-1.208884839419835e-15
-7.624308908195424e-05
-3.987588066725781e-16
-7.624308908193582e-05
1.492484350487989e-16
-7.624308908171634e-05
-1.626567367201356e-15
-7.624308908150688e-05
-1.797590241669028e-15
-7.624308908137437e-05
-1.249819673732758e-15
-7.624308908119971e-05
-1.248549212681271e-15
-7.624308908096999e-05
-1.846142836677089e-15
-7.624308908057614e-05
-2.908558804906127e-15
-7.624308908032833e-05
-2.621986894207662e-15
-7.624308907987402e-05
-3.097919603486113e-15
-7.624308907929146e-05
-4.730713315910399e-15
-7.624308907854572e-05
-5.751870107389547e-15
-7.624308907793362e-05
-5.809044287200147e-15
-7.624308907702703e-05
-6.631961563935597e-15
-7.624308907603966e-05
-8.703381085042456e-15
-7.624308907438552e-05
-1.18875149109122e-14
-7.624308907261352e-05
-1.591357392915165e-14
-7.624308907087151e-05
-1.39106527752063e-14
-3.764704869982554e-14
-5.623128753510562e-05
1.533840221111488e-14
-5.623128754026397e-05
4.816622733872659e-14
-5.623128754315058e-05
1.284337201820114e-14
-5.623128754543214e-05
1.814031243085102e-14
-5.623128754716607e-05
9.101243717488132e-15
-5.623128754848288e-05
9.638601667355891e-15
-5.62312875493347e-05
4.689000205034133e-15
-5.623128755011274e-05
4.797350423563793e-15
-5.623128755071814e-05
3.762080695137284e-15
-5.623128755111889e-05
2.027724891494019e-15
-5.623128755149574e-05
1.625381001297402e-15
-5.623128755178741e-05
2.255960009036162e-15
-5.623128755201183e-05
1.735196053320413e-15
-5.623128755221052e-05
1.351483299630573e-15
-5.623128755225123e-05
4.629999147105474e-16
-5.623128755248936e-05
1.694377293576397e-15
-5.623128755274945e-05
2.149164076353704e-15
-5.623128755285425e-05
7.383938570074379e-16
-5.623128755304726e-05
9.28248753191948e-16
-5.623128755323078e-05
1.440297139084447e-15
-5.623128755330646e-05
3.868938915613614e-16
-5.623128755342053e-05
4.523396024213217e-16
-5.623128755351047e-05
9.602137234666323e-16
-5.623128755355398e-05
4.941253309081428e-19
-5.623128755361888e-05
-2.487239771683575e-17
-5.623128755364847e-05
6.289625877626307e-16
-5.623128755366463e-05
7.178679935192581e-19
-5.623128755369315e-05
-2.696584336552619e-16
-5.623128755366712e-05
2.812023130132049e-17
-5.623128755367717e-05
-6.405080251928966e-17
-5.623128755374255e-05
1.485096816444433e-16
-5.623128755375617e-05
1.488262871164401e-16
-5.62312875537742e-05
2.097703146483843e-16
-5.623128755384927e-05
7.896975560077317e-16
-5.623128755385296e-05
4.054394744471462e-16
-5.623128755380445e-05
-5.105093920177054e-16
-5.623128755385503e-05
3.765287114820888e-16
-5.623128755387664e-05
3.672957684638221e-16
-5.623128755373183e-05
-1.353791004962162e-15
-5.623128755369749e-05
-4.332473652122013e-16
-5.623128755366753e-05
1.190288508290881e-16
-5.623128755344656e-05
-1.848197806308216e-15
-5.623128755322597e-05
-2.018078036838772e-15
-5.623128755308109e-05
-1.394617772235792e-15
-5.623128755288281e-05
-1.446658361966831e-15
-5.623128755263548e-05
-2.093342717100288e-15
-5.623128755223126e-05
-3.312505343416951e-15
-5.623128755196254e-05
-2.890591682220958e-15
-5.62312875514717e-05
-3.587850379987036e-15
-5.623128755085764e-05
-5.344088807818418e-15
-5.623128755006788e-05
-6.541180613636802e-15
-5.623128754940454e-05
-6.472300491548176e-15
-5.623128754842523e-05
-7.611527210953575e-15
-5.623128754735335e-05
-9.775685680803156e-15
-5.623128754561765e-05
-1.362359608140427e-14
-5.62312875436938e-05
-1.783764464461888e-14
-5.623128754192428e-05
-1.568014077875886e-14
-4.369544735970804e-14
-3.157807713005994e-05
1.340076288449677e-14
-3.157807713530743e-05
5.3413564878668e-14
-3.157807713880739e-05
1.634316461856281e-14
-3.157807714144119e-05
2.07739105448019e-14
-3.157807714353494e-05
1.119494312823242e-14
-3.157807714509615e-05
1.119979938981739e-14
-3.157807714617819e-05
5.770974708598734e-15
-3.157807714711307e-05
5.732243954440508e-15
-3.157807714784928e-05
4.498303192068636e-15
-3.15780771483685e-05
2.547310472825713e-15
-3.157807714882714e-05
2.083988219707704e-15
-3.157807714916653e-05
2.595327862858218e-15
-3.157807714943974e-05
2.00833173844776e-15
-3.157807714969051e-05
1.602211360284678e-15
-3.157807714976661e-05
5.390171764876482e-16
-3.157807715002723e-05
1.954948944550323e-15
-3.157807715031859e-05
2.440510400377454e-15
-3.157807715046613e-05
8.859284812898959e-16
-3.157807715069262e-05
1.154650273389946e-15
-3.157807715090387e-05
1.651465387909853e-15
-3.157807715101625e-05
4.993414441586905e-16
-3.157807715114854e-05
5.845809106962841e-16
-3.157807715124462e-05
1.056321654302143e-15
-3.157807715131593e-05
7.178911445451611e-17
-3.157807715139265e-05
5.183352876521804e-17
-3.157807715141395e-05
6.503177845321887e-16
-3.157807715144921e-05
3.606858038381699e-17
-3.157807715148292e-05
-2.360057075393189e-16
-3.157807715144788e-05
-6.97090043006159e-18
-3.157807715147509e-05
-3.678733263365251e-17
-3.157807715154594e-05
2.194377248897455e-16
-3.157807715155159e-05
1.543186771450111e-16
-3.157807715158265e-05
2.409899231762772e-16
-3.157807715165442e-05
8.613752745959799e-16
-3.157807715165144e-05
4.024123856851291e-16
-3.15780771516165e-05
-5.453369252700091e-16
-3.157807715166399e-05
4.241981036568654e-16
-3.157807715168094e-05
3.840637808667286e-16
-3.157807715153972e-05
-1.49505438294482e-15
-3.157807715148278e-05
-4.901507479792131e-16
-3.157807715143757e-05
7.398611551719124e-17
-3.157807715120991e-05
-2.076047838512269e-15
-3.157807715096967e-05
-2.258080485656797e-15
-3.157807715080545e-05
-1.558828575710857e-15
-3.157807715057707e-05
-1.675034725484156e-15
-3.157807715030371e-05
-2.366681601880733e-15
-3.15780771498805e-05
-3.735564756599942e-15
-3.157807714957433e-05
-3.197023607910198e-15
-3.157807714903129e-05
-4.130859526483153e-15
-3.157807714836084e-05
-6.014665069993466e-15
-3.157807714750167e-05
-7.400534859075518e-15
-3.157807714675148e-05
-7.222427843409348e-15
-3.157807714566754e-05
-8.695390256483795e-15
-3.157807714445554e-05
-1.09875685130769e-14
-3.15780771426004e-05
-1.547861813052948e-14
-3.157807714042425e-05
-2.001375229903443e-14
-3.157807713860918e-05
-1.749523229350575e-14
-5.030829663946096e-14
4.459642025662602e-06
9.781765743503104e-15
4.459642020474283e-06
5.860199175791226e-14
4.459642016218512e-06
2.059862635613182e-14
4.459642013101136e-06
2.389104085126902e-14
4.45964201052197e-06
1.377396326940554e-14
4.459642008611758e-06
1.310983962234899e-14
4.45964200720493e-06
7.177667652097115e-15
4.45964200604451e-06
6.892690748228156e-15
4.459642005116585e-06
5.426318589882208e-15
4.459642004429772e-06
3.234562546435284e-15
4.459642003856205e-06
2.657004466425475e-15