/*--------------------------------*- C++ -*----------------------------------*\
| =========                 |                                                 |
| \\      /  F ield         | OpenFOAM: The Open Source CFD Toolbox           |
|  \\    /   O peration     | Version:  v1812                                 |
|   \\  /    A nd           | Web:      www.OpenFOAM.com                      |
|    \\/     M anipulation  |                                                 |
\*---------------------------------------------------------------------------*/
FoamFile
{
    version     2.0;
    format      ascii;
    class       volVectorField;
    location    "20000";
    object      U;
}
// * * * * * * * * * * * * * * * * * * * * * * * * * * * * * * * * * * * * * //

dimensions      [0 1 -1 0 0 0 0];


internalField   nonuniform List<vector> 
3770
(
(-0.7150110714221898 -2.677053486798697e-14 -1.855553329764676e-07)
(-0.7150110714268009 4.661928136228306e-14 -1.855580106211551e-07)
(-0.7150110714251601 -2.460874955226728e-14 -1.855526141291428e-07)
(-0.7150110714274999 1.893164664253064e-14 -1.85556254741247e-07)
(-0.7150110714269228 -9.709997447152529e-15 -1.855533420747265e-07)
(-0.7150110714277466 8.012366069279682e-15 -1.855550234356408e-07)
(-0.7150110714279228 3.126392365409679e-15 -1.855535756384416e-07)
(-0.7150110714283207 -1.874560917013711e-15 -1.855542626517157e-07)
(-0.7150110714281041 9.169765594953976e-16 -1.855535172703835e-07)
(-0.7150110714285377 3.171146670605612e-15 -1.855537448610507e-07)
(-0.715011071428396 -4.507951408526618e-15 -1.855533238694029e-07)
(-0.7150110714283661 -5.414271489983126e-16 -1.855533446469215e-07)
(-0.7150110714285378 1.63518515344917e-15 -1.855530729678885e-07)
(-0.7150110714285649 9.207739167733974e-16 -1.855530020616902e-07)
(-0.715011071428775 4.047964020743192e-15 -1.85552799787129e-07)
(-0.7150110714288737 -2.326603389491251e-15 -1.855526891222347e-07)
(-0.7150110714287747 1.643212685452138e-15 -1.855525198354423e-07)
(-0.7150110714291242 4.363616372142822e-15 -1.855523927008223e-07)
(-0.7150110714291279 -3.199302924848607e-15 -1.8555223975779e-07)
(-0.7150110714289752 9.398566631422346e-16 -1.855521065368293e-07)
(-0.7150110714292623 3.65602755057189e-15 -1.855519622855444e-07)
(-0.7150110714292389 -3.496225510268822e-15 -1.855518275650106e-07)
(-0.7150110714290545 2.479886669513294e-16 -1.855516884551922e-07)
(-0.715011071429297 2.355018573359245e-15 -1.855515542367988e-07)
(-0.715011071429234 -3.512539181663773e-15 -1.855514186059869e-07)
(-0.7150110714290252 -1.152692054644171e-16 -1.855512857511005e-07)
(-0.7150110714292898 2.988523180848175e-15 -1.855511528208073e-07)
(-0.7150110714292279 -3.65423091156029e-15 -1.855510217103511e-07)
(-0.7150110714290018 -6.906622658305257e-16 -1.855508911408605e-07)
(-0.7150110714291952 1.850137558381072e-15 -1.855507619837241e-07)
(-0.7150110714291804 -7.399317017838266e-16 -1.855506336909652e-07)
(-0.7150110714290403 -1.15352492332114e-16 -1.855505066900658e-07)
(-0.7150110714291659 3.251251415288818e-18 -1.855503807933624e-07)
(-0.7150110714291665 -3.077904815976785e-15 -1.855502562625819e-07)
(-0.7150110714291084 2.009780603139616e-15 -1.855501331202157e-07)
(-0.7150110714292892 4.080851389467132e-15 -1.855500116083887e-07)
(-0.7150110714293061 -2.658320498811069e-15 -1.855498919331317e-07)
(-0.7150110714291759 6.768484194188063e-16 -1.855497744207652e-07)
(-0.7150110714293447 2.516869768105072e-15 -1.855496595046175e-07)
(-0.7150110714291954 -4.909850255052908e-15 -1.85549547703989e-07)
(-0.7150110714290933 2.144925053690792e-15 -1.855494398124674e-07)
(-0.715011071429218 2.193275134998123e-15 -1.8554933669089e-07)
(-0.7150110714291986 6.551667293014666e-17 -1.85549239749521e-07)
(-0.7150110714289478 -2.508742768355672e-15 -1.85549150402266e-07)
(-0.7150110714289626 -1.224651261675781e-15 -1.855490711721015e-07)
(-0.7150110714286037 -2.494726199319191e-15 -1.855490043039792e-07)
(-0.7150110714287587 4.149928575291674e-15 -1.855489544025138e-07)
(-0.7150110714283912 -7.205043298364673e-15 -1.855489247646404e-07)
(-0.7150110714282533 4.140672644366648e-15 -1.855489240986586e-07)
(-0.7150110714279736 -1.799576448976626e-15 -1.855489562445557e-07)
(-0.7150110714280694 4.081575639639467e-15 -1.85549038519882e-07)
(-0.7150110714270815 -1.37087884952123e-14 -1.855491709319347e-07)
(-0.7150110714272768 5.877614818028224e-15 -1.855493894900988e-07)
(-0.7150110714258167 -1.729559127286771e-14 -1.855496695781538e-07)
(-0.7150110714264345 1.810347820906518e-14 -1.85550094904147e-07)
(-0.7150110714242155 -3.115299526314644e-14 -1.855504581470994e-07)
(-0.7150110714244905 1.935167995613812e-14 -1.855508677738326e-07)
(-0.7150110714220754 2.399303787997494e-15 -1.855513269491379e-07)
(-0.4564371878027851 9.698805296032646e-14 -3.544787763613215e-07)
(-0.4564371878115918 2.196653135805254e-13 -3.544864396257339e-07)
(-0.4564371878093835 -2.543078429684615e-14 -3.544779727381425e-07)
(-0.4564371878129913 9.319040357731902e-14 -3.544830388896411e-07)
(-0.4564371878124463 -2.14432941021581e-15 -3.544789234377854e-07)
(-0.4564371878137558 4.401547747269676e-14 -3.54481056776793e-07)
(-0.4564371878139735 2.063283721844052e-14 -3.544790222393656e-07)
(-0.4564371878147148 7.650958375532219e-15 -3.544798179189598e-07)
(-0.4564371878145246 9.182892039996319e-15 -3.544787317691742e-07)
(-0.4564371878150744 1.166874441087943e-14 -3.544789278632947e-07)
(-0.4564371878149308 -8.878799303103588e-15 -3.544782756555576e-07)
(-0.4564371878149673 4.56239593296948e-15 -3.544782054554287e-07)
(-0.4564371878151391 9.696213253503409e-15 -3.544777538276564e-07)
(-0.4564371878152763 7.590504762546345e-15 -3.544775672683642e-07)
(-0.456437187815476 1.291382191278428e-14 -3.544772100465927e-07)
(-0.4564371878156777 3.434827574517818e-16 -3.544769743281126e-07)
(-0.4564371878156412 1.001711840272992e-14 -3.544766630025775e-07)
(-0.4564371878160284 1.430396943129628e-14 -3.544764080698224e-07)
(-0.456437187816137 -5.647047703103013e-15 -3.544761203347318e-07)
(-0.456437187815986 5.266901784058006e-15 -3.544758594077679e-07)
(-0.4564371878162834 1.070223011343637e-14 -3.544755849062141e-07)
(-0.4564371878163473 -7.878942682704874e-15 -3.544753237286691e-07)
(-0.4564371878161442 2.492388948514721e-15 -3.544750575795321e-07)
(-0.4564371878163783 5.914566183683553e-15 -3.544747985861468e-07)
(-0.4564371878163649 -1.01890483132863e-14 -3.544745384518243e-07)
(-0.4564371878161158 1.55123647404199e-15 -3.54474282636434e-07)
(-0.4564371878163762 7.890215301266165e-15 -3.544740273807967e-07)
(-0.4564371878163654 -1.074213577219044e-14 -3.544737751493346e-07)
(-0.4564371878161015 -2.035002858734243e-15 -3.544735242504938e-07)
(-0.4564371878162529 4.183429555552686e-15 -3.544732758108126e-07)
(-0.4564371878162892 -3.887143083538476e-15 -3.544730291104434e-07)
(-0.4564371878160667 -2.054817204042818e-16 -3.544727847007497e-07)
(-0.4564371878162 3.039537908143089e-15 -3.544725423444854e-07)
(-0.4564371878162697 -2.186592410430848e-15 -3.544723023843932e-07)
(-0.4564371878162475 6.486166969520916e-15 -3.544720648786998e-07)
(-0.4564371878163599 8.343345751140691e-15 -3.544718301553183e-07)
(-0.4564371878164143 -4.525494956970851e-15 -3.544715985409053e-07)
(-0.4564371878163577 1.52411505974226e-15 -3.544713704905081e-07)
(-0.4564371878164801 1.689198262762484e-15 -3.544711466886843e-07)
(-0.4564371878162879 -1.25968123206612e-14 -3.54470927856792e-07)
(-0.4564371878162197 3.148752883794096e-15 -3.544707152570794e-07)
(-0.4564371878162206 5.825248577899389e-16 -3.544705100719807e-07)
(-0.4564371878162288 -7.665566912887488e-15 -3.544703145832375e-07)
(-0.456437187815849 -1.057348871893164e-14 -3.544701306586204e-07)
(-0.4564371878158858 -9.408682764659366e-15 -3.544699625005101e-07)
(-0.4564371878153961 -1.305449892065528e-14 -3.544698128359511e-07)
(-0.456437187815511 -3.0882349402935e-15 -3.544696896843528e-07)
(-0.4564371878149219 -2.688533570545386e-14 -3.544695962623444e-07)
(-0.4564371878148177 -7.294037787138406e-15 -3.544695488266735e-07)
(-0.4564371878140983 -1.94036510319861e-14 -3.544695482482988e-07)
(-0.4564371878142998 -1.859874620245074e-14 -3.544696304570297e-07)
(-0.4564371878126935 -5.116589093167253e-14 -3.544697814014933e-07)
(-0.4564371878131028 -2.254778284572174e-14 -3.544700896500661e-07)
(-0.456437187810726 -6.774888187653948e-14 -3.544704753275758e-07)
(-0.456437187811616 -1.977388887510979e-14 -3.544711869868825e-07)
(-0.4564371878079332 -1.238055094624131e-13 -3.544718532994714e-07)
(-0.4564371878086419 -3.956574761080328e-14 -3.54473162382064e-07)
(-0.4564371878043081 -8.373194951220219e-14 -3.544736405565174e-07)
(-0.3094161944281049 2.463167899147341e-13 -4.506941212048205e-07)
(-0.3094161944390836 4.52589447627384e-13 -4.507042164030824e-07)
(-0.3094161944370333 -9.868252088160219e-15 -4.506954256304305e-07)
(-0.3094161944408636 1.79582932766573e-13 -4.507001161308569e-07)
(-0.3094161944404503 1.844494453929371e-14 -4.506961043967691e-07)
(-0.3094161944422129 8.660291705564543e-14 -4.506979366235061e-07)
(-0.3094161944422557 3.784236552839471e-14 -4.506959264560842e-07)
(-0.3094161944428926 2.36646879734257e-14 -4.506965296343431e-07)
(-0.3094161944430657 2.174264875170453e-14 -4.506954100540914e-07)
(-0.309416194443499 1.862158487798992e-14 -4.50695471790706e-07)
(-0.3094161944432653 -8.408929583433483e-15 -4.506947592204985e-07)
(-0.3094161944436573 1.368948488419641e-14 -4.506945833706516e-07)
(-0.3094161944437623 1.819313508059224e-14 -4.506940603981936e-07)
(-0.3094161944440116 1.418380733554028e-14 -4.50693782613494e-07)
(-0.3094161944440464 1.841543657428074e-14 -4.506933502807005e-07)
(-0.3094161944441093 6.286661845123333e-15 -4.506930309964285e-07)
(-0.309416194444385 2.003951723895338e-14 -4.506926438899962e-07)
(-0.3094161944445623 2.038635318229082e-14 -4.506923098136879e-07)
(-0.3094161944444998 -4.849553914006848e-15 -4.506919468853998e-07)
(-0.3094161944446908 1.125303454147698e-14 -4.506916096474488e-07)
(-0.3094161944448026 1.413569421973162e-14 -4.506912610024968e-07)
(-0.3094161944447122 -9.010060051334523e-15 -4.506909255369636e-07)
(-0.3094161944448486 6.802322204910064e-15 -4.50690586422371e-07)
(-0.3094161944449378 6.393756473570652e-15 -4.506902547272344e-07)
(-0.3094161944447765 -1.414771181723887e-14 -4.506899228072092e-07)
(-0.3094161944448687 4.990626076376522e-15 -4.506895956289197e-07)
(-0.3094161944449774 9.600851863660639e-15 -4.506892697199309e-07)
(-0.3094161944448172 -1.531290467098721e-14 -4.50688947314264e-07)
(-0.3094161944448627 -1.853036871550575e-15 -4.506886268433764e-07)
(-0.3094161944448725 4.825921081959739e-15 -4.506883093186144e-07)
(-0.3094161944448107 -5.891094776982161e-15 -4.506879940766666e-07)
(-0.3094161944448177 3.067914310991934e-17 -4.506876816088297e-07)
(-0.3094161944448511 5.606255832071156e-15 -4.506873717060296e-07)
(-0.3094161944448691 1.567254263667187e-15 -4.506870646773524e-07)
(-0.3094161944450949 1.024746931805553e-14 -4.506867606042579e-07)
(-0.309416194445012 7.903361779443454e-15 -4.506864597912324e-07)
(-0.3094161944449358 -4.054841072739446e-15 -4.506861625985662e-07)
(-0.309416194445113 3.24518081490665e-15 -4.506858694570845e-07)
(-0.3094161944450506 -3.49165790877911e-15 -4.506855811218945e-07)
(-0.3094161944447557 -1.722820866488042e-14 -4.506852982713535e-07)
(-0.3094161944449909 4.421963800063132e-15 -4.506850223093987e-07)
(-0.3094161944447871 -5.807738374618663e-15 -4.506847543229256e-07)
(-0.3094161944446148 -1.718127568272207e-14 -4.506844969042901e-07)
(-0.3094161944442992 -1.829924472679952e-14 -4.506842516535317e-07)
(-0.3094161944443291 -1.727939583211173e-14 -4.506840234987816e-07)
(-0.3094161944439838 -2.412491252995056e-14 -4.506838143940618e-07)
(-0.3094161944439622 -1.67225464234255e-14 -4.506836341803113e-07)
(-0.3094161944431847 -4.495066251731397e-14 -4.506834837661034e-07)
(-0.3094161944433869 -2.262736380681969e-14 -4.506833843711512e-07)
(-0.3094161944423577 -4.366863032182112e-14 -4.50683329770029e-07)
(-0.3094161944423648 -4.917951215005607e-14 -4.506833706387901e-07)
(-0.3094161944406946 -8.780539278044923e-14 -4.506834703656481e-07)
(-0.3094161944411721 -5.774894970253843e-14 -4.50683765725913e-07)
(-0.3094161944387836 -1.192480024890692e-13 -4.506841024255312e-07)
(-0.3094161944395258 -7.784406523590911e-14 -4.506849022543954e-07)
(-0.3094161944353235 -2.189674828214573e-13 -4.506855476968701e-07)
(-0.3094161944362099 -1.168590540734732e-13 -4.506874676949938e-07)
(-0.3094161944312765 -2.509708329073186e-13 -4.506879957813959e-07)
(-0.2375584993247958 3.732866736451433e-13 -4.977274118796772e-07)
(-0.2375584993361484 6.744748661662214e-13 -4.977378503063827e-07)
(-0.2375584993347657 2.331448791511833e-14 -4.977295184091012e-07)
(-0.2375584993384403 2.566449616349913e-13 -4.97733615598957e-07)
(-0.2375584993383038 4.883141734881332e-14 -4.977298954188665e-07)
(-0.2375584993401515 1.256015142229134e-13 -4.977314114232099e-07)
(-0.2375584993402018 5.193473094383486e-14 -4.977295162338753e-07)
(-0.2375584993408261 4.240636734643742e-14 -4.977299501646241e-07)
(-0.2375584993411453 3.572566043745552e-14 -4.977288595631663e-07)
(-0.2375584993415419 2.32048534172162e-14 -4.977288212416228e-07)
(-0.2375584993413376 -3.68740761999055e-15 -4.977280990009859e-07)
(-0.2375584993418426 2.401439975721199e-14 -4.977278554536418e-07)
(-0.2375584993419071 2.576349117426173e-14 -4.977273060755895e-07)
(-0.2375584993421955 1.954622705886653e-14 -4.977269759915153e-07)
(-0.237558499342166 1.958884689556108e-14 -4.977265103539333e-07)
(-0.2375584993421944 1.400720873373914e-14 -4.977261463498141e-07)
(-0.2375584993425681 2.930375975111314e-14 -4.977257233805479e-07)
(-0.2375584993426662 2.183570739415985e-14 -4.977253485267253e-07)
(-0.2375584993425765 -1.04792343738044e-15 -4.977249490547324e-07)
(-0.2375584993428718 1.745375935287172e-14 -4.977245732639533e-07)
(-0.2375584993429133 1.379330218365827e-14 -4.977241881800636e-07)
(-0.2375584993428059 -6.744762478772083e-15 -4.977238155552554e-07)
(-0.2375584993430399 1.192463190760734e-14 -4.977234404146537e-07)
(-0.237558499343076 4.214029703153122e-15 -4.977230725357363e-07)
(-0.237558499342902 -1.440875588771153e-14 -4.977227051063206e-07)
(-0.2375584993430896 9.051304954333252e-15 -4.9772234250098e-07)
(-0.2375584993431343 7.937859064047455e-15 -4.977219816166208e-07)
(-0.2375584993429617 -1.637560715939367e-14 -4.977216244144692e-07)
(-0.2375584993430941 -5.116708007744866e-16 -4.977212694886331e-07)
(-0.237558499343048 3.861430787816726e-15 -4.977209177175776e-07)
(-0.2375584993429816 -6.808815306584015e-15 -4.977205685087697e-07)
(-0.2375584993430673 -3.184553792244713e-16 -4.977202222859032e-07)
(-0.237558499343065 7.834806506478674e-15 -4.977198788684161e-07)
(-0.2375584993430606 7.346053977846694e-15 -4.977195385229604e-07)
(-0.2375584993433386 1.172541701657946e-14 -4.977192013426167e-07)
(-0.2375584993431897 3.237465056653185e-15 -4.97718867595184e-07)
(-0.2375584993430888 -1.411993194339759e-15 -4.97718537645736e-07)
(-0.2375584993433278 5.727159316262224e-15 -4.977182118770541e-07)
(-0.2375584993432087 -1.101769834509127e-14 -4.977178910562161e-07)
(-0.2375584993428991 -1.821338290711849e-14 -4.97717575780502e-07)
(-0.2375584993432192 5.408476692801402e-15 -4.9771726748751e-07)
(-0.2375584993429443 -1.539813825697227e-14 -4.977169671060551e-07)
(-0.2375584993427287 -2.671228488948445e-14 -4.977166773370662e-07)
(-0.2375584993424331 -2.429825803848902e-14 -4.977163994303876e-07)
(-0.2375584993424593 -2.239382021178252e-14 -4.977161386454306e-07)
(-0.2375584993421619 -3.283505812681621e-14 -4.977158960950032e-07)
(-0.2375584993420905 -3.304209966439225e-14 -4.977156826287125e-07)
(-0.2375584993412758 -5.780794215484682e-14 -4.977154969484277e-07)
(-0.2375584993415702 -3.825414394580971e-14 -4.977153634157395e-07)
(-0.2375584993404288 -6.896142496420544e-14 -4.977152695339476e-07)
(-0.2375584993404002 -7.967567689032665e-14 -4.977152761575947e-07)
(-0.2375584993387365 -1.161967739296485e-13 -4.977153274304815e-07)
(-0.2375584993392317 -9.111760368126427e-14 -4.977155950630129e-07)
(-0.2375584993368498 -1.615817628004498e-13 -4.977158613274321e-07)
(-0.2375584993375252 -1.411593834476064e-13 -4.97716677558736e-07)
(-0.2375584993332368 -2.976627860200337e-13 -4.977172036930187e-07)
(-0.2375584993341742 -1.916509589499371e-13 -4.977194440141036e-07)
(-0.2375584993291069 -4.358168893656827e-13 -4.977198741937013e-07)
(-0.1892305589859871 4.983490576095655e-13 -5.292891439177604e-07)
(-0.1892305589969545 9.131050772740008e-13 -5.292989451225311e-07)
(-0.1892305589963517 7.104600345629783e-14 -5.292912343640729e-07)
(-0.1892305589997951 3.380686781121152e-13 -5.292947425842781e-07)
(-0.1892305589999616 8.744604749442749e-14 -5.292913214808528e-07)
(-0.1892305590017889 1.684269930074867e-13 -5.292925513577778e-07)
(-0.18923055900191 6.712413317999602e-14 -5.292907762363861e-07)
(-0.1892305590025578 6.391472281804009e-14 -5.292910640566923e-07)
(-0.1892305590029469 5.239703018102442e-14 -5.292900115260378e-07)
(-0.1892305590033398 2.813751870531713e-14 -5.292898911188336e-07)
(-0.1892305590031993 3.597578997102409e-15 -5.292891704183159e-07)
(-0.1892305590037316 3.632661161240388e-14 -5.292888743849041e-07)
(-0.1892305590037692 3.366329715906291e-14 -5.29288310620329e-07)
(-0.1892305590040779 2.49971848362562e-14 -5.292879419833191e-07)
(-0.1892305590040222 1.926630743899176e-14 -5.292874552555982e-07)
(-0.1892305590040512 2.287380081261607e-14 -5.292870594500295e-07)
(-0.1892305590044516 3.963622833355763e-14 -5.292866127703698e-07)
(-0.1892305590045203 2.178084415201533e-14 -5.292862095419045e-07)
(-0.1892305590044511 3.802889145695019e-15 -5.292857855188646e-07)
(-0.1892305590047698 2.484123279772234e-14 -5.292853832209489e-07)
(-0.1892305590047856 1.221604846732172e-14 -5.292849735006117e-07)
(-0.1892305590047057 -3.555890508948199e-15 -5.292845754880454e-07)
(-0.1892305590049528 1.81325738420125e-14 -5.292841759310633e-07)
(-0.1892305590049689 1.155426041154017e-15 -5.292837834137149e-07)
(-0.1892305590048265 -1.369822015051737e-14 -5.292833918973476e-07)
(-0.1892305590050244 1.403456698916139e-14 -5.292830052109717e-07)
(-0.1892305590050382 5.125528109029527e-15 -5.292826205955907e-07)
(-0.1892305590048964 -1.675184524060179e-14 -5.292822397610853e-07)
(-0.1892305590050363 1.456843098039899e-15 -5.292818614538027e-07)
(-0.1892305590049666 1.913016363543398e-15 -5.292814864296649e-07)
(-0.1892305590049251 -6.468650151203088e-15 -5.292811141619424e-07)
(-0.1892305590050289 4.262733078418686e-16 -5.292807450113085e-07)
(-0.1892305590050158 8.736005134713908e-15 -5.292803788224567e-07)
(-0.189230559005007 1.366335648597193e-14 -5.292800158215789e-07)
(-0.1892305590052721 1.361570418996478e-14 -5.292796561087615e-07)
(-0.1892305590051044 -2.823719229589705e-15 -5.292792999140522e-07)
(-0.1892305590050153 1.570272768983248e-15 -5.292789476004341e-07)
(-0.1892305590052548 8.431856515358234e-15 -5.292785994988914e-07)
(-0.1892305590051248 -2.00724314440077e-14 -5.292782563746242e-07)
(-0.1892305590048263 -1.823666002746068e-14 -5.292779187370093e-07)
(-0.189230559005157 6.775903044959237e-15 -5.292775880324123e-07)
(-0.1892305590048573 -2.684094097544284e-14 -5.29277265018796e-07)
(-0.1892305590046459 -3.751363472636827e-14 -5.292769524598005e-07)
(-0.1892305590043579 -3.040225477267089e-14 -5.292766512391178e-07)
(-0.189230559004382 -2.746243830700573e-14 -5.292763668572037e-07)
(-0.1892305590040905 -4.155094129624178e-14 -5.292760995727428e-07)
(-0.1892305590040015 -5.180289229246503e-14 -5.292758610610998e-07)
(-0.1892305590031934 -7.026144737020014e-14 -5.292756478366561e-07)
(-0.1892305590035104 -5.533507990616733e-14 -5.292754870015913e-07)
(-0.1892305590023196 -9.679131709524566e-14 -5.292753599321985e-07)
(-0.1892305590023138 -1.134322804198529e-13 -5.292753366821619e-07)
(-0.1892305590006646 -1.445822340535453e-13 -5.292753426436261e-07)
(-0.1892305590011724 -1.278327234610627e-13 -5.292755816677236e-07)
(-0.1892305589987771 -2.047989912494084e-13 -5.292757735369403e-07)
(-0.1892305589994284 -2.129494680213594e-13 -5.292765897646716e-07)
(-0.189230558995157 -3.784418135370854e-13 -5.292769642339392e-07)
(-0.1892305589961089 -2.74124751563616e-13 -5.292794287340558e-07)
(-0.1892305589910616 -6.466662805761998e-13 -5.292796180736198e-07)
(-0.1520828655231413 6.029511262173965e-13 -5.534372462906377e-07)
(-0.1520828655333273 1.156312370523647e-12 -5.534460279888217e-07)
(-0.1520828655335024 1.330816981285762e-13 -5.534389570084932e-07)
(-0.152082865536696 4.212774134755961e-13 -5.534419150846258e-07)
(-0.1520828655371531 1.326741588970717e-13 -5.534387725423318e-07)
(-0.1520828655389269 2.127597927123056e-13 -5.53439746426424e-07)
(-0.1520828655391409 8.505809674945065e-14 -5.534380833383338e-07)
(-0.1520828655398178 8.75097363035775e-14 -5.534382431347689e-07)
(-0.1520828655402471 7.051372795683272e-14 -5.534372283594488e-07)
(-0.1520828655406504 3.46376008755167e-14 -5.534370376415963e-07)
(-0.1520828655405791 1.280964873439016e-14 -5.534363217574013e-07)
(-0.1520828655411094 4.874458637449569e-14 -5.534359819648049e-07)
(-0.1520828655411289 4.145757821419857e-14 -5.534354086351471e-07)
(-0.1520828655414496 3.046342665095909e-14 -5.534350086909971e-07)
(-0.1520828655413859 1.870158407853086e-14 -5.534345063102339e-07)
(-0.1520828655414226 3.233074127895156e-14 -5.534340851988262e-07)
(-0.1520828655418243 5.003431021680572e-14 -5.534336204516459e-07)
(-0.1520828655418854 2.194602589136132e-14 -5.534331949369908e-07)
(-0.1520828655418471 9.484828098169063e-15 -5.534327520346273e-07)
(-0.1520828655421621 3.223824585408477e-14 -5.534323290740344e-07)
(-0.1520828655421723 1.103998754430285e-14 -5.534319003457152e-07)
(-0.1520828655421284 2.695238970175065e-16 -5.534314826254446e-07)
(-0.1520828655423589 2.399919433024804e-14 -5.534310642092774e-07)
(-0.152082865542369 -1.35311663003349e-15 -5.534306526096589e-07)
(-0.1520828655422689 -1.229151044458139e-14 -5.534302424834487e-07)
(-0.1520828655424459 1.844387768455533e-14 -5.534298371702799e-07)
(-0.1520828655424446 2.573057119867282e-15 -5.534294342202237e-07)
(-0.1520828655423447 -1.65937433917359e-14 -5.534290351172542e-07)
(-0.1520828655424642 2.835609904006664e-15 -5.534286387452506e-07)
(-0.1520828655423863 -8.461927611492563e-17 -5.534282457499502e-07)
(-0.1520828655423748 -5.041326505088599e-15 -5.534278556627258e-07)
(-0.1520828655424729 1.690945794759615e-15 -5.534274687876612e-07)
(-0.152082865542458 8.880049466804248e-15 -5.534270849913561e-07)
(-0.1520828655424539 1.941028325974795e-14 -5.534267044618183e-07)
(-0.1520828655426878 1.53028837120666e-14 -5.534263273040603e-07)
(-0.1520828655425254 -8.50076050063308e-15 -5.534259537111262e-07)
(-0.1520828655424602 4.683201543951013e-15 -5.534255840419552e-07)
(-0.1520828655426713 1.073518580062773e-14 -5.534252185748995e-07)
(-0.1520828655425486 -2.906218456135474e-14 -5.5342485806906e-07)
(-0.1520828655422682 -1.791802155109567e-14 -5.534245029439454e-07)
(-0.1520828655425822 7.682063139122352e-15 -5.534241546479714e-07)
(-0.1520828655422797 -3.839834523555682e-14 -5.534238137637396e-07)
(-0.1520828655420857 -4.818303974494549e-14 -5.534234831053396e-07)
(-0.1520828655418087 -3.638288678709041e-14 -5.534231631828196e-07)
(-0.1520828655418326 -3.28296105056781e-14 -5.53422859715399e-07)
(-0.1520828655415274 -5.061504856905896e-14 -5.534225720943998e-07)
(-0.1520828655414345 -7.096664530702317e-14 -5.534223127824768e-07)
(-0.1520828655406473 -8.210327141233489e-14 -5.534220760800214e-07)
(-0.1520828655409645 -7.354385497467633e-14 -5.534218917645508e-07)
(-0.1520828655397575 -1.246034565549469e-13 -5.534217350111506e-07)
(-0.1520828655397927 -1.474822224482024e-13 -5.534216849748561e-07)
(-0.1520828655381546 -1.723005619993244e-13 -5.534216479868133e-07)
(-0.1520828655386765 -1.659782741795731e-13 -5.534218599120587e-07)
(-0.152082865536279 -2.480367142004601e-13 -5.534219763501504e-07)
(-0.1520828655369225 -2.870325106430322e-13 -5.534227888026867e-07)
(-0.1520828655327117 -4.578839401015609e-13 -5.53422993767112e-07)
(-0.1520828655336574 -3.582478415389721e-13 -5.534256423840269e-07)
(-0.1520828655287296 -8.736071510703116e-13 -5.534254537946637e-07)
(-0.1213134995142158 6.807908633625088e-13 -5.73300250186752e-07)
(-0.1213134995233887 1.397685888958768e-12 -5.733078596005943e-07)
(-0.121313499524295 2.085614110657943e-13 -5.733014013615092e-07)
(-0.1213134995272414 5.058532210585996e-13 -5.733038526139102e-07)
(-0.1213134995279654 1.83726856283365e-13 -5.733009634544375e-07)
(-0.1213134995296755 2.583740467323522e-13 -5.733017072458674e-07)
(-0.1213134995299896 1.062110629073935e-13 -5.733001458956424e-07)
(-0.1213134995306951 1.128325747406902e-13 -5.733001918614697e-07)
(-0.1213134995311495 8.984446728531227e-14 -5.732992121501148e-07)
(-0.1213134995315703 4.307865346862371e-14 -5.732989596115959e-07)
(-0.121313499531565 2.353460130855078e-14 -5.732982493119306e-07)
(-0.1213134995320815 6.080802866712964e-14 -5.732978715685238e-07)
(-0.1213134995320909 4.922405494564269e-14 -5.732972909561162e-07)
(-0.1213134995324198 3.615803162564333e-14 -5.732968642414505e-07)
(-0.1213134995323594 1.829880267957165e-14 -5.732963491255712e-07)
(-0.1213134995324045 4.204634716788797e-14 -5.732959066237126e-07)
(-0.1213134995327962 6.038042017098877e-14 -5.732954269720945e-07)
(-0.1213134995328602 2.284583466480364e-14 -5.732949827662117e-07)
(-0.1213134995328534 1.577660672202153e-14 -5.732945242213718e-07)
(-0.1213134995331545 3.947882720784794e-14 -5.732940840133377e-07)
(-0.1213134995331691 1.071733673286622e-14 -5.732936395143116e-07)
(-0.1213134995331604 4.425718759975721e-15 -5.732932053891662e-07)
(-0.1213134995333617 2.923564373853204e-14 -5.732927713215404e-07)
(-0.1213134995333725 -2.891022133706865e-15 -5.732923438627648e-07)
(-0.1213134995333168 -1.037583585790619e-14 -5.732919182935429e-07)
(-0.1213134995334624 2.203607772494322e-14 -5.732914975142634e-07)
(-0.1213134995334538 6.530583446012189e-16 -5.732910793518657e-07)
(-0.121313499533396 -1.61395021679836e-14 -5.732906650875884e-07)
(-0.1213134995334862 3.447214124141843e-15 -5.732902537287473e-07)
(-0.121313499533408 -1.682774703953017e-15 -5.732898458215345e-07)
(-0.1213134995334253 -2.871258958751014e-15 -5.732894409491822e-07)
(-0.1213134995335092 3.134122372251435e-15 -5.732890393642222e-07)
(-0.1213134995334954 8.74075032762518e-15 -5.732886409524204e-07)
(-0.1213134995334995 2.434457789065275e-14 -5.732882458661879e-07)
(-0.1213134995336978 1.656910034618398e-14 -5.732878542138286e-07)
(-0.1213134995335504 -1.339674236827593e-14 -5.732874661524939e-07)
(-0.1213134995335106 7.740157845589099e-15 -5.732870820366902e-07)
(-0.1213134995336833 1.269907480538036e-14 -5.732867020918774e-07)
(-0.1213134995335791 -3.743815133752749e-14 -5.732863270703151e-07)
(-0.1213134995333175 -1.768787003624085e-14 -5.732859573006474e-07)
(-0.1213134995336013 8.031913851175044e-15 -5.73285594232717e-07)
(-0.1213134995333077 -4.950380774351585e-14 -5.732852382706776e-07)
(-0.121313499533134 -5.837630149015942e-14 -5.732848922791193e-07)
(-0.1213134995328682 -4.228930466684337e-14 -5.732845563863101e-07)
(-0.1213134995328905 -3.877445850471063e-14 -5.732842365341272e-07)
(-0.1213134995325663 -6.000404854640737e-14 -5.732839312254504e-07)
(-0.1213134995324811 -8.977720134510288e-14 -5.732836537288848e-07)
(-0.1213134995317202 -9.345047116071407e-14 -5.732833960691413e-07)
(-0.1213134995320294 -9.248259248933868e-14 -5.732831907749716e-07)
(-0.1213134995308258 -1.517304895222895e-13 -5.732830066182493e-07)
(-0.1213134995309035 -1.810401931981031e-13 -5.732829321433668e-07)
(-0.1213134995292759 -1.993859098533175e-13 -5.732828538831017e-07)
(-0.1213134995298121 -2.048293715628585e-13 -5.73283040797814e-07)
(-0.1213134995274264 -2.911483339479296e-13 -5.732830812408769e-07)
(-0.1213134995280746 -3.612856614832998e-13 -5.732838908564983e-07)
(-0.1213134995239463 -5.35977032225559e-13 -5.732839132439249e-07)
(-0.1213134995248788 -4.412621623587151e-13 -5.732867309096074e-07)
(-0.1213134995201305 -1.110115391663202e-12 -5.732860366437273e-07)
(-0.09443778650799846 7.305599987057914e-13 -5.904922840202569e-07)
(-0.09443778651599964 1.635793998729791e-12 -5.904986674617231e-07)
(-0.09443778651757705 2.974570484722645e-13 -5.904927819614775e-07)
(-0.09443778652028431 5.928750206593685e-13 -5.904947651513672e-07)
(-0.09443778652125071 2.407645860661309e-13 -5.904921059918452e-07)
(-0.09443778652289508 3.060456605195516e-13 -5.90492640537627e-07)
(-0.0944377865233109 1.310186735107607e-13 -5.904911712699723e-07)
(-0.09443778652404358 1.39989521892947e-13 -5.904911143134134e-07)
(-0.09443778652451405 1.106020910433148e-13 -5.904901665473459e-07)
(-0.0944377865249562 5.371051895783399e-14 -5.904898584015416e-07)
(-0.09443778652501236 3.569591837282888e-14 -5.904891535134039e-07)
(-0.09443778652551058 7.26502643132863e-14 -5.904887418521426e-07)
(-0.09443778652551735 5.72056227142181e-14 -5.904881550822864e-07)
(-0.094437786525852 4.235348666350052e-14 -5.904877046089369e-07)
(-0.09443778652580286 1.825434246927867e-14 -5.904871784401835e-07)
(-0.09443778652585566 5.19444265804882e-14 -5.904867170694824e-07)
(-0.09443778652623107 7.083527713669824e-14 -5.904862244213898e-07)
(-0.09443778652630325 2.464111051511078e-14 -5.904857638003756e-07)
(-0.09443778652632571 2.260307801286943e-14 -5.904852916004559e-07)
(-0.09443778652660988 4.671256639972898e-14 -5.904848362881948e-07)
(-0.09443778652663383 1.135658966238915e-14 -5.904843780216166e-07)
(-0.09443778652665678 8.793329702151727e-15 -5.904839295557369e-07)
(-0.0944377865268267 3.392945207407363e-14 -5.904834818283186e-07)
(-0.09443778652684079 -3.426525810510725e-15 -5.904830405211762e-07)
(-0.0944377865268264 -8.157366068868795e-15 -5.904826014785097e-07)
(-0.09443778652693989 2.485356368829789e-14 -5.904821672032466e-07)
(-0.09443778652692809 -5.072586413066646e-16 -5.904817357721846e-07)