/*--------------------------------*- C++ -*----------------------------------*\
| =========                 |                                                 |
| \\      /  F ield         | OpenFOAM: The Open Source CFD Toolbox           |
|  \\    /   O peration     | Version:  v1812                                 |
|   \\  /    A nd           | Web:      www.OpenFOAM.com                      |
|    \\/     M anipulation  |                                                 |
\*---------------------------------------------------------------------------*/
FoamFile
{
    version     2.0;
    format      ascii;
    class       volVectorField;
    location    "20000";
    object      wallShearStress;
}
// * * * * * * * * * * * * * * * * * * * * * * * * * * * * * * * * * * * * * //

dimensions      [0 2 -2 0 0 0 0];


internalField   uniform (0 0 0);

boundaryField
{
    inlet
    {
        type            cyclic;
    }
    outlet
    {
        type            cyclic;
    }
    bottomWall
    {
        type            calculated;
        value           nonuniform List<vector> 
58
(
(-0.005434211932017388 2.381969756842545e-17 3.53819711362882e-09)
(-0.005434211931928014 -1.598015029818055e-15 3.538248171361188e-09)
(-0.005434211931959807 5.284740763004927e-16 3.538145270236799e-09)
(-0.005434211931914471 -7.26310478633506e-16 3.53821468997777e-09)
(-0.005434211931925652 2.125984377529549e-16 3.538159150812775e-09)
(-0.00543421193190969 -3.426894595041885e-16 3.538191211256455e-09)
(-0.00543421193190627 -1.592716074714971e-16 3.538163604440765e-09)
(-0.005434211931898563 2.246847498158789e-17 3.538176704513556e-09)
(-0.00543421193190276 -5.349352943278592e-17 3.53816249146978e-09)
(-0.005434211931894355 -1.211920490164856e-16 3.538166831202909e-09)
(-0.005434211931897102 1.384490286905507e-16 3.538158803670614e-09)
(-0.005434211931897684 -5.922863818563617e-18 3.538159199859483e-09)
(-0.005434211931894356 -6.921311554876113e-17 3.538154019442617e-09)
(-0.005434211931893826 -5.636146404587063e-17 3.538152667392509e-09)
(-0.005434211931889758 -1.458592377986912e-16 3.538148810390587e-09)
(-0.005434211931887845 5.921987136552151e-17 3.53814670021565e-09)
(-0.005434211931889764 -7.66097009266929e-17 3.538143472229543e-09)
(-0.005434211931882987 -1.600506803216776e-16 3.538141048007337e-09)
(-0.005434211931882918 1.020457461161123e-16 3.538138131666499e-09)
(-0.005434211931885879 -4.25655140875858e-17 3.53813559138913e-09)
(-0.005434211931880311 -1.295608494545669e-16 3.538132840783785e-09)
(-0.005434211931880765 1.177372269100332e-16 3.538130271912303e-09)
(-0.005434211931884342 -1.435195551472119e-17 3.538127619345314e-09)
(-0.005434211931879641 -8.48425602837386e-17 3.538125060048669e-09)
(-0.005434211931880861 1.270896123755306e-16 3.538122473819877e-09)
(-0.005434211931884911 -4.830155784941286e-18 3.538119940522881e-09)
(-0.005434211931879781 -1.041253325947749e-16 3.53811740578792e-09)
(-0.005434211931880977 1.328866591878648e-16 3.538114905753949e-09)
(-0.005434211931885363 2.213967093826821e-17 3.538112416035229e-09)
(-0.005434211931881614 -7.18791376879695e-17 3.538109953247406e-09)
(-0.005434211931881898 4.034094032005849e-17 3.538107506941707e-09)
(-0.005434211931884617 4.936553798692066e-18 3.538105085269406e-09)
(-0.005434211931882181 -1.760803588972229e-17 3.538102684652024e-09)
(-0.00543421193188217 8.624092589175568e-17 3.538100310080294e-09)
(-0.005434211931883298 -6.81135383661927e-17 3.53809796198307e-09)
(-0.005434211931879791 -1.312650004543978e-16 3.538095644977164e-09)
(-0.005434211931879465 8.336169420284467e-17 3.538093362991285e-09)
(-0.005434211931881991 -2.258785247689923e-17 3.53809112224776e-09)
(-0.005434211931878714 -6.672476186582372e-17 3.538088931009264e-09)
(-0.005434211931881609 1.597843529537272e-16 3.538086799178024e-09)
(-0.005434211931883591 -5.76818489184771e-17 3.538084741886217e-09)
(-0.00543421193188117 -7.039325362280077e-17 3.538082775548379e-09)
(-0.005434211931881546 3.589775438029294e-17 3.538080927055719e-09)
(-0.005434211931886408 9.65476902665299e-17 3.538079223368817e-09)
(-0.005434211931886123 7.900454617948086e-17 3.538077712596073e-09)
(-0.005434211931893079 9.171729401656387e-17 3.538076437544689e-09)
(-0.00543421193189007 -7.59477143939236e-17 3.538075486015977e-09)
(-0.005434211931897195 2.534281017930437e-16 3.538074920876606e-09)
(-0.005434211931899869 -4.721154872327928e-17 3.538074908177594e-09)
(-0.005434211931905288 7.12934046635159e-17 3.538075521140471e-09)
(-0.005434211931903427 2.021089296736708e-17 3.5380770899788e-09)
(-0.005434211931922576 4.586639681450457e-16 3.538079614832019e-09)
(-0.00543421193191879 2.637770421310676e-17 3.538083782332061e-09)
(-0.005434211931947091 5.568062812691829e-16 3.538089123093692e-09)
(-0.005434211931935113 -2.377800852449812e-16 3.538097233273842e-09)
(-0.00543421193197812 1.062204342198211e-15 3.538104159645769e-09)
(-0.005434211931972796 -1.94531819264869e-16 3.538111970470127e-09)
(-0.005434211932019582 2.587502508906231e-16 3.538120726094687e-09)
)
;
    }
    topWall
    {
        type            calculated;
        value           nonuniform List<vector> 
58
(
(0.0005942139175569768 -2.888502301483269e-15 1.820403782881249e-09)
(0.0005942139174882586 7.911836355194137e-16 1.820381562517748e-09)
(0.0005942139175108904 -1.556400569919218e-16 1.820385777136673e-09)
(0.0005942139175070658 2.786515320973113e-16 1.820371508207444e-09)
(0.000594213917516151 1.048932497353889e-16 1.820381947531406e-09)
(0.0005942139175146695 9.29818271161866e-17 1.820369988787452e-09)
(0.0005942139175215583 7.011058891641305e-17 1.82038361408473e-09)
(0.0005942139175183848 4.071673258349194e-17 1.820371491126149e-09)
(0.0005942139175243972 6.12623472051335e-17 1.82038690670397e-09)
(0.0005942139175214345 2.749335475016285e-17 1.820373587279095e-09)
(0.0005942139175266135 2.738123926415447e-17 1.820390346635625e-09)
(0.0005942139175232978 4.932214856306276e-17 1.820375383427872e-09)
(0.0005942139175291544 3.500100576632711e-17 1.820393420026651e-09)
(0.0005942139175242587 3.324909466988903e-17 1.820376603382152e-09)
(0.0005942139175309298 1.589537174274494e-17 1.820396009449214e-09)
(0.000594213917524627 -5.999487424821102e-18 1.820377225031908e-09)
(0.0005942139175312672 2.984264242233402e-17 1.820398153044449e-09)
(0.0005942139175253955 4.978991597167851e-18 1.820377319627324e-09)
(0.0005942139175323707 2.160593050183846e-17 1.820399936437919e-09)
(0.0005942139175261271 1.801743671005148e-17 1.820376981481377e-09)
(0.0005942139175339064 7.931643000190286e-18 1.820401447105156e-09)
(0.0005942139175258025 1.094752921066761e-17 1.820376300828117e-09)
(0.0005942139175353511 2.319522621591815e-17 1.820402757427246e-09)
(0.0005942139175262177 -1.104639138764041e-17 1.820375355834605e-09)
(0.0005942139175357818 9.219050078799214e-18 1.820403920238795e-09)
(0.0005942139175261993 -9.684511490674851e-18 1.820374212815618e-09)
(0.0005942139175361941 2.407706025809205e-17 1.820404968928623e-09)
(0.0005942139175262635 1.03605795921811e-19 1.820372929312432e-09)
(0.0005942139175369968 1.638689605268108e-17 1.820405919041796e-09)
(0.0005942139175259067 3.421836907371372e-18 1.820371558059823e-09)
(0.0005942139175384755 1.822935823778765e-17 1.820406769738828e-09)
(0.0005942139175251787 -1.938599521781832e-17 1.820370150971149e-09)
(0.0005942139175389909 1.697179876705993e-18 1.820407504713666e-09)
(0.0005942139175241308 -2.591088271720365e-17 1.820368762750546e-09)
(0.0005942139175399328 2.971988280771261e-17 1.820408092501799e-09)
(0.0005942139175239478 -1.660174570920126e-17 1.820367454327774e-09)
(0.0005942139175410754 5.481868182176534e-17 1.820408486054514e-09)
(0.0005942139175241549 -3.67197968964616e-17 1.820366296048205e-09)
(0.0005942139175416873 5.741533303375611e-17 1.820408621866567e-09)
(0.0005942139175251935 -3.360951129118704e-17 1.820365370619376e-09)
(0.0005942139175430732 6.476300747218834e-17 1.820408418749436e-09)
(0.0005942139175259255 -4.523887907087506e-17 1.820364775679435e-09)
(0.0005942139175433398 8.678847587165779e-17 1.8204077769104e-09)
(0.0005942139175261262 -6.566465139212241e-17 1.820364625070367e-09)
(0.0005942139175444413 1.052388753250542e-16 1.820406578872254e-09)
(0.000594213917526356 -1.06411264260258e-16 1.820365046430659e-09)
(0.0005942139175456964 1.629573610462253e-16 1.820404696204785e-09)
(0.0005942139175274844 -1.471591771690596e-16 1.820366168869088e-09)
(0.0005942139175463912 2.42594623432012e-16 1.820402011646687e-09)
(0.0005942139175298822 -2.249444577880684e-16 1.820368089492619e-09)
(0.0005942139175473149 3.42346022228526e-16 1.820398475004732e-09)
(0.0005942139175335438 -3.406291244934068e-16 1.820370727038134e-09)
(0.000594213917547321 4.828821226805434e-16 1.820394170751402e-09)
(0.0005942139175384711 -4.979788383576025e-16 1.820374128648447e-09)
(0.0005942139175454334 5.452063826899973e-16 1.820389906249767e-09)
(0.0005942139175398548 -8.951506608375256e-16 1.820367534536779e-09)
(0.0005942139175256379 4.031286275190445e-16 1.820362989223106e-09)
(0.0005942139175549375 1.129181294099258e-15 1.820390674255762e-09)
)
;
    }
    left
    {
        type            cyclic;
    }
    right
    {
        type            cyclic;
    }
}


// ************************************************************************* //
