/*--------------------------------*- C++ -*----------------------------------*\
| =========                 |                                                 |
| \\      /  F ield         | OpenFOAM: The Open Source CFD Toolbox           |
|  \\    /   O peration     | Version:  v1812                                 |
|   \\  /    A nd           | Web:      www.OpenFOAM.com                      |
|    \\/     M anipulation  |                                                 |
\*---------------------------------------------------------------------------*/
FoamFile
{
    version     2.0;
    format      ascii;
    class       volScalarField;
    location    "10000";
    object      nut;
}
// * * * * * * * * * * * * * * * * * * * * * * * * * * * * * * * * * * * * * //

dimensions      [0 2 -1 0 0 0 0];


internalField   nonuniform List<scalar> 
2838
(
0.0002443467239450191
0.0002443467239450188
0.0002443467239450189
0.0002443467239450189
0.000244346723945019
0.0002443467239450189
0.0002443467239450191
0.0002443467239450187
0.0002443467239450187
0.000244346723945019
0.0002443467239450187
0.0002443467239450193
0.0002443467239450186
0.0002443467239450188
0.000244346723945019
0.0002443467239450185
0.0002443467239450191
0.0002443467239450188
0.000244346723945019
0.0002443467239450183
0.0002443467239450188
0.000244346723945019
0.0002443467239450193
0.0002443467239450188
0.0002443467239450183
0.0002443467239450194
0.0002443467239450182
0.0002443467239450192
0.0002443467239450179
0.0002443467239450194
0.0002443467239450184
0.0002443467239450188
0.0002443467239450192
0.0002443467239450187
0.000244346723945018
0.0002443467239450191
0.0002443467239450195
0.0002443467239450188
0.0002443467239450178
0.0002443467239450186
0.0002443467239450188
0.0002443467239450188
0.0002443467239450186
0.0002443467239450187
0.0002443467239450188
0.0002443467239450188
0.0002443467239450187
0.0002443467239450196
0.000244346723945018
0.0002443467239450188
0.0002443467239450188
0.0002443467239450195
0.0002443467239450188
0.0002443467239450188
0.000244346723945018
0.0002443467239450195
0.000244346723945018
0.0002443467239450179
0.0002443467239450196
0.0002443467239450188
0.0002443467239450189
0.0002443467239450187
0.0002443467239450187
0.0002443467239450186
0.0002443467239450189
0.0002443467239450196
0.0001486800593394381
0.0001486800593394348
0.0001486800593394349
0.0001486800593394305
0.0001486800593394293
0.0001486800593394303
0.000148680059339428
0.0001486800593394282
0.0001486800593394287
0.0001486800593394288
0.0001486800593394312
0.0001486800593394291
0.0001486800593394294
0.0001486800593394321
0.0001486800593394306
0.0001486800593394298
0.0001486800593394326
0.0001486800593394298
0.0001486800593394296
0.0001486800593394328
0.0001486800593394298
0.0001486800593394297
0.0001486800593394343
0.0001486800593394304
0.0001486800593394307
0.0001486800593394328
0.0001486800593394327
0.0001486800593394361
0.0001486800593394328
0.0001486800593394326
0.0001486800593394353
0.0001486800593394347
0.0001486800593394352
0.0001486800593394387
0.0001486800593394353
0.000148680059339435
0.0001486800593394383
0.0001486800593394362
0.0001486800593394363
0.0001486800593394384
0.0001486800593394363
0.0001486800593394352
0.0001486800593394381
0.0001486800593394344
0.000148680059339435
0.0001486800593394344
0.0001486800593394378
0.0001486800593394336
0.0001486800593394332
0.000148680059339431
0.0001486800593394314
0.0001486800593394342
0.0001486800593394323
0.0001486800593394291
0.0001486800593394326
0.0001486800593394296
0.0001486800593394294
0.0001486800593394295
0.0001486800593394334
0.0001486800593394274
0.0001486800593394252
0.0001486800593394243
0.0001486800593394278
0.0001486800593394269
0.0001486800593394291
0.0001486800593394255
0.0005987799663392482
0.0005987799663392415
0.0005987799663392427
0.0005987799663392303
0.000598779966339226
0.0005987799663392269
0.0005987799663392231
0.0005987799663392259
0.0005987799663392236
0.0005987799663392224
0.0005987799663392302
0.0005987799663392277
0.0005987799663392269
0.000598779966339233
0.0005987799663392295
0.0005987799663392275
0.0005987799663392356
0.0005987799663392283
0.0005987799663392276
0.0005987799663392364
0.0005987799663392313
0.0005987799663392294
0.0005987799663392375
0.0005987799663392324
0.0005987799663392329
0.000598779966339233
0.0005987799663392329
0.0005987799663392442
0.00059877996633924
0.0005987799663392383
0.0005987799663392436
0.0005987799663392422
0.0005987799663392449
0.0005987799663392542
0.0005987799663392479
0.0005987799663392465
0.0005987799663392509
0.0005987799663392516
0.0005987799663392505
0.0005987799663392559
0.0005987799663392477
0.0005987799663392484
0.000598779966339253
0.0005987799663392452
0.000598779966339245
0.000598779966339242
0.0005987799663392503
0.000598779966339243
0.0005987799663392314
0.0005987799663392295
0.0005987799663392343
0.0005987799663392428
0.0005987799663392399
0.0005987799663392322
0.0005987799663392333
0.000598779966339232
0.0005987799663392336
0.000598779966339236
0.0005987799663392403
0.0005987799663392266
0.0005987799663392196
0.0005987799663392177
0.0005987799663392204
0.0005987799663392194
0.0005987799663392223
0.0005987799663392177
0.0009300173050869576
0.000930017305086954
0.0009300173050869568
0.0009300173050869446
0.0009300173050869365
0.0009300173050869295
0.0009300173050869277
0.0009300173050869369
0.0009300173050869364
0.000930017305086931
0.0009300173050869398
0.0009300173050869381
0.0009300173050869321
0.0009300173050869419
0.0009300173050869394
0.0009300173050869342
0.0009300173050869467
0.0009300173050869417
0.0009300173050869369
0.0009300173050869477
0.0009300173050869436
0.0009300173050869383
0.0009300173050869485
0.0009300173050869464
0.0009300173050869475
0.0009300173050869514
0.0009300173050869481
0.0009300173050869611
0.0009300173050869578
0.0009300173050869556
0.000930017305086965
0.0009300173050869647
0.0009300173050869661
0.0009300173050869746
0.0009300173050869688
0.000930017305086972
0.0009300173050869758
0.0009300173050869787
0.0009300173050869762
0.000930017305086984
0.0009300173050869739
0.0009300173050869745
0.0009300173050869782
0.0009300173050869697
0.0009300173050869651
0.0009300173050869658
0.0009300173050869732
0.0009300173050869738
0.0009300173050869568
0.0009300173050869456
0.0009300173050869524
0.0009300173050869627
0.0009300173050869623
0.0009300173050869523
0.000930017305086942
0.0009300173050869498
0.0009300173050869449
0.0009300173050869528
0.0009300173050869555
0.0009300173050869437
0.0009300173050869323
0.0009300173050869312
0.0009300173050869232
0.0009300173050869357
0.0009300173050869288
0.0009300173050869187
0.001274672472132683
0.001274672472132683
0.001274672472132683
0.00127467247213267
0.001274672472132674
0.001274672472132661
0.001274672472132645
0.00127467247213266
0.001274672472132666
0.001274672472132645
0.001274672472132661
0.001274672472132661
0.001274672472132654
0.001274672472132665
0.001274672472132661
0.001274672472132657
0.001274672472132671
0.001274672472132669
0.001274672472132659
0.001274672472132671
0.001274672472132675
0.001274672472132666
0.001274672472132679
0.001274672472132678
0.001274672472132671
0.001274672472132685
0.001274672472132678
0.001274672472132695
0.00127467247213269
0.001274672472132686
0.001274672472132703
0.0012746724721327
0.001274672472132708
0.001274672472132717
0.001274672472132701
0.001274672472132723
0.001274672472132728
0.001274672472132733
0.001274672472132723
0.001274672472132734
0.001274672472132726
0.001274672472132731
0.001274672472132728
0.001274672472132719
0.001274672472132716
0.00127467247213272
0.001274672472132719
0.001274672472132722
0.001274672472132717
0.001274672472132686
0.0012746724721327
0.0012746724721327
0.001274672472132705
0.001274672472132697
0.001274672472132677
0.001274672472132688
0.001274672472132678
0.001274672472132688
0.001274672472132685
0.001274672472132684
0.001274672472132662
0.001274672472132663
0.001274672472132641
0.001274672472132659
0.00127467247213265
0.001274672472132638
0.001719115133596881
0.001719115133596895
0.001719115133596879
0.001719115133596851
0.001719115133596865
0.001719115133596872
0.001719115133596819
0.001719115133596848
0.001719115133596843
0.00171911513359682
0.00171911513359685
0.001719115133596841
0.001719115133596821
0.001719115133596853
0.001719115133596838
0.001719115133596826
0.00171911513359685
0.001719115133596866
0.001719115133596827
0.00171911513359686
0.001719115133596852
0.00171911513359685
0.001719115133596882
0.001719115133596864
0.001719115133596858
0.001719115133596876
0.00171911513359687
0.001719115133596892
0.001719115133596906
0.001719115133596875
0.001719115133596919
0.00171911513359692
0.00171911513359691
0.001719115133596931
0.001719115133596911
0.001719115133596941
0.001719115133596954
0.001719115133596976
0.001719115133596944
0.001719115133596973
0.001719115133596947
0.00171911513359696
0.001719115133596979
0.001719115133596935
0.001719115133596945
0.001719115133596941
0.001719115133596942
0.001719115133596943
0.00171911513359695
0.00171911513359691
0.001719115133596926
0.001719115133596912
0.001719115133596913
0.001719115133596909
0.001719115133596883
0.001719115133596888
0.001719115133596864
0.001719115133596892
0.001719115133596879
0.001719115133596894
0.00171911513359685
0.001719115133596867
0.001719115133596827
0.001719115133596857
0.001719115133596829
0.001719115133596809
0.002326357134107458
0.002326357134107504
0.002326357134107419
0.002326357134107409
0.002326357134107393
0.002326357134107412
0.00232635713410736
0.002326357134107419
0.002326357134107385
0.002326357134107348
0.002326357134107381
0.002326357134107435
0.002326357134107334
0.002326357134107382
0.002326357134107437
0.002326357134107344
0.002326357134107426
0.002326357134107402
0.002326357134107372
0.00232635713410744
0.002326357134107415
0.002326357134107392
0.002326357134107434
0.00232635713410749
0.002326357134107403
0.002326357134107439
0.002326357134107431
0.002326357134107498
0.002326357134107468
0.002326357134107458
0.00232635713410754
0.00232635713410751
0.002326357134107511
0.002326357134107556
0.002326357134107517
0.002326357134107552
0.002326357134107576
0.002326357134107599
0.002326357134107605
0.002326357134107635
0.002326357134107575
0.002326357134107626
0.002326357134107605
0.00232635713410756
0.002326357134107596
0.00232635713410755
0.002326357134107542
0.002326357134107601
0.002326357134107565
0.002326357134107518
0.002326357134107557
0.002326357134107479
0.002326357134107525
0.002326357134107564
0.002326357134107535
0.002326357134107456
0.002326357134107418
0.002326357134107454
0.002326357134107455
0.00232635713410748
0.002326357134107428
0.002326357134107422
0.002326357134107376
0.002326357134107404
0.002326357134107428
0.002326357134107319
0.003040321181778281
0.003040321181778302
0.003040321181778248
0.003040321181778149
0.003040321181778176
0.00304032118177822
0.003040321181778089
0.003040321181778154
0.003040321181778241
0.003040321181778058
0.003040321181778191
0.003040321181778162
0.003040321181778097
0.003040321181778202
0.003040321181778172
0.003040321181778117
0.003040321181778186
0.003040321181778276
0.003040321181778109
0.003040321181778203
0.003040321181778305
0.003040321181778147
0.003040321181778288
0.00304032118177827
0.00304032118177822
0.003040321181778254
0.003040321181778238
0.003040321181778374
0.003040321181778285
0.003040321181778288
0.003040321181778379
0.003040321181778492
0.00304032118177835
0.003040321181778436
0.003040321181778391
0.003040321181778523
0.003040321181778489
0.003040321181778473
0.003040321181778549
0.003040321181778652
0.003040321181778453
0.003040321181778576
0.003040321181778529
0.003040321181778451
0.00304032118177853
0.003040321181778396
0.003040321181778421
0.00304032118177855
0.003040321181778455
0.003040321181778395
0.003040321181778456
0.00304032118177831
0.003040321181778439
0.003040321181778389
0.0030403211817785
0.00304032118177833
0.003040321181778236
0.003040321181778245
0.003040321181778259
0.003040321181778263
0.003040321181778314
0.003040321181778171
0.003040321181778119
0.003040321181778163
0.003040321181778242
0.003040321181778047
0.003731434359271913
0.003731434359271789
0.003731434359271851
0.003731434359271517
0.003731434359271701
0.00373143435927159
0.003731434359271496
0.003731434359271553
0.003731434359271693
0.003731434359271419
0.003731434359271645
0.00373143435927158
0.0037314343592715
0.003731434359271682
0.003731434359271616
0.003731434359271537
0.003731434359271637
0.003731434359271807
0.003731434359271543
0.003731434359271673
0.00373143435927186
0.003731434359271605
0.003731434359271836
0.003731434359271766
0.003731434359271707
0.00373143435927176
0.003731434359271747
0.003731434359271864
0.003731434359272016
0.003731434359271801
0.003731434359272046
0.003731434359271994
0.003731434359271953
0.00373143435927201
0.003731434359271994
0.003731434359272132
0.003731434359272261
0.003731434359272045
0.003731434359272284
0.003731434359272202
0.003731434359272098
0.003731434359272251
0.003731434359272155
0.00373143435927204
0.003731434359272041
0.003731434359272001
0.003731434359272165
0.00373143435927207
0.003731434359271999
0.003731434359271971
0.003731434359271909
0.003731434359271926
0.003731434359271896
0.003731434359272039
0.003731434359272074
0.003731434359271891
0.00373143435927178
0.003731434359271735
0.003731434359271744
0.003731434359271676
0.003731434359271809
0.003731434359271625
0.003731434359271495
0.003731434359271658
0.003731434359271543
0.003731434359271438
0.00431726247075634
0.004317262470756294
0.004317262470756317
0.004317262470756065
0.004317262470756256
0.004317262470755994
0.004317262470755927
0.00431726247075596
0.004317262470756012
0.00431726247075586
0.004317262470756037
0.004317262470756169
0.004317262470755939
0.004317262470756111
0.004317262470756329
0.004317262470755995
0.0043172624707563
0.004317262470756237
0.004317262470756127
0.004317262470756384
0.004317262470756335
0.004317262470756227
0.004317262470756378
0.004317262470756525
0.004317262470756263
0.004317262470756368
0.004317262470756374
0.004317262470756677
0.004317262470756544
0.004317262470756501
0.004317262470756682
0.004317262470756647
0.004317262470756674
0.004317262470756928
0.00431726247075668
0.004317262470756894
0.004317262470757114
0.004317262470756771
0.004317262470757094
0.004317262470756859
0.004317262470756807
0.004317262470756995
0.004317262470756891
0.004317262470756721
0.004317262470756788
0.004317262470756659
0.004317262470756867
0.004317262470756814
0.004317262470756684
0.004317262470756768
0.004317262470756438
0.004317262470756462
0.004317262470756471
0.004317262470756633
0.004317262470756525
0.004317262470756759
0.004317262470756476
0.004317262470756224
0.004317262470756279
0.00431726247075618
0.004317262470756182
0.004317262470756086
0.004317262470755879
0.004317262470756008
0.004317262470756133
0.004317262470755761
0.004783160196768267
0.004783160196768253
0.004783160196768249
0.004783160196768068
0.004783160196768157
0.004783160196768331
0.004783160196767834
0.004783160196768178
0.004783160196768057
0.004783160196767896
0.004783160196768055
0.004783160196768365
0.004783160196767926
0.004783160196768339
0.00478316019676823
0.004783160196768127
0.004783160196768497
0.004783160196768363
0.004783160196768248
0.004783160196768617
0.004783160196768501
0.00478316019676839
0.004783160196768583
0.004783160196768449
0.004783160196768756
0.004783160196768655
0.004783160196768586
0.004783160196768819
0.004783160196769087
0.004783160196768704
0.004783160196768939
0.004783160196768847
0.004783160196769229
0.004783160196769158
0.004783160196769133
0.004783160196769284
0.004783160196769473
0.004783160196769076
0.004783160196769332
0.004783160196769497
0.004783160196769014
0.004783160196769203
0.004783160196769414
0.004783160196768889
0.004783160196769021
0.004783160196768883
0.004783160196769123
0.004783160196768966
0.004783160196769112
0.004783160196768986
0.004783160196768936
0.004783160196768483
0.004783160196768528
0.00478316019676859
0.00478316019676858
0.004783160196768868
0.004783160196768491
0.00478316019676875
0.004783160196768264
0.004783160196768378
0.004783160196768273
0.004783160196767855
0.004783160196767798
0.004783160196767967
0.004783160196768188
0.004783160196767628
0.005142134909522003
0.005142134909521956
0.00514213490952195
0.005142134909521771
0.005142134909522107
0.005142134909521875
0.005142134909521642
0.005142134909522016
0.005142134909521863
0.005142134909521675
0.005142134909522094
0.00514213490952192
0.005142134909521841
0.005142134909522115
0.005142134909522499
0.005142134909521995
0.005142134909522336
0.005142134909522614
0.005142134909522151
0.005142134909522499
0.005142134909522775
0.005142134909522356
0.005142134909522669
0.005142134909522512
0.005142134909522738
0.005142134909523034
0.005142134909522637
0.005142134909523127
0.00514213490952304
0.00514213490952291
0.005142134909523007
0.00514213490952298
0.005142134909523335
0.00514213490952334
0.005142134909523512
0.005142134909523424
0.0051421349095234
0.005142134909523341
0.005142134909523762
0.005142134909523427
0.005142134909523199
0.00514213490952333
0.005142134909523644
0.00514213490952301
0.005142134909523029
0.005142134909523237
0.005142134909522697
0.005142134909523173
0.005142134909522955
0.005142134909522767
0.005142134909522702
0.005142134909522895
0.005142134909522602
0.005142134909522417
0.005142134909522521
0.005142134909522491
0.005142134909522222
0.005142134909522257
0.00514213490952242
0.005142134909521854
0.00514213490952192
0.005142134909521941
0.005142134909521344
0.005142134909521624
0.005142134909521943
0.00514213490952124
0.005410010474498976
0.005410010474498897
0.005410010474498842
0.005410010474498684
0.00541001047449889
0.00541001047449916
0.005410010474498607
0.005410010474499106
0.005410010474498969
0.005410010474498775
0.00541001047449934
0.005410010474499217
0.005410010474499083
0.005410010474499646
0.005410010474499537
0.005410010474499415
0.005410010474499754
0.005410010474500196
0.005410010474499578
0.005410010474499955
0.005410010474499791
0.00541001047450024
0.005410010474500165
0.005410010474500007
0.005410010474500085
0.005410010474500137
0.005410010474500278
0.005410010474500364
0.00541001047450046
0.005410010474500466
0.005410010474500525
0.005410010474500495
0.005410010474500697
0.005410010474500747
0.005410010474500932
0.005410010474501208
0.005410010474500547
0.005410010474500835
0.005410010474501304
0.0054100104745006
0.005410010474500622
0.005410010474500602
0.005410010474500866
0.005410010474501019
0.005410010474500627
0.005410010474500475
0.005410010474499826
0.005410010474500179
0.005410010474500552
0.005410010474500422
0.005410010474499852
0.0054100104744998
0.005410010474499895
0.005410010474500081
0.005410010474499951
0.005410010474499224
0.005410010474499165
0.00541001047449925
0.005410010474499566
0.005410010474498917
0.005410010474499078
0.005410010474498936
0.005410010474498223
0.005410010474498539
0.005410010474498954
0.005410010474498122
0.005600100859100508
0.00560010085910086
0.00560010085910021
0.005600100859100075
0.005600100859100263
0.00560010085910033
0.005600100859100654
0.005600100859100688
0.005600100859100948
0.005600100859100683
0.005600100859101135
0.00560010085910157
0.00560010085910106
0.005600100859101858
0.005600100859101698
0.005600100859101588
0.005600100859102006
0.005600100859102582
0.00560010085910186
0.00560010085910226
0.005600100859102072
0.00560010085910244
0.005600100859102732
0.0056001008591023
0.005600100859102344
0.005600100859102291
0.005600100859102644
0.005600100859102601
0.005600100859102532
0.005600100859102837
0.00560010085910332
0.005600100859102702
0.005600100859102987
0.005600100859103375
0.005600100859103223
0.00560010085910326
0.005600100859102486
0.005600100859103184
0.005600100859102976
0.005600100859102705
0.005600100859102545
0.005600100859102472
0.005600100859102784
0.005600100859103166
0.005600100859102372
0.005600100859101978
0.005600100859101937
0.005600100859101783
0.005600100859101971
0.005600100859102361
0.005600100859102094
0.005600100859101681
0.005600100859101547
0.005600100859101414
0.005600100859101753
0.005600100859100871
0.005600100859100792
0.005600100859101312
0.005600100859100836
0.005600100859101155
0.005600100859100041
0.005600100859100006
0.005600100859099817
0.005600100859100367
0.005600100859100122
0.005600100859099689
0.005723522578116094
0.005723522578116043
0.00572352257811598
0.005723522578115882
0.005723522578116079
0.005723522578116163
0.005723522578117295
0.00572352257811766
0.005723522578117229
0.005723522578117052
0.005723522578117601
0.005723522578117697
0.005723522578117575
0.005723522578118549
0.005723522578118134
0.005723522578118181
0.00572352257811904
0.005723522578118744
0.005723522578118639
0.005723522578118845
0.005723522578118803
0.005723522578119149
0.005723522578119694
0.00572352257811959
0.005723522578119516
0.005723522578118613
0.005723522578119149
0.00572352257811962
0.005723522578118911
0.005723522578119313
0.005723522578119373
0.005723522578119521
0.00572352257811937
0.005723522578119404
0.005723522578119199
0.005723522578119205
0.005723522578118832
0.005723522578119421
0.005723522578118962
0.005723522578119622
0.005723522578118477
0.005723522578118326
0.005723522578119034
0.005723522578118785
0.005723522578118376
0.005723522578118214
0.005723522578118432
0.005723522578117657
0.005723522578118007
0.00572352257811785
0.005723522578118074
0.005723522578118331
0.005723522578117405
0.005723522578117464
0.00572352257811702
0.005723522578117031
0.005723522578116643
0.00572352257811711
0.005723522578116372
0.005723522578116764
0.005723522578115477
0.005723522578115489
0.005723522578115323
0.005723522578115631
0.005723522578116156
0.00572352257811503
0.005790011585462535
0.005790011585462402
0.005790011585463227
0.005790011585462381
0.005790011585463026
0.005790011585463254
0.005790011585464581
0.005790011585465194
0.005790011585464664
0.005790011585464737
0.005790011585465783
0.005790011585465603
0.005790011585465431
0.005790011585466038
0.005790011585466793
0.00579001158546585
0.005790011585466848
0.00579001158546596
0.005790011585466976
0.005790011585466765
0.005790011585466583
0.005790011585466752
0.005790011585466845
0.005790011585467199
0.005790011585467422
0.005790011585466043
0.005790011585467202
0.005790011585466379
0.005790011585466626
0.005790011585466494
0.005790011585466596
0.00579001158546669
0.005790011585467027
0.00579001158546688
0.00579001158546691
0.00579001158546577
0.005790011585465909
0.005790011585465838
0.005790011585465911
0.005790011585466479
0.005790011585465107
0.00579001158546542
0.00579001158546514
0.005790011585465335
0.005790011585465156
0.005790011585465163
0.005790011585465095
0.005790011585464406
0.005790011585464752
0.005790011585464509
0.005790011585464792
0.005790011585464146
0.005790011585463968
0.005790011585463896
0.005790011585463493
0.005790011585463876
0.005790011585463296
0.005790011585462791
0.005790011585462615
0.005790011585463047
0.005790011585461733
0.005790011585461879
0.005790011585461557
0.005790011585462243
0.005790011585461864
0.005790011585461322
0.005808595752210562
0.005808595752210279
0.005808595752211231
0.00580859575221159
0.0058085957522126
0.005808595752212689
0.005808595752214582
0.005808595752214668
0.005808595752215403
0.005808595752214376
0.005808595752215235
0.005808595752216067
0.005808595752215069
0.005808595752216208
0.005808595752215926
0.005808595752215592
0.005808595752216477
0.005808595752215232
0.005808595752216665
0.005808595752216945
0.005808595752216083
0.005808595752215922
0.0058085957522162
0.00580859575221682
0.005808595752215675
0.005808595752215165
0.005808595752215256
0.005808595752215142
0.00580859575221551
0.005808595752215134
0.005808595752215363
0.00580859575221542
0.005808595752216209
0.005808595752215802
0.005808595752214474
0.005808595752214393
0.005808595752214585
0.005808595752214391
0.00580859575221452
0.005808595752214753
0.005808595752213062
0.005808595752213308
0.005808595752213143
0.005808595752213561
0.005808595752213349
0.005808595752213659
0.005808595752214298
0.005808595752212324
0.005808595752212716
0.005808595752212301
0.005808595752212447
0.005808595752211793
0.005808595752211813
0.005808595752212447
0.005808595752211067
0.005808595752211147
0.005808595752211578
0.00580859575221004
0.005808595752210407
0.005808595752209966
0.005808595752209517
0.005808595752209635
0.005808595752208994
0.005808595752209311
0.005808595752209934
0.00580859575220855
0.00578819311881673
0.005788193118816851
0.00578819311881906
0.005788193118821271
0.005788193118822444
0.005788193118821744
0.005788193118823082
0.005788193118824378
0.005788193118823484
0.005788193118823366
0.00578819311882501
0.005788193118824443
0.005788193118824087
0.005788193118824897
0.005788193118823792
0.005788193118823763
0.005788193118823923
0.005788193118823725
0.00578819311882439
0.005788193118824406
0.005788193118824581
0.005788193118823758
0.005788193118823873
0.005788193118823537
0.00578819311882339
0.005788193118822518
0.005788193118822406
0.005788193118822159
0.005788193118822138
0.005788193118822012
0.005788193118823119
0.005788193118822426
0.005788193118823262
0.005788193118822081
0.005788193118820869
0.005788193118821965
0.005788193118821412
0.005788193118822383
0.005788193118822124
0.005788193118821543
0.005788193118819221
0.005788193118819352
0.005788193118819249
0.005788193118819666
0.005788193118819387
0.00578819311881939
0.005788193118820108
0.005788193118818548
0.005788193118818726
0.005788193118817951
0.005788193118817905
0.005788193118817665
0.005788193118817885
0.005788193118818699
0.005788193118818366
0.005788193118816757
0.00578819311881757
0.005788193118815412
0.005788193118816586
0.005788193118815834
0.005788193118816493
0.005788193118815185
0.005788193118814648
0.005788193118815423
0.00578819311881448
0.005788193118814182
0.005738254587862815
0.005738254587864978
0.005738254587867972
0.005738254587871177
0.005738254587872909
0.005738254587873188
0.005738254587872148
0.005738254587873195
0.005738254587873787
0.005738254587872032
0.005738254587873645
0.005738254587872889
0.005738254587872729
0.005738254587872045
0.005738254587871806
0.005738254587871249
0.005738254587871592
0.00573825458787104
0.00573825458787143
0.005738254587871518
0.005738254587871498
0.005738254587871683
0.005738254587871127
0.005738254587870468
0.005738254587870124
0.005738254587868495
0.005738254587868869
0.005738254587868225
0.005738254587868001
0.005738254587867838
0.00573825458786919
0.005738254587868086
0.005738254587867175
0.005738254587866734
0.005738254587866293
0.005738254587867669
0.005738254587866987
0.00573825458786759
0.005738254587867442
0.0057382545878664
0.005738254587864574
0.005738254587864088
0.005738254587864262
0.005738254587865362
0.005738254587864027
0.005738254587863775
0.005738254587863949
0.00573825458786476
0.005738254587863018
0.005738254587862464
0.005738254587862496
0.0057382545878623
0.005738254587863612
0.005738254587862927
0.005738254587863813
0.005738254587860803
0.005738254587860648
0.005738254587860122
0.00573825458786069
0.005738254587861596
0.005738254587859671
0.005738254587860031
0.005738254587860654
0.00573825458786009
0.005738254587859898
0.005738254587858433
0.005669657936657073
0.005669657936663561
0.005669657936668903
0.005669657936671712
0.005669657936672237
0.005669657936672438
0.00566965793667179
0.00566965793667193
0.005669657936672259
0.00566965793666972
0.005669657936669757
0.005669657936670666
0.005669657936668552
0.005669657936668751
0.00566965793666919
0.005669657936666161
0.005669657936666296
0.005669657936666178
0.005669657936667532
0.005669657936666547
0.005669657936667028
0.005669657936666557
0.005669657936665742
0.005669657936662994
0.005669657936664506
0.005669657936662873
0.00566965793666229
0.00566965793666257
0.005669657936661585
0.005669657936662503
0.005669657936662761
0.005669657936661335
0.00566965793665994
0.005669657936659646
0.005669657936659252
0.005669657936660064
0.005669657936659886
0.005669657936660332
0.005669657936660204
0.005669657936657991
0.005669657936658102
0.005669657936657293
0.005669657936656927
0.005669657936657043
0.005669657936656441
0.005669657936656596
0.005669657936656267
0.005669657936656814
0.005669657936657364
0.005669657936654728
0.005669657936654809
0.005669657936654673
0.005669657936655522
0.005669657936656468
0.005669657936655451
0.005669657936654463
0.005669657936652671
0.005669657936652229
0.005669657936653869
0.005669657936653231
0.005669657936652108
0.005669657936653288
0.005669657936652484
0.005669657936651699
0.005669657936652756
0.005669657936651168
0.005596663422353734
0.005596663422367343
0.005596663422371184
0.005596663422369615
0.005596663422368103
0.005596663422367383
0.005596663422365298
0.005596663422364498
0.005596663422363916
0.00559666342236156
0.005596663422361458
0.005596663422361686
0.005596663422358622
0.005596663422358915
0.005596663422359771
0.005596663422354737
0.005596663422355024
0.005596663422356148
0.005596663422353852
0.005596663422354087
0.005596663422354849
0.005596663422354947
0.005596663422353132
0.005596663422350621
0.005596663422350338
0.005596663422350909
0.005596663422350376
0.005596663422350927
0.005596663422349617
0.005596663422349894
0.005596663422349395
0.005596663422349044
0.00559666342234726
0.00559666342234686
0.005596663422346624
0.00559666342234742
0.005596663422346881
0.005596663422347299
0.005596663422345899
0.005596663422345717
0.005596663422346755
0.005596663422346096
0.005596663422343627
0.005596663422344497
0.005596663422343618
0.005596663422343875
0.005596663422342958
0.005596663422343609
0.005596663422344603
0.005596663422341667
0.005596663422341957
0.005596663422341662
0.005596663422343306
0.005596663422342235
0.005596663422340643
0.005596663422340855
0.005596663422339938
0.005596663422339758
0.005596663422340447
0.005596663422341574
0.005596663422338568
0.005596663422340396
0.00559666342233918
0.005596663422338632