/*--------------------------------*- C++ -*----------------------------------*\
| =========                 |                                                 |
| \\      /  F ield         | OpenFOAM: The Open Source CFD Toolbox           |
|  \\    /   O peration     | Version:  v1812                                 |
|   \\  /    A nd           | Web:      www.OpenFOAM.com                      |
|    \\/     M anipulation  |                                                 |
\*---------------------------------------------------------------------------*/
FoamFile
{
    version     2.0;
    format      ascii;
    class       volScalarField;
    location    "10000";
    object      nuTilda;
}
// * * * * * * * * * * * * * * * * * * * * * * * * * * * * * * * * * * * * * //

dimensions      [0 2 -1 0 0 0 0];


internalField   nonuniform List<scalar> 
2838
(
0.0004765976998042067
0.0004765976998042065
0.0004765976998042065
0.0004765976998042065
0.0004765976998042067
0.0004765976998042067
0.0004765976998042068
0.0004765976998042064
0.0004765976998042063
0.0004765976998042066
0.0004765976998042063
0.0004765976998042069
0.0004765976998042063
0.0004765976998042065
0.0004765976998042067
0.0004765976998042063
0.0004765976998042067
0.0004765976998042064
0.0004765976998042067
0.0004765976998042062
0.0004765976998042064
0.0004765976998042066
0.000476597699804207
0.0004765976998042065
0.0004765976998042061
0.000476597699804207
0.0004765976998042063
0.0004765976998042068
0.0004765976998042057
0.000476597699804207
0.0004765976998042063
0.0004765976998042064
0.0004765976998042067
0.0004765976998042065
0.0004765976998042058
0.0004765976998042068
0.0004765976998042071
0.0004765976998042064
0.0004765976998042058
0.0004765976998042063
0.0004765976998042065
0.0004765976998042064
0.0004765976998042063
0.0004765976998042065
0.0004765976998042065
0.0004765976998042065
0.0004765976998042063
0.0004765976998042072
0.0004765976998042058
0.0004765976998042065
0.0004765976998042064
0.0004765976998042071
0.0004765976998042064
0.0004765976998042065
0.0004765976998042058
0.000476597699804207
0.0004765976998042058
0.0004765976998042058
0.0004765976998042071
0.0004765976998042064
0.0004765976998042066
0.0004765976998042066
0.0004765976998042064
0.0004765976998042064
0.0004765976998042065
0.0004765976998042071
0.0003956662274181858
0.0003956662274181824
0.0003956662274181826
0.0003956662274181788
0.0003956662274181779
0.0003956662274181787
0.0003956662274181775
0.0003956662274181775
0.0003956662274181763
0.0003956662274181751
0.0003956662274181793
0.0003956662274181786
0.0003956662274181781
0.0003956662274181802
0.0003956662274181785
0.0003956662274181781
0.0003956662274181809
0.000395666227418178
0.0003956662274181782
0.0003956662274181812
0.0003956662274181796
0.0003956662274181789
0.0003956662274181825
0.0003956662274181788
0.0003956662274181797
0.0003956662274181807
0.0003956662274181805
0.0003956662274181841
0.0003956662274181809
0.0003956662274181814
0.0003956662274181831
0.0003956662274181818
0.0003956662274181833
0.0003956662274181867
0.0003956662274181831
0.0003956662274181837
0.0003956662274181861
0.0003956662274181844
0.0003956662274181843
0.0003956662274181862
0.000395666227418184
0.0003956662274181832
0.000395666227418186
0.0003956662274181834
0.0003956662274181837
0.0003956662274181825
0.0003956662274181856
0.0003956662274181817
0.0003956662274181799
0.0003956662274181792
0.0003956662274181799
0.0003956662274181824
0.000395666227418181
0.000395666227418178
0.0003956662274181806
0.0003956662274181786
0.0003956662274181781
0.0003956662274181787
0.000395666227418182
0.0003956662274181767
0.0003956662274181742
0.0003956662274181736
0.0003956662274181766
0.0003956662274181755
0.0003956662274181774
0.0003956662274181745
0.0007467445826648656
0.0007467445826648599
0.0007467445826648608
0.0007467445826648515
0.0007467445826648484
0.0007467445826648487
0.0007467445826648472
0.00074674458266485
0.0007467445826648482
0.0007467445826648449
0.0007467445826648513
0.0007467445826648511
0.0007467445826648497
0.0007467445826648539
0.0007467445826648502
0.0007467445826648491
0.0007467445826648561
0.0007467445826648503
0.0007467445826648498
0.0007467445826648565
0.0007467445826648543
0.0007467445826648518
0.000746744582664857
0.0007467445826648531
0.0007467445826648547
0.0007467445826648537
0.0007467445826648527
0.0007467445826648624
0.0007467445826648586
0.0007467445826648583
0.0007467445826648609
0.000746744582664859
0.0007467445826648621
0.0007467445826648703
0.0007467445826648646
0.0007467445826648653
0.000746744582664869
0.0007467445826648699
0.0007467445826648677
0.0007467445826648712
0.0007467445826648644
0.0007467445826648661
0.0007467445826648699
0.0007467445826648648
0.0007467445826648634
0.0007467445826648618
0.0007467445826648676
0.0007467445826648624
0.0007467445826648515
0.0007467445826648504
0.0007467445826648552
0.0007467445826648614
0.0007467445826648595
0.0007467445826648542
0.000746744582664854
0.0007467445826648537
0.0007467445826648545
0.0007467445826648577
0.0007467445826648603
0.0007467445826648493
0.0007467445826648431
0.0007467445826648424
0.0007467445826648431
0.0007467445826648414
0.0007467445826648446
0.000746744582664842
0.001020153842932343
0.001020153842932339
0.001020153842932341
0.00102015384293233
0.001020153842932324
0.001020153842932317
0.001020153842932317
0.001020153842932326
0.001020153842932326
0.00102015384293232
0.001020153842932326
0.001020153842932326
0.00102015384293232
0.001020153842932328
0.001020153842932326
0.001020153842932322
0.001020153842932333
0.001020153842932328
0.001020153842932324
0.001020153842932334
0.001020153842932331
0.001020153842932326
0.001020153842932334
0.001020153842932332
0.001020153842932334
0.001020153842932338
0.001020153842932334
0.001020153842932345
0.001020153842932342
0.001020153842932341
0.001020153842932348
0.001020153842932349
0.00102015384293235
0.001020153842932356
0.00102015384293235
0.001020153842932354
0.001020153842932359
0.001020153842932361
0.00102015384293236
0.001020153842932366
0.001020153842932356
0.001020153842932357
0.001020153842932361
0.001020153842932353
0.001020153842932349
0.00102015384293235
0.001020153842932356
0.001020153842932357
0.001020153842932343
0.001020153842932332
0.001020153842932338
0.001020153842932346
0.001020153842932346
0.001020153842932338
0.001020153842932329
0.001020153842932335
0.001020153842932329
0.001020153842932338
0.001020153842932341
0.00102015384293233
0.001020153842932319
0.001020153842932319
0.001020153842932311
0.001020153842932323
0.001020153842932317
0.001020153842932309
0.001330375949139975
0.001330375949139975
0.001330375949139975
0.001330375949139961
0.001330375949139966
0.001330375949139955
0.001330375949139938
0.001330375949139953
0.00133037594913996
0.001330375949139939
0.001330375949139954
0.001330375949139953
0.001330375949139947
0.001330375949139957
0.001330375949139953
0.00133037594913995
0.001330375949139963
0.001330375949139962
0.001330375949139952
0.001330375949139963
0.001330375949139967
0.00133037594913996
0.001330375949139971
0.00133037594913997
0.001330375949139963
0.001330375949139976
0.00133037594913997
0.001330375949139986
0.00133037594913998
0.001330375949139977
0.001330375949139992
0.00133037594913999
0.001330375949139997
0.001330375949140006
0.001330375949139989
0.00133037594914001
0.001330375949140017
0.001330375949140022
0.001330375949140011
0.001330375949140022
0.001330375949140014
0.001330375949140019
0.001330375949140016
0.001330375949140008
0.001330375949140005
0.001330375949140009
0.001330375949140009
0.001330375949140012
0.001330375949140008
0.001330375949139977
0.00133037594913999
0.001330375949139989
0.001330375949139994
0.001330375949139987
0.001330375949139969
0.001330375949139979
0.001330375949139969
0.001330375949139978
0.001330375949139976
0.001330375949139975
0.001330375949139954
0.001330375949139956
0.001330375949139936
0.001330375949139952
0.001330375949139943
0.001330375949139933
0.001752008131959395
0.001752008131959409
0.001752008131959393
0.001752008131959365
0.001752008131959378
0.001752008131959387
0.001752008131959334
0.001752008131959363
0.001752008131959357
0.001752008131959336
0.001752008131959365
0.001752008131959355
0.001752008131959337
0.001752008131959368
0.001752008131959353
0.001752008131959342
0.001752008131959364
0.001752008131959381
0.001752008131959342
0.001752008131959375
0.001752008131959367
0.001752008131959365
0.001752008131959396
0.001752008131959378
0.001752008131959373
0.00175200813195939
0.001752008131959384
0.001752008131959405
0.00175200813195942
0.001752008131959389
0.001752008131959431
0.001752008131959432
0.001752008131959422
0.001752008131959444
0.001752008131959423
0.001752008131959452
0.001752008131959465
0.001752008131959488
0.001752008131959455
0.001752008131959483
0.001752008131959459
0.001752008131959471
0.001752008131959491
0.001752008131959446
0.001752008131959456
0.001752008131959453
0.001752008131959454
0.001752008131959454
0.001752008131959462
0.001752008131959424
0.001752008131959438
0.001752008131959424
0.001752008131959425
0.001752008131959421
0.001752008131959397
0.001752008131959401
0.001752008131959379
0.001752008131959407
0.001752008131959392
0.001752008131959407
0.001752008131959365
0.001752008131959381
0.001752008131959344
0.001752008131959372
0.001752008131959343
0.001752008131959326
0.002344922259708485
0.002344922259708531
0.002344922259708445
0.002344922259708436
0.002344922259708419
0.002344922259708438
0.002344922259708389
0.002344922259708446
0.002344922259708412
0.002344922259708377
0.002344922259708408
0.002344922259708463
0.002344922259708362
0.002344922259708409
0.002344922259708465
0.002344922259708372
0.002344922259708454
0.002344922259708428
0.0023449222597084
0.002344922259708468
0.002344922259708441
0.002344922259708419
0.002344922259708461
0.002344922259708517
0.00234492225970843
0.002344922259708466
0.002344922259708458
0.002344922259708525
0.002344922259708494
0.002344922259708484
0.002344922259708566
0.002344922259708535
0.002344922259708537
0.002344922259708581
0.002344922259708543
0.002344922259708577
0.002344922259708602
0.002344922259708623
0.002344922259708629
0.002344922259708658
0.0023449222597086
0.002344922259708651
0.002344922259708628
0.002344922259708585
0.002344922259708622
0.002344922259708573
0.002344922259708568
0.002344922259708626
0.002344922259708589
0.002344922259708544
0.002344922259708583
0.002344922259708504
0.00234492225970855
0.00234492225970859
0.002344922259708562
0.002344922259708483
0.002344922259708445
0.00234492225970848
0.002344922259708481
0.002344922259708505
0.002344922259708455
0.002344922259708449
0.002344922259708404
0.002344922259708431
0.002344922259708456
0.002344922259708347
0.003051332961535712
0.003051332961535732
0.003051332961535679
0.00305133296153558
0.003051332961535607
0.003051332961535652
0.003051332961535522
0.003051332961535585
0.003051332961535673
0.00305133296153549
0.003051332961535623
0.003051332961535593
0.00305133296153553
0.003051332961535634
0.003051332961535603
0.003051332961535549
0.003051332961535618
0.003051332961535708
0.003051332961535541
0.003051332961535634
0.003051332961535736
0.003051332961535578
0.003051332961535719
0.0030513329615357
0.003051332961535652
0.003051332961535685
0.00305133296153567
0.003051332961535805
0.003051332961535715
0.003051332961535719
0.003051332961535808
0.003051332961535922
0.00305133296153578
0.003051332961535866
0.003051332961535822
0.003051332961535953
0.003051332961535917
0.003051332961535903
0.003051332961535977
0.003051332961536081
0.003051332961535883
0.003051332961536006
0.003051332961535958
0.003051332961535881
0.00305133296153596
0.003051332961535825
0.003051332961535851
0.00305133296153598
0.003051332961535883
0.003051332961535826
0.003051332961535887
0.00305133296153574
0.00305133296153587
0.003051332961535818
0.00305133296153593
0.00305133296153576
0.003051332961535668
0.003051332961535676
0.00305133296153569
0.003051332961535694
0.003051332961535746
0.003051332961535602
0.003051332961535551
0.003051332961535594
0.003051332961535674
0.003051332961535479
0.00373878106350026
0.003738781063500135
0.003738781063500199
0.003738781063499864
0.003738781063500048
0.003738781063499937
0.003738781063499845
0.003738781063499901
0.003738781063500041
0.003738781063499767
0.003738781063499993
0.003738781063499927
0.003738781063499849
0.00373878106350003
0.003738781063499963
0.003738781063499885
0.003738781063499984
0.003738781063500155
0.003738781063499891
0.00373878106350002
0.003738781063500208
0.003738781063499952
0.003738781063500183
0.003738781063500112
0.003738781063500055
0.003738781063500107
0.003738781063500095
0.00373878106350021
0.003738781063500363
0.003738781063500148
0.003738781063500392
0.00373878106350034
0.003738781063500299
0.003738781063500356
0.00373878106350034
0.003738781063500478
0.003738781063500607
0.003738781063500391
0.00373878106350063
0.003738781063500546
0.003738781063500444
0.003738781063500597
0.0037387810635005
0.003738781063500386
0.003738781063500388
0.003738781063500347
0.003738781063500511
0.003738781063500415
0.003738781063500346
0.003738781063500317
0.003738781063500256
0.003738781063500272
0.003738781063500242
0.003738781063500386
0.003738781063500421
0.003738781063500236
0.003738781063500128
0.003738781063500082
0.003738781063500091
0.003738781063500023
0.003738781063500157
0.003738781063499972
0.003738781063499844
0.003738781063500006
0.00373878106349989
0.003738781063499786
0.004322762073350323
0.004322762073350278
0.004322762073350301
0.00432276207335005
0.004322762073350241
0.004322762073349979
0.004322762073349912
0.004322762073349945
0.004322762073349997
0.004322762073349845
0.004322762073350021
0.004322762073350153
0.004322762073349924
0.004322762073350095
0.004322762073350314
0.004322762073349981
0.004322762073350285
0.00432276207335022
0.004322762073350112
0.004322762073350368
0.004322762073350318
0.004322762073350211
0.004322762073350362
0.004322762073350509
0.004322762073350248
0.004322762073350353
0.004322762073350358
0.004322762073350661
0.004322762073350527
0.004322762073350484
0.004322762073350664
0.00432276207335063
0.004322762073350657
0.004322762073350911
0.004322762073350663
0.004322762073350877
0.004322762073351096
0.004322762073350753
0.004322762073351077
0.004322762073350841
0.00432276207335079
0.004322762073350977
0.004322762073350873
0.004322762073350705
0.004322762073350771
0.004322762073350642
0.004322762073350851
0.004322762073350798
0.004322762073350667
0.004322762073350753
0.004322762073350421
0.004322762073350445
0.004322762073350454
0.004322762073350616
0.004322762073350509
0.004322762073350743
0.004322762073350459
0.004322762073350209
0.004322762073350262
0.004322762073350164
0.004322762073350166
0.00432276207335007
0.004322762073349865
0.004322762073349994
0.004322762073350118
0.004322762073349746
0.00478764512939057
0.004787645129390556
0.004787645129390551
0.004787645129390371
0.004787645129390459
0.004787645129390633
0.004787645129390136
0.00478764512939048
0.004787645129390358
0.004787645129390198
0.004787645129390356
0.004787645129390668
0.004787645129390229
0.004787645129390642
0.004787645129390531
0.004787645129390429
0.004787645129390799
0.004787645129390663
0.00478764512939055
0.004787645129390918
0.004787645129390802
0.004787645129390693
0.004787645129390884
0.004787645129390752
0.004787645129391057
0.004787645129390956
0.004787645129390887
0.004787645129391119
0.004787645129391388
0.004787645129391004
0.004787645129391239
0.004787645129391147
0.00478764512939153
0.004787645129391458
0.004787645129391433
0.004787645129391583
0.004787645129391773
0.004787645129391375
0.004787645129391631
0.004787645129391798
0.004787645129391315
0.004787645129391504
0.004787645129391714
0.00478764512939119
0.004787645129391321
0.004787645129391184
0.004787645129391425
0.004787645129391265
0.004787645129391413
0.004787645129391288
0.004787645129391237
0.004787645129390785
0.004787645129390829
0.004787645129390891
0.004787645129390881
0.004787645129391169
0.004787645129390792
0.004787645129391052
0.004787645129390565
0.004787645129390681
0.004787645129390576
0.004787645129390158
0.0047876451293901
0.004787645129390269
0.004787645129390491
0.004787645129389931
0.005146017633424667
0.005146017633424621
0.005146017633424614
0.005146017633424435
0.005146017633424771
0.005146017633424539
0.005146017633424307
0.005146017633424682
0.005146017633424526
0.00514601763342434
0.005146017633424759
0.005146017633424584
0.005146017633424506
0.005146017633424779
0.005146017633425163
0.005146017633424659
0.005146017633424999
0.005146017633425279
0.005146017633424814
0.005146017633425162
0.005146017633425439
0.00514601763342502
0.005146017633425331
0.005146017633425176
0.005146017633425401
0.005146017633425697
0.0051460176334253
0.00514601763342579
0.005146017633425702
0.005146017633425573
0.005146017633425669
0.005146017633425643
0.005146017633425996
0.005146017633426002
0.005146017633426174
0.005146017633426086
0.005146017633426062
0.005146017633426004
0.005146017633426424
0.005146017633426089
0.005146017633425861
0.005146017633425992
0.005146017633426307
0.005146017633425673
0.005146017633425692
0.0051460176334259
0.005146017633425361
0.005146017633425835
0.005146017633425617
0.005146017633425431
0.005146017633425365
0.005146017633425559
0.005146017633425265
0.005146017633425081
0.005146017633425184
0.005146017633425154
0.005146017633424886
0.00514601763342492
0.005146017633425084
0.005146017633424519
0.005146017633424585
0.005146017633424606
0.00514601763342401
0.005146017633424289
0.005146017633424608
0.005146017633423905
0.005413519333220591
0.005413519333220512
0.005413519333220457
0.0054135193332203
0.005413519333220504
0.005413519333220776
0.005413519333220223
0.005413519333220722
0.005413519333220584
0.005413519333220391
0.005413519333220955
0.005413519333220831
0.005413519333220698
0.005413519333221261
0.005413519333221151
0.005413519333221029
0.005413519333221367
0.00541351933322181
0.005413519333221192
0.005413519333221568
0.005413519333221406
0.005413519333221854
0.005413519333221778
0.005413519333221621
0.005413519333221698
0.005413519333221751
0.005413519333221891
0.005413519333221977
0.005413519333222072
0.005413519333222079
0.005413519333222138
0.005413519333222108
0.00541351933322231
0.00541351933322236
0.005413519333222544
0.005413519333222821
0.005413519333222159
0.005413519333222447
0.005413519333222916
0.005413519333222212
0.005413519333222234
0.005413519333222214
0.005413519333222478
0.005413519333222632
0.005413519333222241
0.005413519333222089
0.005413519333221439
0.005413519333221792
0.005413519333222165
0.005413519333222036
0.005413519333221465
0.005413519333221413
0.005413519333221508
0.005413519333221694
0.005413519333221566
0.005413519333220838
0.00541351933322078
0.005413519333220864
0.005413519333221181
0.005413519333220532
0.005413519333220694
0.005413519333220552
0.005413519333219838
0.005413519333220154
0.00541351933322057
0.005413519333219738
0.00560337617628391
0.005603376176284262
0.00560337617628361
0.005603376176283477
0.005603376176283664
0.005603376176283732
0.005603376176284054
0.005603376176284089
0.005603376176284348
0.005603376176284085
0.005603376176284536
0.005603376176284971
0.00560337617628446
0.005603376176285257
0.005603376176285097
0.005603376176284988
0.005603376176285405
0.005603376176285982
0.00560337617628526
0.005603376176285659
0.005603376176285472
0.005603376176285839
0.005603376176286131
0.005603376176285699
0.005603376176285743
0.00560337617628569
0.005603376176286042
0.005603376176286
0.00560337617628593
0.005603376176286235
0.005603376176286719
0.0056033761762861
0.005603376176286385
0.005603376176286774
0.005603376176286622
0.005603376176286659
0.005603376176285885
0.005603376176286582
0.005603376176286374
0.005603376176286104
0.005603376176285944
0.005603376176285871
0.005603376176286182
0.005603376176286565
0.005603376176285771
0.005603376176285379
0.005603376176285336
0.005603376176285183
0.005603376176285371
0.00560337617628576
0.005603376176285492
0.00560337617628508
0.005603376176284947
0.005603376176284814
0.005603376176285153
0.005603376176284271
0.005603376176284193
0.005603376176284714
0.005603376176284236
0.005603376176284556
0.005603376176283444
0.005603376176283407
0.005603376176283219
0.005603376176283769
0.005603376176283523
0.005603376176283092
0.005726658508369501
0.00572665850836945
0.005726658508369386
0.005726658508369288
0.005726658508369486
0.00572665850836957
0.0057266585083707
0.005726658508371067
0.005726658508370633
0.005726658508370458
0.005726658508371005
0.005726658508371102
0.005726658508370981
0.005726658508371954
0.005726658508371538
0.005726658508371585
0.005726658508372444
0.005726658508372147
0.005726658508372043
0.005726658508372249
0.005726658508372206
0.005726658508372551
0.005726658508373097
0.005726658508372994
0.00572665850837292
0.005726658508372016
0.005726658508372551
0.005726658508373023
0.005726658508372315
0.005726658508372715
0.005726658508372775
0.005726658508372924
0.005726658508372773
0.005726658508372807
0.005726658508372603
0.005726658508372609
0.005726658508372236
0.005726658508372826
0.005726658508372365
0.005726658508373026
0.005726658508371879
0.00572665850837173
0.005726658508372438
0.005726658508372189
0.00572665850837178
0.005726658508371618
0.005726658508371838
0.005726658508371062
0.005726658508371411
0.005726658508371255
0.005726658508371479
0.005726658508371736
0.005726658508370811
0.00572665850837087
0.005726658508370426
0.005726658508370436
0.005726658508370049
0.005726658508370517
0.005726658508369778
0.00572665850837017
0.005726658508368885
0.005726658508368896
0.005726658508368731
0.005726658508369037
0.005726658508369563
0.005726658508368438
0.005793076078151978
0.005793076078151846
0.005793076078152671
0.005793076078151825
0.005793076078152468
0.005793076078152696
0.005793076078154023
0.005793076078154636
0.005793076078154105
0.005793076078154178
0.005793076078155224
0.005793076078155044
0.005793076078154872
0.005793076078155477
0.005793076078156234
0.00579307607815529
0.005793076078156288
0.005793076078155399
0.005793076078156417
0.005793076078156203
0.005793076078156023
0.005793076078156191
0.005793076078156285
0.005793076078156638
0.005793076078156862
0.005793076078155483
0.005793076078156641
0.005793076078155818
0.005793076078156065
0.005793076078155933
0.005793076078156035
0.005793076078156129
0.005793076078156465
0.005793076078156319
0.005793076078156351
0.00579307607815521
0.005793076078155349
0.005793076078155278
0.005793076078155351
0.00579307607815592
0.005793076078154548
0.00579307607815486
0.005793076078154582
0.005793076078154775
0.005793076078154597
0.005793076078154604
0.005793076078154537
0.005793076078153848
0.005793076078154193
0.005793076078153951
0.005793076078154233
0.005793076078153589
0.005793076078153409
0.005793076078153338
0.005793076078152937
0.005793076078153318
0.005793076078152739
0.005793076078152236
0.005793076078152059
0.005793076078152492
0.005793076078151178
0.005793076078151323
0.005793076078151002
0.005793076078151689
0.005793076078151308
0.005793076078150767
0.005811640713200344
0.005811640713200062
0.005811640713201012
0.005811640713201371
0.00581164071320238
0.005811640713202469
0.005811640713204361
0.005811640713204445
0.005811640713205182
0.005811640713204154
0.005811640713205012
0.005811640713205845
0.005811640713204847
0.005811640713205985
0.005811640713205703
0.00581164071320537
0.005811640713206254
0.005811640713205009
0.005811640713206443
0.005811640713206721
0.005811640713205859
0.005811640713205699
0.005811640713205976
0.005811640713206597
0.005811640713205451
0.005811640713204943
0.005811640713205033
0.005811640713204919
0.005811640713205286
0.005811640713204912
0.005811640713205141
0.005811640713205196
0.005811640713205986
0.00581164071320558
0.005811640713204252
0.005811640713204171
0.005811640713204363
0.00581164071320417
0.005811640713204298
0.005811640713204533
0.005811640713202841
0.005811640713203087
0.005811640713202923
0.00581164071320334
0.005811640713203128
0.005811640713203438
0.005811640713204077
0.005811640713202105
0.005811640713202496
0.005811640713202081
0.005811640713202227
0.005811640713201575
0.005811640713201594
0.005811640713202229
0.005811640713200848
0.005811640713200929
0.005811640713201362
0.005811640713199822
0.005811640713200189
0.00581164071319975
0.005811640713199301
0.005811640713199419
0.005811640713198779
0.005811640713199094
0.005811640713199718
0.005811640713198334
0.005791259532760699
0.005791259532760822
0.005791259532763027
0.005791259532765236
0.005791259532766409
0.005791259532765708
0.005791259532767044
0.005791259532768341
0.005791259532767446
0.005791259532767329
0.005791259532768972
0.005791259532768404
0.00579125953276805
0.00579125953276886
0.005791259532767754
0.005791259532767726
0.005791259532767886
0.005791259532767688
0.005791259532768351
0.005791259532768368
0.005791259532768542
0.005791259532767721
0.005791259532767835
0.005791259532767499
0.005791259532767352
0.005791259532766483
0.005791259532766369
0.005791259532766124
0.005791259532766103
0.005791259532765976
0.005791259532767083
0.005791259532766389
0.005791259532767226
0.005791259532766046
0.005791259532764834
0.005791259532765929
0.005791259532765375
0.005791259532766348
0.005791259532766089
0.005791259532765509
0.005791259532763188
0.005791259532763318
0.005791259532763216
0.005791259532763633
0.005791259532763353
0.005791259532763356
0.005791259532764076
0.005791259532762516
0.005791259532762693
0.00579125953276192
0.005791259532761873
0.005791259532761633
0.005791259532761853
0.005791259532762669
0.005791259532762335
0.005791259532760725
0.00579125953276154
0.005791259532759383
0.005791259532760557
0.005791259532759804
0.005791259532760463
0.005791259532759155
0.00579125953275862
0.005791259532759396
0.005791259532758452
0.005791259532758155
0.005741374476142082
0.005741374476144243
0.005741374476147233
0.005741374476150436
0.005741374476152166
0.005741374476152444
0.005741374476151404
0.00574137447615245
0.005741374476153045
0.005741374476151289
0.005741374476152901
0.005741374476152143
0.005741374476151984
0.005741374476151303
0.005741374476151063
0.005741374476150507
0.005741374476150848
0.005741374476150298
0.005741374476150687
0.005741374476150775
0.005741374476150755
0.005741374476150942
0.005741374476150386
0.005741374476149728
0.005741374476149385
0.005741374476147755
0.005741374476148128
0.005741374476147487
0.005741374476147262
0.005741374476147099
0.005741374476148451
0.005741374476147345
0.005741374476146439
0.005741374476145997
0.005741374476145556
0.005741374476146932
0.005741374476146247
0.005741374476146851
0.005741374476146705
0.005741374476145665
0.005741374476143838
0.005741374476143354
0.005741374476143527
0.005741374476144628
0.005741374476143293
0.00574137447614304
0.005741374476143215
0.005741374476144027
0.005741374476142283
0.005741374476141732
0.005741374476141763
0.005741374476141568
0.005741374476142879
0.005741374476142192
0.005741374476143081
0.005741374476140073
0.005741374476139918
0.005741374476139392
0.005741374476139958
0.005741374476140866
0.005741374476138941
0.005741374476139299
0.005741374476139925
0.005741374476139361
0.005741374476139169
0.005741374476137704
0.005672853585029724
0.005672853585036205
0.005672853585041541
0.005672853585044348
0.005672853585044872
0.00567285358504507
0.005672853585044425
0.005672853585044563
0.005672853585044893
0.005672853585042358
0.005672853585042394
0.005672853585043304
0.005672853585041189
0.005672853585041388
0.005672853585041829
0.005672853585038802
0.005672853585038936
0.005672853585038817
0.005672853585040171
0.005672853585039184
0.005672853585039669
0.0056728535850392
0.005672853585038385
0.005672853585035637
0.00567285358503715
0.005672853585035515
0.005672853585034936
0.005672853585035214
0.005672853585034231
0.00567285358503515
0.005672853585035408
0.00567285358503398
0.005672853585032589
0.005672853585032294
0.0056728535850319
0.00567285358503271
0.005672853585032533
0.005672853585032977
0.005672853585032855
0.005672853585030641
0.005672853585030752
0.005672853585029944
0.005672853585029578
0.005672853585029693
0.005672853585029091
0.005672853585029247
0.005672853585028919
0.005672853585029464
0.005672853585030018
0.00567285358502738
0.005672853585027462
0.005672853585027326
0.005672853585028174
0.005672853585029123
0.005672853585028107
0.00567285358502712
0.005672853585025326
0.005672853585024885
0.005672853585026525
0.005672853585025886
0.005672853585024765
0.005672853585025945
0.005672853585025138
0.005672853585024356
0.005672853585025414
0.005672853585023825
0.005599942753548802
0.005599942753562396
0.005599942753566235
0.005599942753564662
0.005599942753563155
0.005599942753562435
0.005599942753560354
0.005599942753559553
0.005599942753558971
0.005599942753556618
0.005599942753556516
0.005599942753556747
0.005599942753553684
0.005599942753553975
0.005599942753554835
0.005599942753549804
0.005599942753550089
0.005599942753551215
0.005599942753548919
0.005599942753549154
0.005599942753549916
0.005599942753550017
0.005599942753548201
0.005599942753545694
0.005599942753545409
0.005599942753545979
0.005599942753545448
0.005599942753545997
0.005599942753544691
0.005599942753544965
0.005599942753544468
0.005599942753544117
0.005599942753542337
0.005599942753541936
0.005599942753541701
0.005599942753542493
0.005599942753541956
0.005599942753542373
0.005599942753540978
0.005599942753540794
0.005599942753541833
0.005599942753541176
0.005599942753538706
0.005599942753539575
0.005599942753538699
0.005599942753538954
0.00559994275353804
0.005599942753538688
0.005599942753539685
0.005599942753536749
0.005599942753537039
0.005599942753536745
0.005599942753538389
0.005599942753537315
0.005599942753535729
0.005599942753535938
0.005599942753535023
0.005599942753534842
0.005599942753535531
0.005599942753536659
0.005599942753533654
0.005599942753535482
0.005599942753534263
0.005599942753533718
0.005599942753534359