/*--------------------------------*- C++ -*----------------------------------*\
| =========                 |                                                 |
| \\      /  F ield         | OpenFOAM: The Open Source CFD Toolbox           |
|  \\    /   O peration     | Version:  v1812                                 |
|   \\  /    A nd           | Web:      www.OpenFOAM.com                      |
|    \\/     M anipulation  |                                                 |
\*---------------------------------------------------------------------------*/
FoamFile
{
    version     2.0;
    format      ascii;
    class       volScalarField;
    location    "10000";
    object      nuTilda_0;
}
// * * * * * * * * * * * * * * * * * * * * * * * * * * * * * * * * * * * * * //

dimensions      [0 2 -1 0 0 0 0];


internalField   nonuniform List<scalar> 
2838
(
0.0004765976998042071
0.000476597699804207
0.000476597699804207
0.000476597699804207
0.000476597699804207
0.0004765976998042069
0.000476597699804207
0.0004765976998042068
0.0004765976998042069
0.0004765976998042071
0.0004765976998042069
0.0004765976998042072
0.0004765976998042068
0.0004765976998042069
0.000476597699804207
0.0004765976998042066
0.0004765976998042071
0.0004765976998042069
0.000476597699804207
0.0004765976998042065
0.0004765976998042069
0.0004765976998042071
0.0004765976998042073
0.0004765976998042069
0.0004765976998042066
0.0004765976998042074
0.0004765976998042063
0.0004765976998042072
0.0004765976998042062
0.0004765976998042074
0.0004765976998042065
0.000476597699804207
0.0004765976998042072
0.0004765976998042068
0.0004765976998042063
0.000476597699804207
0.0004765976998042075
0.000476597699804207
0.000476597699804206
0.0004765976998042068
0.0004765976998042069
0.000476597699804207
0.0004765976998042067
0.0004765976998042068
0.0004765976998042069
0.0004765976998042069
0.0004765976998042069
0.0004765976998042075
0.0004765976998042062
0.0004765976998042069
0.0004765976998042069
0.0004765976998042075
0.000476597699804207
0.0004765976998042068
0.0004765976998042063
0.0004765976998042076
0.0004765976998042063
0.0004765976998042062
0.0004765976998042076
0.000476597699804207
0.000476597699804207
0.0004765976998042068
0.0004765976998042069
0.0004765976998042067
0.000476597699804207
0.0004765976998042076
0.0003956662274182249
0.0003956662274182221
0.000395666227418222
0.0003956662274182178
0.0003956662274182167
0.0003956662274182176
0.000395666227418215
0.0003956662274182152
0.0003956662274182166
0.0003956662274182173
0.0003956662274182186
0.0003956662274182159
0.0003956662274182166
0.0003956662274182193
0.000395666227418218
0.0003956662274182172
0.0003956662274182197
0.0003956662274182172
0.0003956662274182168
0.0003956662274182198
0.0003956662274182164
0.0003956662274182166
0.0003956662274182213
0.0003956662274182177
0.0003956662274182176
0.0003956662274182201
0.0003956662274182201
0.0003956662274182229
0.00039566622741822
0.0003956662274182195
0.0003956662274182224
0.0003956662274182221
0.0003956662274182221
0.0003956662274182253
0.0003956662274182223
0.0003956662274182216
0.000395666227418225
0.0003956662274182228
0.0003956662274182232
0.000395666227418225
0.0003956662274182233
0.0003956662274182221
0.0003956662274182249
0.0003956662274182209
0.0003956662274182217
0.0003956662274182214
0.0003956662274182246
0.0003956662274182206
0.0003956662274182211
0.0003956662274182183
0.0003956662274182185
0.0003956662274182212
0.0003956662274182192
0.0003956662274182162
0.0003956662274182199
0.0003956662274182167
0.0003956662274182166
0.0003956662274182164
0.0003956662274182202
0.0003956662274182145
0.0003956662274182127
0.0003956662274182118
0.0003956662274182152
0.0003956662274182145
0.0003956662274182165
0.0003956662274182131
0.0007467445826649489
0.0007467445826649444
0.0007467445826649452
0.000746744582664935
0.000746744582664931
0.0007467445826649324
0.0007467445826649271
0.0007467445826649284
0.0007467445826649265
0.0007467445826649295
0.0007467445826649352
0.0007467445826649302
0.0007467445826649308
0.0007467445826649367
0.0007467445826649353
0.000746744582664933
0.0007467445826649384
0.0007467445826649327
0.0007467445826649323
0.0007467445826649395
0.0007467445826649323
0.0007467445826649325
0.0007467445826649409
0.0007467445826649367
0.0007467445826649354
0.0007467445826649371
0.0007467445826649385
0.0007467445826649458
0.0007467445826649433
0.00074674458266494
0.0007467445826649468
0.0007467445826649472
0.0007467445826649478
0.0007467445826649536
0.0007467445826649497
0.0007467445826649455
0.0007467445826649487
0.0007467445826649483
0.0007467445826649502
0.0007467445826649554
0.0007467445826649496
0.0007467445826649482
0.0007467445826649517
0.0007467445826649438
0.0007467445826649456
0.0007467445826649423
0.0007467445826649498
0.0007467445826649431
0.0007467445826649373
0.0007467445826649352
0.0007467445826649372
0.0007467445826649449
0.0007467445826649414
0.0007467445826649343
0.0007467445826649371
0.0007467445826649347
0.0007467445826649369
0.0007467445826649364
0.0007467445826649412
0.0007467445826649308
0.0007467445826649266
0.0007467445826649236
0.0007467445826649282
0.000746744582664929
0.00074674458266493
0.0007467445826649245
0.001020153842932471
0.001020153842932468
0.001020153842932473
0.001020153842932462
0.001020153842932452
0.001020153842932449
0.001020153842932445
0.001020153842932448
0.001020153842932446
0.001020153842932447
0.001020153842932458
0.001020153842932453
0.00102015384293245
0.001020153842932459
0.001020153842932457
0.001020153842932451
0.001020153842932461
0.001020153842932458
0.001020153842932453
0.001020153842932464
0.001020153842932456
0.001020153842932454
0.001020153842932465
0.001020153842932465
0.001020153842932463
0.001020153842932463
0.001020153842932463
0.001020153842932475
0.001020153842932474
0.001020153842932468
0.00102015384293248
0.001020153842932477
0.001020153842932479
0.00102015384293249
0.001020153842932487
0.001020153842932486
0.001020153842932483
0.001020153842932486
0.001020153842932483
0.001020153842932493
0.001020153842932488
0.001020153842932485
0.001020153842932486
0.00102015384293248
0.001020153842932478
0.001020153842932477
0.001020153842932482
0.001020153842932482
0.001020153842932463
0.001020153842932461
0.001020153842932468
0.001020153842932479
0.001020153842932476
0.001020153842932465
0.001020153842932456
0.001020153842932467
0.001020153842932468
0.001020153842932469
0.001020153842932469
0.001020153842932459
0.001020153842932454
0.00102015384293245
0.001020153842932445
0.001020153842932454
0.001020153842932446
0.001020153842932438
0.001330375949140162
0.001330375949140158
0.001330375949140163
0.001330375949140161
0.001330375949140153
0.001330375949140139
0.001330375949140131
0.001330375949140144
0.001330375949140138
0.001330375949140132
0.001330375949140146
0.001330375949140148
0.001330375949140136
0.001330375949140148
0.001330375949140149
0.001330375949140139
0.001330375949140151
0.00133037594914015
0.001330375949140142
0.001330375949140155
0.001330375949140155
0.001330375949140143
0.001330375949140161
0.001330375949140158
0.001330375949140157
0.001330375949140164
0.001330375949140153
0.001330375949140173
0.001330375949140172
0.001330375949140167
0.001330375949140185
0.001330375949140185
0.001330375949140185
0.001330375949140196
0.001330375949140199
0.001330375949140208
0.001330375949140202
0.001330375949140205
0.001330375949140207
0.001330375949140207
0.001330375949140204
0.001330375949140205
0.001330375949140206
0.001330375949140195
0.001330375949140191
0.001330375949140193
0.001330375949140191
0.001330375949140196
0.001330375949140179
0.001330375949140162
0.001330375949140182
0.001330375949140185
0.001330375949140188
0.001330375949140182
0.00133037594914015
0.001330375949140166
0.001330375949140162
0.001330375949140173
0.00133037594914017
0.00133037594914016
0.001330375949140151
0.001330375949140146
0.00133037594914012
0.001330375949140142
0.001330375949140137
0.00133037594914012
0.001752008131959676
0.001752008131959673
0.001752008131959662
0.001752008131959657
0.001752008131959674
0.001752008131959642
0.001752008131959618
0.001752008131959636
0.001752008131959649
0.001752008131959602
0.00175200813195963
0.00175200813195965
0.001752008131959607
0.001752008131959633
0.001752008131959643
0.001752008131959615
0.00175200813195965
0.001752008131959641
0.001752008131959626
0.001752008131959646
0.001752008131959652
0.001752008131959638
0.001752008131959659
0.00175200813195966
0.001752008131959648
0.001752008131959668
0.001752008131959656
0.001752008131959694
0.001752008131959678
0.001752008131959673
0.001752008131959703
0.001752008131959709
0.001752008131959715
0.001752008131959708
0.001752008131959711
0.001752008131959745
0.001752008131959739
0.001752008131959743
0.001752008131959746
0.001752008131959764
0.001752008131959721
0.00175200813195975
0.001752008131959743
0.001752008131959733
0.00175200813195974
0.001752008131959714
0.001752008131959733
0.001752008131959725
0.001752008131959725
0.001752008131959675
0.001752008131959703
0.001752008131959706
0.001752008131959712
0.001752008131959701
0.001752008131959662
0.001752008131959683
0.001752008131959646
0.001752008131959672
0.001752008131959695
0.001752008131959682
0.001752008131959645
0.001752008131959665
0.001752008131959594
0.001752008131959629
0.001752008131959641
0.001752008131959592
0.002344922259708905
0.002344922259708902
0.002344922259708901
0.002344922259708868
0.002344922259708875
0.002344922259708899
0.002344922259708788
0.00234492225970883
0.002344922259708883
0.002344922259708779
0.002344922259708854
0.002344922259708831
0.002344922259708795
0.002344922259708859
0.002344922259708837
0.002344922259708806
0.002344922259708844
0.002344922259708892
0.002344922259708804
0.00234492225970885
0.002344922259708908
0.002344922259708824
0.002344922259708906
0.002344922259708885
0.002344922259708864
0.002344922259708902
0.002344922259708865
0.002344922259708917
0.002344922259708959
0.00234492225970889
0.002344922259708951
0.002344922259708969
0.002344922259708958
0.002344922259709015
0.002344922259708935
0.002344922259709014
0.002344922259709012
0.00234492225970906
0.002344922259709039
0.002344922259709084
0.002344922259708985
0.002344922259709038
0.002344922259709074
0.002344922259708979
0.002344922259709002
0.002344922259709043
0.002344922259708975
0.002344922259709009
0.00234492225970904
0.002344922259708921
0.002344922259708957
0.002344922259708958
0.002344922259709014
0.002344922259708957
0.002344922259708914
0.002344922259708906
0.002344922259708878
0.002344922259708923
0.002344922259708909
0.002344922259708952
0.00234492225970885
0.002344922259708875
0.0023449222597088
0.002344922259708857
0.002344922259708821
0.00234492225970878
0.00305133296153636
0.003051332961536353
0.003051332961536331
0.003051332961536261
0.003051332961536292
0.003051332961536259
0.003051332961536175
0.003051332961536273
0.003051332961536231
0.003051332961536166
0.003051332961536224
0.003051332961536317
0.003051332961536134
0.003051332961536219
0.003051332961536324
0.003051332961536157
0.003051332961536295
0.003051332961536247
0.003051332961536208
0.003051332961536322
0.003051332961536284
0.003051332961536246
0.00305133296153632
0.003051332961536419
0.003051332961536258
0.003051332961536348
0.003051332961536283
0.003051332961536365
0.003051332961536384
0.003051332961536357
0.0030513329615365
0.003051332961536478
0.003051332961536444
0.003051332961536566
0.003051332961536415
0.003051332961536518
0.003051332961536644
0.003051332961536531
0.003051332961536681
0.003051332961536615
0.003051332961536529
0.003051332961536586
0.003051332961536675
0.003051332961536472
0.0030513329615365
0.00305133296153651
0.003051332961536495
0.003051332961536546
0.003051332961536623
0.003051332961536413
0.00305133296153642
0.003051332961536425
0.003051332961536474
0.003051332961536541
0.003051332961536489
0.003051332961536463
0.003051332961536266
0.003051332961536344
0.003051332961536339
0.003051332961536372
0.003051332961536283
0.003051332961536282
0.003051332961536177
0.003051332961536283
0.003051332961536212
0.003051332961536142
0.003738781063501071
0.00373878106350119
0.003738781063500902
0.003738781063500809
0.003738781063500885
0.003738781063501017
0.003738781063500729
0.003738781063500903
0.003738781063500824
0.003738781063500752
0.00373878106350084
0.003738781063501013
0.003738781063500729
0.003738781063500847
0.00373878106350103
0.003738781063500769
0.003738781063500996
0.003738781063500921
0.003738781063500851
0.003738781063501046
0.00373878106350098
0.003738781063500914
0.003738781063501016
0.003738781063501184
0.003738781063500943
0.003738781063501072
0.003738781063500997
0.003738781063501199
0.003738781063501158
0.003738781063501115
0.003738781063501237
0.003738781063501405
0.00373878106350119
0.003738781063501311
0.003738781063501249
0.00373878106350148
0.003738781063501372
0.003738781063501369
0.003738781063501487
0.003738781063501618
0.003738781063501307
0.003738781063501406
0.003738781063501552
0.003738781063501235
0.003738781063501282
0.003738781063501272
0.003738781063501348
0.003738781063501481
0.003738781063501219
0.003738781063501249
0.003738781063501152
0.003738781063501252
0.003738781063501158
0.003738781063501201
0.00373878106350124
0.003738781063501247
0.003738781063500961
0.003738781063501
0.00373878106350113
0.003738781063500915
0.003738781063500949
0.003738781063501013
0.003738781063500711
0.003738781063500818
0.003738781063500951
0.003738781063500676
0.004322762073351682
0.004322762073351537
0.004322762073351596
0.004322762073351161
0.00432276207335128
0.004322762073351322
0.004322762073351158
0.004322762073351229
0.004322762073351208
0.004322762073351132
0.004322762073351399
0.004322762073351351
0.004322762073351217
0.004322762073351469
0.004322762073351379
0.004322762073351283
0.004322762073351436
0.004322762073351627
0.004322762073351299
0.004322762073351502
0.004322762073351727
0.004322762073351393
0.004322762073351697
0.004322762073351574
0.004322762073351553
0.004322762073351646
0.004322762073351608
0.004322762073351772
0.004322762073351879
0.004322762073351725
0.004322762073352028
0.004322762073351902
0.004322762073351903
0.004322762073351968
0.004322762073351969
0.004322762073352266
0.004322762073352146
0.00432276207335208
0.004322762073352161
0.004322762073352174
0.004322762073352029
0.004322762073352107
0.004322762073352283
0.004322762073351857
0.004322762073352091
0.004322762073351819
0.004322762073351917
0.004322762073351959
0.00432276207335205
0.00432276207335175
0.004322762073351728
0.004322762073351766
0.004322762073351747
0.004322762073351788
0.00432276207335189
0.004322762073351834
0.004322762073351729
0.004322762073351372
0.004322762073351616
0.004322762073351392
0.004322762073351467
0.004322762073351419
0.004322762073351063
0.00432276207335133
0.00432276207335112
0.00432276207335107
0.004787645129392243
0.00478764512939217
0.004787645129392194
0.004787645129391884
0.004787645129392155
0.004787645129391951
0.004787645129391811
0.004787645129391956
0.004787645129392207
0.004787645129391732
0.004787645129392107
0.004787645129392039
0.004787645129391908
0.004787645129392098
0.004787645129392296
0.004787645129391992
0.004787645129392213
0.004787645129392508
0.004787645129392091
0.004787645129392334
0.004787645129392653
0.004787645129392224
0.004787645129392603
0.004787645129392202
0.004787645129392474
0.004787645129392804
0.004787645129392437
0.004787645129392876
0.004787645129392724
0.004787645129392676
0.004787645129393032
0.004787645129392669
0.004787645129392973
0.004787645129393281
0.004787645129392973
0.004787645129393328
0.004787645129393052
0.004787645129393049
0.004787645129393407
0.00478764512939308
0.004787645129392957
0.004787645129393224
0.004787645129392996
0.004787645129392822
0.004787645129393055
0.004787645129392689
0.004787645129392845
0.004787645129393105
0.004787645129392695
0.004787645129392658
0.004787645129392586
0.004787645129392583
0.004787645129392547
0.004787645129392567
0.004787645129392476
0.004787645129392512
0.004787645129392576
0.004787645129392427
0.004787645129392359
0.004787645129392034
0.004787645129391867
0.004787645129391863
0.00478764512939174
0.004787645129392031
0.004787645129391785
0.004787645129391595
0.00514601763342673
0.005146017633426604
0.005146017633426662
0.005146017633426331
0.005146017633426495
0.005146017633426778
0.005146017633426193
0.005146017633426446
0.00514601763342681
0.005146017633426223
0.005146017633426537
0.005146017633426723
0.005146017633426449
0.005146017633426939
0.005146017633426861
0.005146017633426706
0.005146017633427164
0.005146017633426886
0.005146017633426882
0.005146017633427329
0.005146017633427132
0.005146017633427078
0.005146017633427505
0.005146017633427025
0.005146017633427563
0.005146017633427399
0.005146017633427363
0.005146017633427617
0.005146017633427976
0.005146017633427469
0.005146017633427731
0.005146017633427591
0.005146017633428281
0.005146017633428065
0.005146017633428379
0.005146017633428032
0.005146017633428103
0.005146017633427963
0.005146017633428175
0.005146017633428351
0.005146017633427723
0.005146017633428144
0.005146017633427885
0.005146017633427652
0.005146017633427744
0.005146017633427573
0.005146017633427422
0.005146017633427637
0.005146017633427834
0.005146017633427258
0.005146017633427314
0.005146017633427235
0.005146017633427215
0.005146017633427155
0.00514601763342733
0.005146017633427286
0.005146017633426815
0.005146017633426934
0.005146017633426666
0.005146017633426554
0.005146017633426684
0.005146017633426164
0.005146017633426116
0.005146017633426508
0.005146017633426198
0.005146017633425947
0.005413519333223087
0.005413519333222851
0.005413519333222965
0.005413519333222653
0.005413519333223109
0.005413519333222793
0.005413519333222658
0.005413519333222858
0.005413519333223273
0.005413519333222647
0.005413519333223063
0.005413519333223592
0.005413519333222996
0.00541351933322342
0.005413519333223778
0.005413519333223329
0.005413519333223964
0.005413519333223754
0.005413519333223686
0.005413519333224189
0.005413519333223561
0.005413519333223957
0.005413519333224528
0.005413519333223892
0.005413519333224124
0.005413519333224103
0.005413519333224398
0.005413519333224376
0.005413519333224601
0.005413519333224428
0.005413519333224519
0.00541351933322448
0.005413519333224828
0.005413519333224754
0.005413519333225174
0.005413519333224826
0.005413519333224686
0.005413519333225126
0.005413519333224917
0.005413519333224686
0.005413519333224715
0.005413519333224673
0.00541351933322508
0.005413519333224539
0.005413519333224127
0.005413519333224048
0.00541351933322399
0.005413519333224499
0.005413519333224247
0.005413519333224047
0.005413519333224028
0.005413519333223801
0.005413519333224145
0.005413519333223695
0.005413519333223557
0.005413519333223524
0.00541351933322327
0.005413519333223362
0.005413519333223108
0.005413519333223097
0.005413519333222662
0.005413519333222524
0.005413519333222377
0.00541351933322284
0.005413519333222523
0.005413519333222189
0.005603376176286691
0.005603376176286586
0.005603376176286556
0.005603376176286442
0.005603376176286612
0.005603376176286515
0.005603376176287138
0.005603376176286774
0.005603376176287352
0.005603376176286687
0.005603376176287581
0.00560337617628752
0.005603376176287376
0.00560337617628781
0.005603376176288376
0.005603376176287692
0.005603376176288512
0.005603376176288329
0.005603376176288187
0.005603376176288766
0.00560337617628812
0.00560337617628887
0.005603376176288785
0.005603376176288546
0.005603376176288611
0.005603376176288515
0.005603376176289159
0.005603376176288782
0.00560337617628882
0.005603376176289378
0.005603376176289174
0.005603376176289023
0.005603376176289488
0.005603376176289155
0.005603376176289003
0.005603376176288963
0.005603376176288886
0.005603376176289211
0.005603376176289625
0.005603376176288738
0.005603376176288765
0.005603376176288742
0.005603376176289374
0.005603376176288862
0.005603376176288836
0.005603376176287879
0.005603376176287977
0.005603376176288293
0.005603376176288264
0.005603376176288423
0.005603376176288804
0.005603376176287619
0.005603376176287644
0.00560337617628773
0.005603376176287448
0.005603376176287411
0.005603376176287117
0.005603376176287218
0.005603376176287369
0.005603376176287003
0.005603376176286164
0.005603376176286228
0.005603376176286046
0.005603376176286291
0.005603376176286719
0.005603376176285754
0.005726658508372794
0.005726658508372676
0.00572665850837268
0.005726658508372651
0.005726658508372913
0.00572665850837287
0.00572665850837385
0.005726658508374049
0.005726658508374307
0.005726658508373554
0.005726658508374656
0.005726658508374277
0.005726658508374332
0.005726658508374892
0.005726658508374996
0.005726658508374913
0.00572665850837547
0.005726658508375933
0.005726658508375271
0.005726658508375612
0.005726658508375473
0.005726658508376153
0.005726658508375912
0.005726658508375715
0.005726658508375629
0.005726658508375502
0.005726658508376255
0.005726658508375869
0.005726658508375757
0.005726658508376437
0.005726658508376148
0.005726658508376563
0.005726658508375885
0.005726658508376078
0.005726658508375713
0.005726658508376077
0.005726658508375385
0.005726658508375723
0.005726658508376089
0.005726658508375906
0.00572665850837578
0.00572665850837507
0.005726658508375494
0.00572665850837605
0.005726658508374899
0.005726658508374924
0.005726658508374806
0.005726658508374505
0.005726658508375067
0.005726658508374444
0.005726658508375016
0.005726658508374522
0.005726658508374429
0.005726658508374445
0.00572665850837342
0.005726658508373983
0.005726658508373163
0.005726658508373332
0.00572665850837345
0.005726658508373061
0.005726658508372082
0.00572665850837228
0.00572665850837203
0.005726658508372635
0.005726658508372333
0.005726658508371845
0.005793076078155717
0.005793076078155616
0.00579307607815592
0.005793076078155998
0.005793076078156638
0.005793076078156493
0.00579307607815747
0.005793076078157829
0.005793076078158061
0.005793076078157997
0.005793076078158665
0.005793076078159401
0.005793076078158579
0.005793076078159672
0.005793076078159513
0.005793076078159282
0.005793076078159561
0.00579307607815964
0.005793076078159999
0.005793076078160694
0.005793076078159726
0.005793076078160237
0.005793076078160092
0.005793076078160861
0.005793076078159829
0.005793076078159433
0.005793076078160235
0.00579307607816025
0.005793076078160379
0.005793076078159792
0.005793076078160118
0.005793076078160098
0.005793076078160783
0.005793076078160576
0.005793076078159499
0.005793076078159118
0.005793076078159362
0.005793076078158981
0.005793076078159291
0.005793076078158993
0.005793076078158611
0.005793076078159203
0.005793076078158215
0.005793076078158821
0.005793076078158396
0.005793076078158514
0.005793076078158369
0.005793076078157686
0.005793076078158432
0.00579307607815785
0.005793076078158542
0.005793076078156956
0.005793076078157288
0.005793076078157278
0.005793076078156711
0.005793076078156828
0.005793076078157106
0.005793076078155776
0.005793076078155826
0.005793076078155499
0.005793076078155243
0.005793076078155403
0.005793076078154768
0.005793076078155071
0.005793076078155662
0.005793076078154414
0.005811640713205175
0.005811640713204187
0.005811640713205969
0.005811640713205685
0.005811640713207303
0.005811640713206685
0.00581164071320861
0.00581164071320943
0.005811640713208919
0.005811640713208686
0.005811640713209783
0.005811640713209455
0.005811640713209393
0.005811640713209991
0.005811640713210844
0.005811640713209667
0.005811640713209891
0.005811640713209954
0.005811640713210527
0.005811640713210609
0.005811640713210654
0.005811640713210064
0.005811640713210733
0.005811640713210282
0.005811640713210211
0.005811640713209314
0.005811640713209459
0.005811640713209439
0.005811640713210295
0.005811640713209247
0.005811640713209474
0.005811640713210216
0.005811640713209758
0.005811640713209172
0.005811640713209147
0.005811640713208769
0.005811640713209098
0.005811640713208372
0.005811640713208961
0.005811640713207797
0.005811640713207516
0.005811640713207907
0.005811640713207387
0.00581164071320833
0.005811640713207685
0.005811640713208516
0.005811640713207864
0.005811640713206516
0.005811640713207395
0.005811640713206531
0.005811640713207018
0.005811640713205685
0.005811640713206221
0.005811640713205815
0.005811640713205443
0.005811640713205594
0.005811640713204807
0.005811640713204625
0.005811640713205177
0.005811640713203799
0.00581164071320388
0.005811640713204396
0.005811640713202899
0.005811640713203873
0.005811640713203466
0.005811640713202944
0.005791259532766351
0.005791259532765559
0.005791259532768126
0.005791259532770256
0.005791259532770777
0.005791259532770851
0.005791259532772964
0.005791259532772617
0.005791259532772612
0.005791259532772405
0.005791259532773749
0.005791259532774043
0.005791259532772916
0.005791259532773037
0.005791259532773195
0.005791259532772958
0.005791259532772972
0.00579125953277291
0.005791259532774055
0.005791259532773521
0.005791259532774148
0.005791259532772331
0.005791259532773355
0.005791259532772535
0.005791259532772821
0.00579125953277124
0.005791259532771529
0.005791259532771256
0.005791259532771358
0.005791259532771233
0.005791259532771735
0.005791259532772372
0.005791259532771587
0.005791259532771229
0.005791259532769994
0.005791259532770655
0.005791259532771411
0.005791259532770823
0.005791259532770333
0.005791259532769709
0.005791259532768375
0.005791259532768877
0.005791259532768428
0.005791259532769282
0.005791259532768688
0.005791259532768776
0.005791259532768151
0.005791259532768039
0.005791259532768318
0.005791259532766671
0.005791259532767116
0.005791259532766825
0.005791259532767384
0.005791259532766877
0.005791259532766578
0.005791259532766563
0.005791259532765877
0.005791259532764379
0.005791259532765079
0.005791259532765609
0.005791259532764928
0.00579125953276484
0.005791259532763419
0.005791259532763726
0.005791259532764024
0.005791259532763236
0.005741374476148059
0.005741374476150031
0.005741374476153058
0.00574137447615628
0.005741374476157619
0.005741374476157686
0.005741374476157833
0.00574137447615899
0.005741374476157507
0.005741374476157473
0.005741374476158187
0.005741374476158972
0.005741374476158662
0.005741374476156838
0.005741374476156848
0.005741374476156427
0.005741374476157494
0.005741374476156087
0.005741374476157131
0.005741374476156923
0.005741374476156981
0.005741374476155557
0.005741374476155247
0.0057413744761548
0.005741374476154175
0.0057413744761541
0.005741374476154831
0.005741374476153018
0.005741374476153395
0.00574137447615311
0.005741374476153767
0.005741374476154155
0.005741374476151676
0.005741374476151743
0.005741374476151497
0.00574137447615225
0.005741374476153369
0.005741374476153167
0.005741374476152345
0.005741374476149827
0.005741374476149783
0.005741374476149615
0.005741374476149916
0.005741374476149703
0.005741374476149629
0.005741374476149357
0.005741374476149374
0.005741374476148871
0.005741374476148759
0.005741374476147688
0.005741374476148008
0.005741374476147576
0.005741374476148186
0.005741374476148882
0.0057413744761478
0.005741374476145755
0.005741374476145785
0.00574137447614525
0.005741374476146408
0.005741374476145738
0.005741374476144825
0.005741374476145773
0.005741374476144736
0.005741374476144118
0.005741374476144054
0.005741374476143952
0.005672853585036589
0.005672853585042909
0.005672853585048197
0.005672853585050291
0.005672853585051089
0.005672853585053029
0.005672853585051328
0.005672853585051906
0.005672853585051174
0.00567285358504891
0.005672853585049219
0.005672853585048899
0.005672853585048743
0.005672853585048861
0.005672853585047958
0.005672853585045438
0.005672853585046312
0.005672853585046012
0.005672853585046726
0.005672853585047802
0.005672853585045272
0.00567285358504473
0.005672853585043708
0.005672853585042647
0.005672853585043299
0.005672853585043349
0.005672853585041521
0.005672853585042586
0.00567285358504058
0.00567285358504086
0.00567285358504129
0.005672853585041752
0.005672853585038627
0.005672853585039261
0.005672853585038612
0.005672853585040242
0.005672853585039612
0.005672853585040437
0.005672853585037682
0.005672853585037485
0.005672853585038005
0.005672853585036462
0.005672853585036498
0.005672853585036458
0.005672853585036266
0.005672853585036496
0.005672853585035702
0.005672853585036813
0.005672853585035349
0.00567285358503439
0.005672853585034439
0.005672853585034207
0.005672853585035735
0.005672853585034669
0.005672853585033193
0.00567285358503237
0.005672853585032282
0.005672853585031927
0.005672853585032504
0.005672853585033583
0.005672853585031066
0.005672853585031843
0.005672853585032898
0.005672853585030558
0.005672853585030841
0.005672853585030928
0.005599942753556584
0.005599942753570144
0.005599942753572762
0.005599942753573625
0.00559994275357082
0.005599942753571042
0.005599942753567644
0.0055999427535678
0.005599942753567182
0.005599942753564357
0.005599942753565172
0.005599942753562606
0.005599942753562209
0.005599942753562867
0.005599942753561148
0.005599942753557386
0.005599942753559151
0.005599942753557958
0.005599942753557385
0.00559994275355777
0.005599942753557408
0.00559994275355642
0.005599942753555701
0.005599942753553359
0.005599942753553465
0.005599942753554913
0.005599942753553495
0.005599942753555051
0.005599942753551905
0.005599942753553388
0.005599942753551957
0.005599942753552147
0.005599942753549217
0.005599942753550045
0.005599942753549507
0.005599942753551267
0.00559994275354996
0.005599942753550941
0.005599942753547658
0.005599942753549102
0.005599942753548274
0.005599942753547406
0.005599942753547
0.005599942753548301
0.005599942753545873
0.00559994275354745
0.005599942753545467
0.005599942753547351
0.005599942753545778
0.005599942753544839
0.005599942753545225
0.005599942753544462
0.005599942753545051
0.005599942753546015
0.005599942753542451
0.00559994275354412
0.005599942753542498
0.005599942753542506
0.005599942753543669
0.005599942753542837
0.005599942753541656
0.005599942753542279
0.005599942753543414
0.005599942753541099
0.005599942753542753