/*--------------------------------*- C++ -*----------------------------------*\
| =========                 |                                                 |
| \\      /  F ield         | OpenFOAM: The Open Source CFD Toolbox           |
|  \\    /   O peration     | Version:  v1812                                 |
|   \\  /    A nd           | Web:      www.OpenFOAM.com                      |
|    \\/     M anipulation  |                                                 |
\*---------------------------------------------------------------------------*/
FoamFile
{
    version     2.0;
    format      ascii;
    class       volScalarField;
    location    "10000";
    object      p;
}
// * * * * * * * * * * * * * * * * * * * * * * * * * * * * * * * * * * * * * //

dimensions      [0 2 -2 0 0 0 0];


internalField   nonuniform List<scalar> 
2838
(
8.698771725678086e-17
5.909213928582124e-15
4.372926117682014e-15
2.823023431745396e-15
2.409752454266111e-15
2.293932845110978e-15
2.231142243522521e-15
2.007492250067735e-15
1.844379031874855e-15
1.813200070705319e-15
1.654226627155238e-15
1.665815831634481e-15
1.765354396518027e-15
1.584220804066558e-15
1.661765464839282e-15
1.773113322724537e-15
1.707789375247891e-15
2.004768038640087e-15
2.143652731050952e-15
2.130446205502614e-15
2.422453179935507e-15
2.434331421692066e-15
2.407997941018861e-15
2.617841943440351e-15
2.641443531192858e-15
2.633052393837992e-15
2.650166954540384e-15
2.717311362120228e-15
3.039871870647267e-15
3.023617922928397e-15
3.041594700458909e-15
3.24165415701367e-15
3.140392570321698e-15
3.107142810498704e-15
3.094249820006637e-15
2.96190043296751e-15
3.217903444502455e-15
3.287789892181044e-15
3.144461823196775e-15
3.122995032460645e-15
3.074703661626236e-15
2.813347693227735e-15
2.998634796252341e-15
2.958154813514758e-15
2.788607498940285e-15
2.666148029964541e-15
2.436702511338677e-15
2.447853800592008e-15
2.629006243586778e-15
2.565555032429436e-15
2.379744336187449e-15
2.376429755317985e-15
2.441637827671179e-15
2.385876577659785e-15
2.484329952593318e-15
2.239949940619704e-15
2.165938271710069e-15
1.918166167031573e-15
2.126375710645482e-15
1.843964759106797e-15
2.066758567422893e-15
1.500699256062897e-15
1.771987774262661e-15
1.00684914489929e-15
1.422044686005514e-15
-3.279640626705361e-16
8.052740643131001e-17
5.888409591671898e-15
4.37707544526921e-15
2.825478471621145e-15
2.410547972905932e-15
2.293828424037744e-15
2.230253812091124e-15
2.007637509108082e-15
1.844646820068184e-15
1.813124613757082e-15
1.65490359980426e-15
1.667450790310173e-15
1.764992415715547e-15
1.584239490582047e-15
1.661612511935801e-15
1.774587817454363e-15
1.708888942489675e-15
2.004418256588135e-15
2.143490810155861e-15
2.129499875552192e-15
2.422635662843701e-15
2.437140512639451e-15
2.407494110430496e-15
2.613753459344072e-15
2.642016037240285e-15
2.633140656431985e-15
2.65018647300656e-15
2.715806002109477e-15
3.041105194445001e-15
3.026930965237133e-15
3.039669944490269e-15
3.242511690325645e-15
3.141696232505525e-15
3.101775928553071e-15
3.09293137541298e-15
2.967284372527175e-15
3.217699128155799e-15
3.283505018160702e-15
3.144520619043664e-15
3.124632343606028e-15
3.074256313720351e-15
2.815295592610646e-15
2.998227314694213e-15
2.955370999135242e-15
2.788949500829515e-15
2.667916259757628e-15
2.438396804413527e-15
2.446298803452935e-15
2.627614984295983e-15
2.566330825997753e-15
2.383435033459106e-15
2.376417560840585e-15
2.439988234618184e-15
2.385945479202894e-15
2.485878230002017e-15
2.239215214057071e-15
2.163639899405431e-15
1.923420150669463e-15
2.129195061458373e-15
1.840380904257611e-15
2.06735179487022e-15
1.502698921826381e-15
1.773496524702802e-15
1.004796967975102e-15
1.426675828325321e-15
-3.102540019395805e-16
4.298761270824895e-17
5.869342621067138e-15
4.391933033427913e-15
2.822605826954371e-15
2.408290445335693e-15
2.290682244216391e-15
2.226712765003695e-15
2.008833457376795e-15
1.843861433300428e-15
1.813460281556671e-15
1.656365480165472e-15
1.670192210761583e-15
1.767635483927734e-15
1.582741735669979e-15
1.662275961250355e-15
1.778795153799755e-15
1.708779578127988e-15
2.003027758633901e-15
2.146328312285006e-15
2.12939480451663e-15
2.420051283940746e-15
2.44193664916952e-15
2.406308815946063e-15
2.608656831610386e-15
2.643355635344852e-15
2.63430561250152e-15
2.651117903223907e-15
2.716374223701685e-15
3.041038939331042e-15
3.031446312405532e-15
3.040306782457954e-15
3.241361651796031e-15
3.146485000854896e-15
3.097273956182326e-15
3.088621737135963e-15
2.969934714701809e-15
3.218830135348759e-15
3.280991831435367e-15
3.147663373970271e-15
3.12443615477586e-15
3.072093581057568e-15
2.817373935794651e-15
2.997799268172838e-15
2.949214123582302e-15
2.790749822732186e-15
2.672165326918756e-15
2.438789033710954e-15
2.442996391539754e-15
2.6273961252604e-15
2.565549413859185e-15
2.386968060207163e-15
2.376503974542829e-15
2.43993036302262e-15
2.388538275344749e-15
2.486371913259716e-15
2.236503001783772e-15
2.166657654453587e-15
1.929840208826997e-15
2.129156565824017e-15
1.831560507736347e-15
2.068484050350962e-15
1.508273248195814e-15
1.777464461164881e-15
1.000550546681603e-15
1.433450387608977e-15
-2.844406761188719e-16
-2.742069858564553e-17
5.853843501990437e-15
4.427907751719039e-15
2.82116612734812e-15
2.399652046756684e-15
2.284377794113066e-15
2.223071301941517e-15
2.007620920496978e-15
1.840755309308483e-15
1.816510506599221e-15
1.65986054104038e-15
1.67453612084074e-15
1.769520241045855e-15
1.582659054245738e-15
1.664157695049134e-15
1.783202818932601e-15
1.708587661798346e-15
1.999833761756815e-15
2.150673098381067e-15
2.130180417432759e-15
2.416481784341114e-15
2.446572471972369e-15
2.404520992710405e-15
2.60275024917965e-15
2.644923947368534e-15
2.63806691906181e-15
2.650100583580539e-15
2.717357952138276e-15
3.042446460109301e-15
3.036368814091114e-15
3.040696818189343e-15
3.239357595689536e-15
3.151752384212676e-15
3.093966864915027e-15
3.08313123856515e-15
2.969688232851219e-15
3.222581281691325e-15
3.279481131334532e-15
3.150642611029035e-15
3.126515367306883e-15
3.070162200419233e-15
2.818164587719458e-15
2.993179032662501e-15
2.942847180029883e-15
2.792323579143697e-15
2.677996959555706e-15
2.440119463224953e-15
2.437513252666207e-15
2.625832946938381e-15
2.56714549571145e-15
2.392270908168643e-15
2.376287124164991e-15
2.441095561675813e-15
2.391200739920012e-15
2.485031819786731e-15
2.236141566627977e-15
2.174664770381929e-15
1.935855372846132e-15
2.127647047854828e-15
1.82274601664108e-15
2.069436822226161e-15
1.513582720949479e-15
1.780951349936826e-15
9.985731754693497e-16
1.443154406510434e-15
-2.651562680834765e-16
-1.125378610129161e-16
5.809945095283099e-15
4.486741957592965e-15
2.827714279806265e-15
2.386508412046158e-15
2.275455670827655e-15
2.217708381455918e-15
2.004014124297151e-15
1.834929640074152e-15
1.817196482524114e-15
1.662982650535738e-15
1.679757122280258e-15
1.771424097357991e-15
1.583649394438131e-15
1.670806145409335e-15
1.784660492784573e-15
1.708385542808277e-15
1.996260335673322e-15
2.155569630885503e-15
2.128842544285113e-15
2.412698554645007e-15
2.451584838794997e-15
2.404991103617359e-15
2.600280234571686e-15
2.644663842596908e-15
2.641226851235958e-15
2.647506981267588e-15
2.720467424804907e-15
3.046000518285969e-15
3.040262489989672e-15
3.04109535821859e-15
3.239016385014851e-15
3.156062048061711e-15
3.093958987125233e-15
3.077781545185136e-15
2.970921462780334e-15
3.223389088011803e-15
3.277609373443715e-15
3.154161382589176e-15
3.132181254685561e-15
3.069568297019898e-15
2.816251612285315e-15
2.985552394702118e-15
2.937840353206071e-15
2.794674370398774e-15
2.681713287529805e-15
2.441373565214414e-15
2.430029517784546e-15
2.622128118734064e-15
2.570796979107942e-15
2.397767276416047e-15
2.376518104771793e-15
2.444488274336802e-15
2.390438939143678e-15
2.481921983818132e-15
2.239738103101092e-15
2.183303585154551e-15
1.939211306442067e-15
2.124931692211004e-15
1.816516622840919e-15
2.072625253205801e-15
1.516138973969047e-15
1.782286892471014e-15
1.004390162944763e-15
1.455104531313204e-15
-2.322408799858705e-16
-2.193641624700225e-16
5.684767412243785e-15
4.551968746440384e-15
2.844390946895093e-15
2.377817117258011e-15
2.259967502661939e-15
2.208325754947427e-15
2.003048529913781e-15
1.82290036079145e-15
1.819210860809623e-15
1.663914485949268e-15
1.683942643968826e-15
1.774633152832182e-15
1.58923775729931e-15
1.67405119621743e-15
1.790218255529223e-15
1.713539783372598e-15
1.989368948916871e-15
2.151665180654111e-15
2.132589835183093e-15
2.404530881764705e-15
2.462709297016622e-15
2.407275160221818e-15
2.599336659722802e-15
2.643808751391804e-15
2.644079107511127e-15
2.649028936341098e-15
2.726173651852732e-15
3.050461893337308e-15
3.046144372983251e-15
3.040575701821707e-15
3.234483444313937e-15
3.166565386430599e-15
3.089433009169826e-15
3.076498919594051e-15
2.971049419329924e-15
3.225811837688082e-15
3.276093014055158e-15
3.157250944500581e-15
3.141042463909563e-15
3.07145124483689e-15
2.813651940351391e-15
2.976217838214376e-15
2.933849611461706e-15
2.794650875089641e-15
2.683340034491041e-15
2.444726875677911e-15
2.420196861195943e-15
2.613635964575822e-15
2.572039846575693e-15
2.415038780367507e-15
2.372989533734409e-15
2.448032645367567e-15
2.383433503828489e-15
2.475270607831013e-15
2.246853683642458e-15
2.193398296451209e-15
1.947633048863923e-15
2.116790142367515e-15
1.812742180550909e-15
2.076356544091041e-15
1.520641242112042e-15
1.780344581919596e-15
1.025118708731335e-15
1.476705636236694e-15
-1.597762527969404e-16
-3.27791702041681e-16
5.418799610889911e-15
4.583843479806101e-15
2.850246784492712e-15
2.37808506522948e-15
2.249053522548816e-15
2.192018766240419e-15
2.009469960488797e-15
1.810192807212027e-15
1.807721626001426e-15
1.663236493784463e-15
1.674245926517824e-15
1.782397141449833e-15
1.605571942256618e-15
1.676768313358138e-15
1.796671211847712e-15
1.728213993446478e-15
1.982038180566233e-15
2.146118340838049e-15
2.144767654974267e-15
2.392613534228811e-15
2.467673833425079e-15
2.423136978148011e-15
2.597111304254283e-15
2.644499322313727e-15
2.641103611486432e-15
2.649497227904364e-15
2.7439162364874e-15
3.049077552240026e-15
3.052526111689961e-15
3.048524876609161e-15
3.225525245411382e-15
3.181741221280121e-15
3.08576059046383e-15
3.071453552370008e-15
2.973714272839956e-15
3.234324190127258e-15
3.285791818303165e-15
3.160347599917927e-15
3.135156262922805e-15
3.067971846399203e-15
2.813891065811901e-15
2.968749033443535e-15
2.931189716033026e-15
2.796898804183856e-15
2.680916546818679e-15
2.452188174091485e-15
2.403376523759501e-15
2.593643971483844e-15
2.584836896087955e-15
2.431456239235013e-15
2.367976425518097e-15
2.45175718101943e-15
2.372482874219331e-15
2.460685390562548e-15
2.251056219335456e-15
2.212338479811277e-15
1.963866589513167e-15
2.10369075396131e-15
1.815815536993562e-15
2.070735493617921e-15
1.522134036304252e-15
1.781556055965258e-15
1.073845104981982e-15
1.512786992448037e-15
5.397500492441495e-19
-3.506304329467667e-16
5.017895369649081e-15
4.503343848102534e-15
2.801781278552304e-15
2.386756963013486e-15
2.2432973678725e-15
2.165344245309905e-15
2.025678849247855e-15
1.814606929574438e-15
1.777648386808478e-15
1.665205960829399e-15
1.652756477686517e-15
1.77199088785593e-15
1.633316632112761e-15
1.683399411749824e-15
1.78617553771595e-15
1.767219124439932e-15
1.975190998509063e-15
2.129984412475205e-15
2.165287050573575e-15
2.389311431595647e-15
2.465179449523844e-15
2.45577838464642e-15
2.585241895380665e-15
2.647018372118036e-15
2.640492908191822e-15
2.64604419866983e-15
2.765878084722335e-15
3.059006249689053e-15
3.065388101118241e-15
3.074702361784764e-15
3.217944215216593e-15
3.198573318104394e-15
3.081113921258869e-15
3.063823205928383e-15
2.98226488037826e-15
3.25280028428098e-15
3.293284593215372e-15
3.180597980735561e-15
3.122642053798186e-15
3.057178813181076e-15
2.812114812068416e-15
2.962194788986086e-15
2.923284089209222e-15
2.798950774661976e-15
2.674896009473518e-15
2.444322578146807e-15
2.405646980673267e-15
2.571306047068307e-15
2.592013478349292e-15
2.447190040812675e-15
2.361851424834329e-15
2.453840305514747e-15
2.347294921583374e-15
2.427751164649749e-15
2.253253537193633e-15
2.23061907240121e-15
1.988504790468185e-15
2.108360861990955e-15
1.81667669052542e-15
2.050479926653355e-15
1.530201917067461e-15
1.789083841224202e-15
1.154026925513188e-15
1.544821865192871e-15
2.510855942214504e-16
-1.735961286741622e-16
4.526287797438192e-15
4.240947246131964e-15
2.674645612964236e-15
2.361852410394137e-15
2.246001727432445e-15
2.160678085291169e-15
2.050541690933058e-15
1.814000206582945e-15
1.744897427715188e-15
1.665285421089814e-15
1.614718843498938e-15
1.756069355155763e-15
1.659740839518099e-15
1.681645434563843e-15
1.795861115800132e-15
1.806542129559314e-15
1.97659925631634e-15
2.123422015809304e-15
2.186830133865933e-15
2.373645721449267e-15
2.477301821982073e-15
2.485173572654636e-15
2.576856845018912e-15
2.656357627977355e-15
2.647771000064201e-15
2.646150108345782e-15
2.796461343085052e-15
3.08892653940807e-15
3.095248778737784e-15
3.102111781815431e-15
3.195532308996431e-15
3.20173105087399e-15
3.11202786336437e-15
3.057405261502891e-15
3.015358282112329e-15
3.250964075837076e-15
3.298520192657015e-15
3.206065075884204e-15
3.105493470174505e-15
3.030759341531095e-15
2.827622250757401e-15
2.913487341306709e-15
2.91179315304422e-15
2.825337531520936e-15
2.664268935878604e-15
2.432011922388428e-15
2.398951837721111e-15
2.545297390288192e-15
2.59304458092493e-15
2.469134218925445e-15
2.353647066113816e-15
2.468186101465988e-15
2.361057913527709e-15
2.406591619480965e-15
2.213325365027851e-15
2.226454718787473e-15
2.040952812647339e-15
2.077556821082118e-15
1.813619750384656e-15
2.029943900512529e-15
1.54610048799554e-15
1.785568829608212e-15
1.276641341085183e-15
1.5950647742324e-15
5.320764678980297e-16
1.510178023282266e-16
4.023991189643075e-15
3.805207963771784e-15
2.510335034234897e-15
2.318886410749871e-15
2.234926843218711e-15
2.159145242233782e-15
2.056221826821071e-15
1.820072129890423e-15
1.716526904097534e-15
1.659582876016432e-15
1.594580709988563e-15
1.734176874246218e-15
1.664996110735059e-15
1.658526592913745e-15
1.805460237635801e-15
1.867328726934243e-15
1.977701386034264e-15
2.08816620542985e-15
2.216665959271375e-15
2.375152630042341e-15
2.494375404510553e-15
2.546993316007325e-15
2.555270418396486e-15
2.655164802414477e-15
2.67380527183558e-15
2.644792144975324e-15
2.880527813244847e-15
3.098862024533958e-15
3.080468945955634e-15
3.181734641958257e-15
3.18655829569537e-15
3.161974796056648e-15
3.157162102844527e-15
3.065173986744194e-15
3.066183273456111e-15
3.258429039585048e-15
3.274499746478327e-15
3.212815260776301e-15
3.116991314595138e-15
2.98252962400159e-15
2.849804922181476e-15
2.858853710366012e-15
2.875289767680148e-15
2.862738608300295e-15
2.645989083420003e-15
2.429099290682311e-15
2.371228540882034e-15
2.531561044396877e-15
2.573080699033661e-15
2.486488432003914e-15
2.367320286215697e-15
2.458659758567719e-15
2.377448061248986e-15
2.385862735288109e-15
2.185069030959568e-15
2.202239996551e-15
2.055477630211013e-15
2.081404735498875e-15
1.801505353137176e-15
1.984135864126217e-15
1.580245677941279e-15
1.783737087851541e-15
1.396077352403018e-15
1.686317202644523e-15
8.314022727407813e-16
6.013784272503764e-16
3.547135204448e-15
3.299860539709148e-15
2.295531708111461e-15
2.259806296931539e-15
2.202149186502894e-15
2.106711123924837e-15
2.085956583471682e-15
1.827297013396705e-15
1.700099506936647e-15
1.671213317620869e-15
1.577848266925591e-15
1.708614859324966e-15
1.690341607173608e-15
1.656563278042221e-15
1.79989298594339e-15
1.895459792318789e-15
1.945772769064885e-15
2.057939814037705e-15
2.261117079248265e-15
2.396298363651714e-15
2.523158450560221e-15
2.566908676545289e-15
2.556931895610539e-15
2.679967516401998e-15
2.700868224316155e-15
2.656382605711104e-15
2.942480696922446e-15
3.10014876212003e-15
3.07682241547594e-15
3.240316058931354e-15
3.195093841323443e-15
3.198620649428925e-15
3.19376659229794e-15
3.061650289659268e-15
3.091543615848593e-15
3.248664782229298e-15
3.253104430896299e-15
3.215159223920386e-15
3.116761764221879e-15
2.961705503640035e-15
2.826728046320005e-15
2.787217293201204e-15
2.871397754077154e-15
2.902523151138838e-15
2.649814833716593e-15
2.467879071370625e-15
2.329121599033976e-15
2.48922727320994e-15
2.524715683680612e-15
2.468668710213152e-15
2.41122880277833e-15
2.470485149638672e-15
2.368237645659657e-15
2.34165698129429e-15
2.212966967107256e-15
2.150896717763413e-15
2.003951996106884e-15
2.076861042775514e-15
1.817952685519435e-15
1.945450458217369e-15
1.601475212740844e-15
1.776213160241938e-15
1.511403909145094e-15
1.778287706363791e-15
1.159499983655121e-15
1.170837885877162e-15
3.06143926084839e-15
2.782062628509824e-15
2.064228718322463e-15
2.136474534358005e-15
2.160515408066474e-15
2.061471474260419e-15
2.135112002146908e-15
1.836056339603189e-15
1.678120188881481e-15
1.671591199923267e-15
1.580118728234657e-15
1.676174680309179e-15
1.728043486447016e-15
1.684033601047181e-15
1.7985507626693e-15
1.901238834358092e-15
1.902006467626077e-15
2.023941493053984e-15
2.346991002562108e-15
2.432344185829388e-15
2.493668480470775e-15
2.597359929479633e-15
2.599577092706527e-15
2.732394486106227e-15
2.697730677829095e-15
2.674231091354125e-15
3.020697538161805e-15
3.106624534558073e-15
3.064343976347755e-15
3.252705193571757e-15
3.289081086389503e-15
3.291505898801106e-15
3.218671316564717e-15
3.067204820025297e-15
3.049555403915135e-15
3.206260290510979e-15
3.203125504858091e-15
3.251228989177138e-15
3.119331256857696e-15
2.964155388359806e-15
2.791639121641755e-15
2.725962581828191e-15
2.857725029055277e-15
2.914836457812092e-15
2.682710869016348e-15
2.501785047500417e-15
2.29473018415902e-15
2.399640699362235e-15
2.46856142511953e-15
2.430072239241789e-15
2.423082677662676e-15
2.472434451404666e-15
2.348471995007253e-15
2.317371438795438e-15
2.267531933352591e-15
2.117151432973156e-15
1.940211166570074e-15
2.028441338453089e-15
1.85862184817883e-15
1.906658597740894e-15
1.635473246230142e-15
1.712566087633027e-15
1.647412025217463e-15
1.840284380136494e-15
1.508256227207803e-15
1.821087131729574e-15
2.583023286012018e-15
2.187892194100507e-15
1.851554684331127e-15
2.04845899370236e-15
2.040728785477635e-15
1.985219798396965e-15
2.168219075034218e-15
1.844489504247285e-15
1.648068116043878e-15
1.693385166834516e-15
1.6435193463622e-15
1.680747071834553e-15
1.772697969022661e-15
1.711361052248352e-15
1.760570345654588e-15
1.90033549354721e-15
1.895318869548268e-15
2.019154249554898e-15
2.384578425368255e-15
2.451690925942025e-15
2.497768013589127e-15
2.612507751521057e-15
2.619459628685538e-15
2.791321911297849e-15
2.70480466987526e-15
2.697300299818219e-15
3.086123656443516e-15
3.125822834215283e-15
3.031915633585306e-15
3.280579323976095e-15
3.413870790401199e-15
3.315328012046593e-15
3.229916853238799e-15
3.132201544592259e-15
2.996697895411126e-15
3.15881436397339e-15
3.208424532413487e-15
3.208072489313511e-15
3.118534516695581e-15
2.981513014935331e-15
2.785733126829098e-15
2.700279304421575e-15
2.849979669333408e-15
2.876257237707187e-15
2.680675571775736e-15
2.501384872327084e-15
2.308517537461574e-15
2.316863899352537e-15
2.404276701830956e-15
2.415223829690043e-15
2.427174675139493e-15
2.462186453949976e-15
2.326609991687991e-15
2.280335108076001e-15
2.266690068710745e-15
2.094760886775073e-15
1.898116364288055e-15
1.977518193229607e-15
1.859666985006272e-15
1.838388430975609e-15
1.702578252337303e-15
1.648257829040569e-15
1.756275354387597e-15
1.910969384306877e-15
1.946862546720434e-15
2.491755347055695e-15
2.109120765271239e-15
1.61462891274805e-15
1.61605789736931e-15
1.889811155943564e-15
1.966663391991842e-15
1.952658994763442e-15
2.178623907432868e-15
1.883620842034035e-15
1.611695624254021e-15
1.726761176859486e-15
1.713105460912683e-15
1.707906894535996e-15
1.866754560254539e-15
1.736209002428092e-15
1.720148467736503e-15
1.906411494413711e-15
1.880868281757664e-15
1.990320637652323e-15
2.400863742161396e-15
2.490615202520461e-15
2.55496746716709e-15
2.608316963127139e-15
2.605972873877088e-15
2.790462848977908e-15
2.71154191884944e-15
2.75975642367861e-15
3.112864796656474e-15
3.131354276229605e-15
3.095440291423841e-15
3.352754328638007e-15
3.459658999309196e-15
3.331621449248156e-15
3.231231205961932e-15
3.097082754070257e-15
2.946821074073794e-15
3.160226136326954e-15
3.25158826882622e-15
3.103912222518357e-15
3.113425995284917e-15
3.025329001645667e-15
2.77510091740657e-15
2.712301333558643e-15
2.812480119437898e-15
2.793645867213062e-15
2.631314892536369e-15
2.524595180625716e-15
2.412033241703239e-15
2.2706865672166e-15
2.342278662833219e-15
2.402009363378158e-15
2.377698945913441e-15
2.423025618895173e-15
2.289571407124384e-15
2.257070595340122e-15
2.237406524502574e-15
2.062750647241408e-15
1.898174775697871e-15
1.911147494946288e-15
1.858034949342958e-15
1.765661279225385e-15
1.704100387751485e-15
1.64728394542448e-15
1.831209899722173e-15
1.992968924988654e-15
2.374612468911806e-15
3.231097239976383e-15
1.665454024399036e-15
9.852113229295382e-16
1.418568882984388e-15
1.755323359707261e-15
1.893000798771865e-15
1.931417605795977e-15
2.175489225181975e-15
1.909028499500765e-15
1.619273993251191e-15
1.735956554141237e-15
1.774666742854797e-15
1.780799040778879e-15
1.936348697886642e-15
1.756642636328794e-15
1.753512647466597e-15
1.933962727070796e-15
1.850086162508828e-15
1.946246689269712e-15
2.38622417548362e-15
2.524129561821057e-15
2.631240657746017e-15
2.554031293385022e-15
2.560143147371017e-15
2.814243097374484e-15
2.724495476766717e-15
2.832668623504692e-15
3.107097095801297e-15
3.16519512759883e-15
3.195984286200748e-15
3.416104912060997e-15
3.446654401191449e-15
3.300275690457005e-15
3.198679746865463e-15
3.049695596145773e-15
2.883556246012051e-15
3.18924008556862e-15
3.300288980925422e-15
3.057780637215439e-15
3.116428162465551e-15
3.028210634509685e-15
2.777208269314329e-15
2.74040132144553e-15
2.763369429315656e-15
2.731426506232231e-15
2.569680666694743e-15
2.533303830823853e-15
2.430668365496181e-15
2.262818331090251e-15
2.336458981858157e-15
2.376352738850628e-15
2.317290737244208e-15
2.31973861099404e-15
2.247995768438548e-15
2.23708432119349e-15
2.216597208042813e-15
2.065190298687286e-15
1.914155621470709e-15
1.790614186599283e-15
1.851493764809517e-15
1.715641419854976e-15
1.764994793128455e-15
1.602634762060574e-15
1.960781871915099e-15
2.039292264186477e-15
2.768590655308885e-15
3.907719493810826e-15
1.260553758617365e-15
3.696172482937933e-16
1.197409378471826e-15
1.69366844209809e-15
1.827773858170587e-15
1.998719660949639e-15
2.198258758831828e-15
1.876353133893929e-15
1.648146254917708e-15
1.75378781446635e-15
1.823163564045781e-15
1.870849800668878e-15
1.966798199259681e-15
1.75391790514349e-15
1.757520046303155e-15
1.962535599885766e-15
1.828134141512157e-15
1.966171891900004e-15
2.398680220358054e-15
2.532592313414025e-15
2.642302426501913e-15
2.486346059365967e-15
2.5388437559154e-15
2.825592513853366e-15
2.725066062424424e-15
2.874280847546782e-15
3.126038237733594e-15
3.182280335926499e-15
3.204277623727196e-15
3.475643370202051e-15
3.499795455668502e-15
3.309573277436227e-15
3.165917671389656e-15
2.973776141269746e-15
2.854474550619288e-15
3.130787987240614e-15
3.238459504778612e-15
3.058080371611833e-15
3.113300732962089e-15
3.027890234490657e-15
2.818137683582535e-15
2.771224966553495e-15
2.700544868918883e-15
2.667998220475431e-15
2.617711612659258e-15
2.498451445519698e-15
2.353235466804532e-15
2.322316017232404e-15
2.313562221217068e-15
2.294048559452121e-15
2.262940925655844e-15
2.244242073740671e-15
2.206035534647616e-15
2.186401140129296e-15
2.225568003943733e-15
2.104955821136435e-15
1.898935161239355e-15
1.653048293079783e-15
1.81437406840158e-15
1.691090436640686e-15
1.817518939444291e-15
1.609861015539478e-15
2.097790140404153e-15
2.081007833165044e-15
3.150727988531312e-15
4.585740746515385e-15
8.644510507545862e-16
-1.259146656317399e-16
1.048295927520125e-15
1.608809716514772e-15
1.798768154802082e-15
2.078285957594963e-15
2.201413312515957e-15
1.83334463578125e-15
1.677218105654074e-15
1.800059141211968e-15
1.84682991118368e-15
1.981143572780761e-15
1.99300610916108e-15
1.729876033895413e-15
1.735930888766412e-15
1.924820216135252e-15
1.876529841873956e-15
2.006966261210208e-15
2.409118098566737e-15
2.534186625839608e-15
2.569781336088198e-15
2.412666677424477e-15
2.552661118308087e-15
2.820990388189541e-15
2.70290140366121e-15
2.886643750058235e-15
3.172636933501767e-15
3.204788218520928e-15
3.226953161870905e-15
3.505343946554707e-15
3.498913479132251e-15
3.307965094581433e-15
3.136861549402103e-15
2.907126818738016e-15
2.805558479075155e-15
3.087329509634546e-15
3.177277231530712e-15
3.026560738050832e-15
3.067309675444393e-15
3.058402051094267e-15
2.832902587095805e-15
2.763393306716508e-15
2.691341658454273e-15
2.612735548862877e-15
2.61354080288119e-15
2.49429133271112e-15
2.316107594508144e-15
2.37002748564849e-15
2.262204864461668e-15
2.19908513686708e-15
2.16958866789425e-15
2.188902171365407e-15
2.177769725290757e-15
2.152853555410808e-15
2.219397794728725e-15
2.103389016777476e-15
1.893538623476758e-15
1.546021957440168e-15
1.783881648589248e-15
1.689459140579681e-15
1.876337543639317e-15
1.587909989782191e-15
2.252099613150601e-15
2.089523895137787e-15
3.518135779454452e-15
5.247577006923304e-15
5.117389956280597e-16
-4.594559887763451e-16
9.951334744076885e-16
1.557459373213896e-15
1.789088165366651e-15
2.095033832474238e-15
2.136008527097758e-15
1.820446130313756e-15
1.716801809608581e-15
1.804771875211539e-15
1.906345928163375e-15
2.044358245742591e-15
1.922972140957326e-15
1.707712754006908e-15
1.77617588400431e-15
1.895296890522368e-15
1.884558511431971e-15
2.030733557360177e-15
2.434641496171925e-15
2.52198631298715e-15
2.449693686552232e-15
2.379499474004418e-15
2.59592884530302e-15
2.76722597395548e-15
2.673757248593677e-15
2.860379733978176e-15
3.176197280300817e-15
3.246449363093234e-15
3.228124662202738e-15
3.542870921347751e-15
3.450408903756691e-15
3.278321412486249e-15
3.084522228849511e-15
2.91627080913422e-15
2.832045368739076e-15
3.010488018520896e-15
3.064148239883624e-15
3.027380740523173e-15
2.997381085251166e-15
3.051009022905551e-15
2.828634595571911e-15
2.751639830944391e-15
2.745807062252056e-15
2.587134876151325e-15
2.555582933899603e-15
2.471848522114464e-15
2.279994645378917e-15
2.371477365002102e-15
2.256400519317891e-15
2.096277831824295e-15
2.110650513433387e-15
2.15912352453248e-15
2.12423103773954e-15
2.120727809987471e-15
2.23193946066053e-15
2.092680835751714e-15
1.869527593287255e-15
1.501605170085255e-15
1.763185746920364e-15
1.642471830660834e-15
1.880970246702737e-15
1.569911308460675e-15
2.435860320263646e-15
2.091874738666185e-15
3.913078941529178e-15
5.944400033303564e-15
2.210075179447067e-16
-7.165373032768777e-16
1.071221993505727e-15
1.559069664212012e-15
1.773770411923921e-15
2.034464681130143e-15
2.082822772333016e-15
1.757114120917409e-15
1.736227900029748e-15
1.873253689171358e-15
1.924074214879455e-15
2.014568340032697e-15
1.857392814747983e-15
1.60235069687587e-15
1.830807888896434e-15
1.905645975502219e-15
1.906737607009074e-15
2.033926478400966e-15
2.452385589060449e-15
2.443451778272406e-15
2.358266796649572e-15
2.348117012591489e-15
2.550218572012886e-15
2.691766380929919e-15
2.729960524399309e-15
2.845740612122795e-15
3.141771643220511e-15
3.241230910214567e-15
3.282832038580886e-15
3.547536636253243e-15
3.358385269747298e-15
3.237452582495798e-15
3.082331751649962e-15
2.919205937158256e-15
2.889635628370726e-15
2.980894579075706e-15
2.932215059118096e-15
2.965287076410461e-15
2.958695569300463e-15
3.010417678433764e-15
2.839883666746757e-15
2.779332224053626e-15
2.742871588761959e-15
2.569016814792391e-15
2.502176235533171e-15
2.468009558622494e-15
2.264428507473599e-15
2.272879688214282e-15
2.252531553449007e-15
2.103946053812621e-15
2.128324547818035e-15
2.161315458113475e-15
2.031056679568123e-15
1.9896018137553e-15
2.243043992794541e-15
2.06635292492178e-15
1.860543962926199e-15
1.533183522924079e-15
1.720869613407275e-15
1.585739641557859e-15
1.941491061386735e-15
1.526383568360119e-15
2.498927235015012e-15
2.102767955100968e-15
4.337150738242707e-15
6.62001258650369e-15
1.399411681380303e-16
-8.692769306419911e-16
1.114287717044629e-15
1.60915172329322e-15
1.709720294798196e-15
1.92606003325224e-15
1.990369510955358e-15
1.712532128636866e-15
1.739111193097286e-15
1.865279412825425e-15
1.94628624792626e-15
1.94557238452036e-15
1.817617036720967e-15
1.573594672882964e-15
1.786796316773071e-15
1.944421400056563e-15
1.912310375824506e-15
2.082971418551e-15
2.394903481675094e-15
2.27940593494698e-15
2.305876616584139e-15
2.298168470890076e-15
2.510895887478554e-15
2.717342985875908e-15
2.770206954615235e-15
2.769621948607135e-15
3.081282336253332e-15
3.266580817665706e-15
3.282342062601662e-15
3.488193253747008e-15
3.300475689001287e-15
3.209960235695711e-15
3.083593779435788e-15
2.921813970925878e-15
2.913172733251791e-15
2.967533472927956e-15
2.883591265363377e-15
2.879378783142205e-15
2.95130711330078e-15
2.950458418451842e-15
2.841718116730818e-15
2.811920947314813e-15
2.697306523739558e-15
2.575600674822928e-15
2.451391617000514e-15
2.398593655517446e-15
2.280256117413119e-15
2.225488492012206e-15
2.229039879807311e-15
2.148549874459067e-15
2.134119311305148e-15
2.179550799822246e-15
1.947517214223332e-15
1.880741668261296e-15
2.268442451618359e-15
2.065576100431849e-15
1.869099054075793e-15
1.569319594383187e-15
1.70620230926388e-15
1.479987862094508e-15
2.047231805284251e-15
1.462739572642827e-15
2.543087004528653e-15
2.131407572506487e-15
4.66199934339687e-15
7.242015466661264e-15
1.945435833666015e-16
-9.885723119894108e-16
1.061252856905598e-15
1.576796397677487e-15
1.604247367289928e-15
1.801747865774497e-15
1.936178323285798e-15
1.644357938701356e-15
1.694037668897843e-15