/*--------------------------------*- C++ -*----------------------------------*\
| =========                 |                                                 |
| \\      /  F ield         | OpenFOAM: The Open Source CFD Toolbox           |
|  \\    /   O peration     | Version:  v1812                                 |
|   \\  /    A nd           | Web:      www.OpenFOAM.com                      |
|    \\/     M anipulation  |                                                 |
\*---------------------------------------------------------------------------*/
FoamFile
{
    version     2.0;
    format      ascii;
    class       surfaceScalarField;
    location    "10000";
    object      phi;
}
// * * * * * * * * * * * * * * * * * * * * * * * * * * * * * * * * * * * * * //

dimensions      [0 3 -1 0 0 0 0];
oriented        oriented;


internalField   nonuniform List<scalar> 
5567
(
0.000405880033935945
-2.860191146162338e-17
0.000405880033935945
5.424924373731565e-19
0.0004058800339359441
1.182805956762874e-18
0.000405880033935943
1.588549536495103e-18
0.0004058800339359421
1.198853948206582e-18
0.0004058800339359416
7.973959589420157e-19
0.000405880033935941
8.450105942711974e-19
0.0004058800339359406
4.7396151897704e-19
0.0004058800339359404
2.246770711520461e-19
0.0004058800339359406
-1.201432828450679e-19
0.0004058800339359401
4.736097983118003e-19
0.0004058800339359395
6.663995296318797e-19
0.00040588003393594
-4.993064909713786e-19
0.0004058800339359398
9.687020426076392e-20
0.000405880033935939
6.44597333322489e-19
0.0004058800339359392
-1.998019948996732e-19
0.0004058800339359391
7.820343589674036e-20
0.0004058800339359388
3.849944299493201e-19
0.0004058800339359392
-4.078061634364689e-19
0.0004058800339359389
3.721744802017712e-19
0.0004058800339359385
3.065269709020132e-19
0.0004058800339359395
-9.181414376827467e-19
0.0004058800339359397
-3.181361228230333e-19
0.0004058800339359394
4.395494431020946e-19
0.0004058800339359398
-4.14704065480661e-19
0.0004058800339359404
-5.881109716202532e-19
0.0004058800339359409
-5.05992682810053e-19
0.0004058800339359409
-3.086618792287534e-20
0.000405880033935941
-1.605289682115759e-20
0.0004058800339359413
-3.589112335931192e-19
0.0004058800339359417
-3.707591933498888e-19
0.0004058800339359415
2.554772243924728e-19
0.000405880033935942
-3.689968573271823e-19
0.000405880033935943
-9.84556375187977e-19
0.0004058800339359429
1.295635122032376e-19
0.0004058800339359428
8.446473556664543e-20
0.0004058800339359433
-4.255429698728141e-19
0.0004058800339359432
8.556885737324832e-20
0.0004058800339359429
1.475804085284163e-19
0.0004058800339359436
-7.341211980879903e-19
0.0004058800339359435
6.564087988314322e-20
0.0004058800339359429
5.913077767200664e-19
0.0004058800339359432
-2.729843218777272e-19
0.000405880033935943
3.600161111263216e-20
0.0004058800339359424
6.114347286575017e-19
0.0004058800339359428
-4.171442608406608e-19
0.0004058800339359419
8.241570257084467e-19
0.0004058800339359411
7.900561555301926e-19
0.0004058800339359411
2.042671934467436e-20
0.0004058800339359404
6.567409017717153e-19
0.0004058800339359399
5.89816911337598e-19
0.0004058800339359402
-4.246430140663049e-19
0.0004058800339359388
1.347194640260616e-18
0.0004058800339359384
3.921823341871071e-19
0.000405880033935939
-5.435856149808512e-19
0.0004058800339359379
9.840451227610027e-19
0.0004058800339359366
1.339148138326039e-18
0.0004058800339359364
1.002764100494085e-19
0.0004058800339359366
-2.134922192209283e-19
0.0004058800339359351
1.447916615728563e-18
0.0004058800339359346
3.547634407532463e-19
0.0004058800339359344
1.8701436187469e-19
0.0004058800339359353
-1.048163404541162e-18
0.0004058800339359357
-3.278757749118157e-19
0.0004058800339359366
-1.071789501607347e-18
-6.455772074351287e-18
0.0006078664616115774
-3.361557499112584e-17
0.0006078664616115758
2.900018780104043e-18
0.0006078664616115763
1.142845072277651e-18
0.0006078664616115763
2.035980913369214e-18
0.000607866461611576
1.91477989500186e-18
0.0006078664616115752
1.680529722409887e-18
0.0006078664616115746
1.710199475010784e-18
0.000607866461611574
1.049352922263233e-18
0.0006078664616115739
4.149088996509995e-19
0.0006078664616115739
-1.226415418702637e-19
0.0006078664616115735
9.758681205207175e-19
0.0006078664616115727
1.458319648978259e-18
0.000607866461611573
-6.085432838091983e-19
0.0006078664616115731
-1.158688501147738e-19
0.0006078664616115726
8.546402443722954e-19
0.0006078664616115725
-1.063415711363405e-19
0.0006078664616115722
3.811110295879121e-19
0.000607866461611572
6.269036980319968e-19
0.0006078664616115723
-6.672464213176038e-19
0.000607866461611572
6.806640852741543e-19
0.0006078664616115721
8.196426236116751e-20
0.0006078664616115724
-1.105307065911201e-18
0.0006078664616115727
-7.985366579229529e-19
0.0006078664616115727
5.989938357287574e-19
0.0006078664616115733
-9.535883530693669e-19
0.0006078664616115743
-1.524925030846442e-18
0.0006078664616115741
-5.522710825648704e-19
0.0006078664616115744
-1.59973672040792e-19
0.0006078664616115744
1.470348311301229e-21
0.0006078664616115743
-3.455628625903864e-19
0.0006078664616115749
-9.061804043990858e-19
0.0006078664616115749
2.959473598369209e-19
0.0006078664616115753
-8.031596202896605e-19
0.0006078664616115766
-2.136440187278981e-18
0.0006078664616115762
5.93271418225306e-19
0.000607866461611576
3.663204600940321e-19
0.0006078664616115765
-1.042620887138131e-18
0.0006078664616115763
3.325019303316117e-19
0.0006078664616115762
8.612571710713051e-20
0.0006078664616115767
-1.173309985316971e-18
0.0006078664616115766
1.521485632120395e-19
0.0006078664616115761
1.185859501221357e-18
0.000607866461611576
-1.74376664695583e-19
0.0006078664616115758
1.857488594576837e-19
0.0006078664616115757
8.082867961234565e-19
0.0006078664616115751
1.386220349159155e-19
0.0006078664616115743
1.588135865205411e-18
0.0006078664616115736
1.572330689725143e-18
0.0006078664616115732
3.345293952508347e-19
0.000607866461611573
8.708973823085787e-19
0.0006078664616115722
1.382329131283777e-18
0.0006078664616115723
-6.187401380017168e-19
0.0006078664616115719
1.876629910453869e-18
0.0006078664616115712
9.692741441402239e-19
0.0006078664616115709
-1.806917328686397e-19
0.0006078664616115702
1.423740826219705e-18
0.0006078664616115693
2.318721371335095e-18
0.0006078664616115692
2.879722850984591e-19
0.0006078664616115682
7.074919172211858e-19
0.0006078664616115674
2.140556384724655e-18
0.0006078664616115664
1.268563856193029e-18
0.0006078664616115666
-2.097034905523356e-20
0.0006078664616115667
-1.143023394215062e-18
0.0006078664616115674
-1.15550178128154e-18
0.0006078664616115685
-2.205549970973592e-18
-1.051541357648619e-17
0.000732945802112761
-3.75593537496655e-17
0.0007329458021127596
4.300056396592949e-18
0.0007329458021127607
-6.490515424585667e-21
0.0007329458021127607
1.982603994431249e-18
0.0007329458021127605
2.270747221087863e-18
0.0007329458021127601
2.056694046673713e-18
0.0007329458021127601
1.861697299063627e-18
0.0007329458021127595
1.7442269497365e-18
0.0007329458021127591
8.944483543150707e-19
0.0007329458021127595
-5.784065281026618e-19
0.0007329458021127584
2.08477446036993e-18
0.0007329458021127583
1.702124963563133e-18
0.0007329458021127583
-6.960100718331242e-19
0.0007329458021127583
-1.078732722446905e-19
0.0007329458021127582
9.052689016944309e-19
0.0007329458021127579
1.873552147344838e-19
0.0007329458021127578
5.379163014197778e-19
0.0007329458021127584
-7.281772941309145e-21
0.0007329458021127586
-8.692634969693358e-19
0.0007329458021127578
1.625656256636953e-18
0.0007329458021127573
4.83393046040564e-19
0.0007329458021127578
-1.455322963600603e-18
0.0007329458021127572
-5.027791337366956e-19
0.000732945802112758
-1.530406935391462e-20
0.0007329458021127583
-1.247596636012422e-18
0.0007329458021127583
-1.467065643692415e-18
0.0007329458021127583
-7.182248497718093e-19
0.0007329458021127586
-4.860118097331824e-19
0.0007329458021127591
-2.509009673861245e-19
0.0007329458021127588
-2.45642634448685e-19
0.0007329458021127591
-8.978363257288714e-19
0.0007329458021127593
3.055166619949121e-20
0.0007329458021127601
-1.720372151562457e-18
0.0007329458021127598
-1.783654758618069e-18
0.0007329458021127598
5.297446643684384e-19
0.0007329458021127598
4.794769851480736e-19
0.0007329458021127598
-9.843134467392713e-19
0.0007329458021127601
-3.435590600004096e-20
0.0007329458021127596
3.958273805737544e-19
0.0007329458021127598
-1.249962397575531e-18
0.0007329458021127611
-1.291723220043006e-18
0.00073294580211276
2.409229323704607e-18
0.0007329458021127595
2.715896235675925e-19
0.0007329458021127595
7.810091582071153e-20
0.0007329458021127584
1.874452048552724e-18
0.0007329458021127584
1.050586490340966e-19
0.0007329458021127578
2.155097176849854e-18
0.0007329458021127584
1.069167007357853e-18
0.0007329458021127572
1.537839551261151e-18
0.0007329458021127569
1.063668086720481e-18
0.0007329458021127567
1.78182070562913e-18
0.0007329458021127567
-6.665622443250943e-19
0.0007329458021127557
2.794626416940352e-18
0.000732945802112756
7.584937679631811e-19
0.0007329458021127549
9.514608921165407e-19
0.0007329458021127556
6.373902903439834e-19
0.0007329458021127544
3.592859287493755e-18
0.0007329458021127543
4.054919589863317e-19
0.0007329458021127533
1.679408427609093e-18
0.000732945802112753
2.462976707515676e-18
0.000732945802112752
2.181412331746175e-18
0.000732945802112752
-1.358086948807234e-20
0.0007329458021127516
-7.040026546803266e-19
0.0007329458021127533
-2.882766087828867e-18
0.000732945802112754
-2.917959618600995e-18
-1.336863832765024e-17
0.0008470172080477096
-4.147317192011076e-17
0.0008470172080477061
8.159976252785634e-18
0.0008470172080477074
-1.144100539404368e-18
0.0008470172080477101
-3.977668144085332e-19
0.0008470172080477101
2.478500083935361e-18
0.00084701720804771
2.335286842151497e-18
0.0008470172080477094
2.625973021727305e-18
0.0008470172080477089
2.30417013371267e-18
0.0008470172080477085
1.202823587742758e-18
0.000847017208047708
-7.682475678625673e-20
0.0008470172080477082
1.919198213888018e-18
0.0008470172080477082
1.863255222680081e-18
0.0008470172080477074
1.316921643237404e-19
0.0008470172080477072
7.076838770790366e-20
0.0008470172080477077
3.384953886807137e-19
0.0008470172080477072
5.479273249192922e-19
0.0008470172080477071
6.935974756473294e-19
0.0008470172080477064
8.860466151772622e-19
0.0008470172080477071
-1.698801259987408e-18
0.0008470172080477079
8.865353331622151e-19
0.0008470172080477078
5.322095331738879e-19
0.0008470172080477069
-5.487131600369305e-19
0.0008470172080477069
-5.158070319327728e-19
0.0008470172080477084
-1.450711044088799e-18
0.0008470172080477085
-1.327804245659721e-18
0.0008470172080477093
-2.216343572008357e-18
0.0008470172080477082
2.870471070966106e-19
0.0008470172080477079
-1.868637036120894e-19
0.0008470172080477082
-4.375803782606622e-19
0.0008470172080477078
-7.460107307095466e-21
0.0008470172080477082
-1.110547871158253e-18
0.0008470172080477085
-3.299319428236705e-19
0.0008470172080477076
-7.388392736269478e-19
0.0008470172080477089
-3.029417384174417e-18
0.0008470172080477089
3.9836330153042e-19
0.0008470172080477093
1.037026737585753e-19
0.0008470172080477091
-7.199683928432297e-19
0.000847017208047709
-3.519791790580222e-20
0.0008470172080477085
6.958987834885603e-19
0.0008470172080477094
-1.928805055636651e-18
0.0008470172080477081
-1.369404877030859e-19
0.0008470172080477089
1.74264698359131e-18
0.0008470172080477084
6.630586292486731e-19
0.0008470172080477085
-6.878803223660522e-20
0.0008470172080477077
2.701744227688557e-18
0.0008470172080477072
5.767481416405944e-19
0.0008470172080477066
2.629742060001856e-18
0.0008470172080477056
2.175354426682656e-18
0.0008470172080477059
1.186860277772051e-18
0.0008470172080477055
1.388972188208891e-18
0.0008470172080477053
2.207201615666325e-18
0.0008470172080477053
-7.894079274329183e-19
0.0008470172080477051
2.958788183405532e-18
0.0008470172080477053
6.211216546410862e-19
0.0008470172080477046
1.557705839910149e-18
0.0008470172080477026
2.582613990018395e-18
0.0008470172080477032
3.077643241906217e-18
0.000847017208047703
5.400427640881896e-19
0.0008470172080477019
2.831256000464624e-18
0.0008470172080477027
1.561261612786482e-18
0.0008470172080477019
2.745336610282277e-18
0.0008470172080477019
-2.909666601296589e-20
0.0008470172080477016
-3.407342066980061e-19
0.0008470172080477003
-1.657953984025697e-18
0.0008470172080477031
-5.762464889057618e-18
-1.601166643406794e-17
0.001149082602559827
-4.534335019027866e-17
0.001149082602559826
9.483173522945621e-18
0.001149082602559827
-2.251184276494061e-18
0.001149082602559829
-1.983100956877973e-18
0.00114908260255983
1.618941090376129e-18
0.00114908260255983
2.594399719246714e-18
0.001149082602559829
3.302924827893359e-18
0.001149082602559829
2.821332320217698e-18
0.001149082602559828
1.310345770204255e-18
0.001149082602559827
1.579850680728027e-18
0.001149082602559829
9.204601986413365e-20
0.001149082602559828
3.097730165884917e-18
0.001149082602559827
4.902049732440371e-19
0.001149082602559827
1.968709144039924e-19
0.001149082602559827
3.091723506740679e-19
0.001149082602559826
1.150442928259801e-18
0.001149082602559826
9.581119890826433e-19
0.001149082602559827
7.367281889634443e-19
0.001149082602559825
-2.43979680501248e-19
0.001149082602559825
7.3388689231913e-19
0.001149082602559825
9.088557094636693e-19
0.001149082602559826
-1.364221412118378e-18
0.001149082602559826
-8.051457903115217e-19
0.001149082602559825
-8.98633074752444e-19
0.001149082602559825
-1.33988408257791e-18
0.001149082602559826
-2.681877996240203e-18
0.001149082602559826
-1.170938403275142e-19
0.001149082602559827
-1.266812667502653e-18
0.001149082602559827
1.463189546565133e-19
0.001149082602559827
-7.450172283341461e-19
0.001149082602559827
-2.301708332882939e-19
0.001149082602559829
-2.237824853346341e-18
0.001149082602559827
9.967048608769504e-19
0.001149082602559829
-4.989771488169496e-18
0.001149082602559827
2.321905049445203e-18
0.00114908260255983
-2.221130934071561e-18
0.001149082602559828
1.068945131784282e-18
0.001149082602559829
-1.034666317655423e-18
0.001149082602559828
8.916192677123653e-19
0.001149082602559828
-2.020409673951503e-18
0.001149082602559828
-6.066223641088587e-20
0.001149082602559828
1.884500494694354e-18
0.001149082602559828
1.312701003554936e-18
0.001149082602559828
-3.029715181094557e-19
0.001149082602559827
3.681603603190928e-18
0.001149082602559827
9.275763165388726e-19
0.001149082602559826
3.082543512341532e-18
0.001149082602559825
2.703682558266931e-18
0.001149082602559825
2.074803254712543e-18
0.001149082602559824
2.164498099721919e-18
0.001149082602559824
1.980908105293257e-18
0.001149082602559824
-5.728241256595726e-19
0.001149082602559823
3.621821415881843e-18
0.001149082602559822
2.2457415053206e-18
0.001149082602559821
2.560841004667059e-18
0.001149082602559821
2.169421410308211e-18
0.00114908260255982
3.846206146152738e-18
0.001149082602559822
-1.032590571494051e-18
0.00114908260255982
4.392062121964507e-18
0.001149082602559821
1.086769845874282e-18
0.00114908260255982
3.275368104013483e-18
0.001149082602559819
7.134621352243519e-19
0.001149082602559819
1.921549222405934e-19
0.001149082602559819
-1.611982474540255e-18
0.001149082602559821
-8.19723152919667e-18
-1.804150651394215e-17
0.001928356334767906
-5.018884552355607e-17
0.001928356334767909
6.601340140477543e-18
0.001928356334767909
-2.839451606285324e-18
0.001928356334767912
-4.465071619244178e-18
0.001928356334767914
-1.735111648262349e-19
0.001928356334767912
4.507386845268475e-18
0.001928356334767912
4.080174279019295e-18
0.001928356334767913
1.50624129325741e-18
0.001928356334767911
3.478154576495417e-18
0.001928356334767913
-7.842719009800631e-19
0.001928356334767911
2.55046373229239e-18
0.001928356334767908
5.472397895561187e-18
0.001928356334767909
-4.397772512842833e-19
0.00192835633476791
-6.663443392518082e-19
0.001928356334767909
1.165249532508705e-18
0.001928356334767909
1.461360640352368e-18
0.00192835633476791
-8.594153429098821e-21
0.001928356334767908
2.570888429636301e-18
0.00192835633476791
-2.548192869864218e-18
0.001928356334767911
3.157383169191107e-19
0.001928356334767908
3.376064920443945e-18
0.00192835633476791
-2.658533413024234e-18
0.001928356334767907
9.597198172345741e-19
0.001928356334767908
-1.532596288807894e-18
0.001928356334767909
-1.75847521722321e-18
0.001928356334767909
-3.042790741320973e-18
0.001928356334767911
-2.425127613863155e-18
0.00192835633476791
6.260188030998565e-19
0.001928356334767911
-1.198314555221817e-18
0.001928356334767911
-5.082114953243564e-19
0.001928356334767913
-2.595356183968913e-18
0.00192835633476791
1.302119932491124e-18
0.001928356334767914
-3.387768176840713e-18
0.001928356334767912
-3.060462739851872e-18
0.001928356334767911
2.964901258533386e-18
0.001928356334767912
-2.977559508058678e-18
0.001928356334767915
-1.852867208826519e-18
0.001928356334767915
-9.50781694859947e-19
0.001928356334767912
3.310253159081526e-18
0.001928356334767912
-1.23421222038893e-18
0.001928356334767912
-9.600544133291401e-19
0.00192835633476791
4.431208902829254e-18
0.00192835633476791
1.354335354280863e-18
0.001928356334767912
-3.014037354092118e-18
0.00192835633476791
6.774765926018383e-18
0.001928356334767909
1.69209931163485e-18
0.001928356334767907
3.982125497488937e-18
0.001928356334767907
3.298967924999799e-18
0.001928356334767905
3.664817571780213e-18
0.001928356334767905
2.330939307794115e-18
0.001928356334767907
9.825301318241968e-19
0.001928356334767904
1.46591097789811e-18
0.001928356334767904
4.070199435512718e-18
0.001928356334767904
1.841161025243377e-18
0.001928356334767905
2.14628901341963e-18
0.001928356334767902
4.867683944919474e-18
0.001928356334767901
4.690372014342627e-18
0.001928356334767902
-2.094009218427718e-18
0.001928356334767899
7.931064197381508e-18
0.001928356334767899
6.98015560654943e-19
0.0019283563347679
1.867747104256388e-18
0.0019283563347679
1.270771132886887e-18
0.001928356334767897
2.529097753215922e-18
0.001928356334767895
1.896084535822139e-19
0.001928356334767901
-1.365636841220112e-17
-1.799272572578363e-17
0.003219446733060219
-5.540214061968531e-17
0.00321944673306023
-4.869923902549536e-18
0.003219446733060233
-5.5703878218796e-18
0.003219446733060233
-4.388294246656907e-18
0.003219446733060234
-1.167668296696057e-18
0.003219446733060237
1.4037005627884e-18
0.003219446733060237
4.996288635891237e-18
0.003219446733060234
4.755817978736617e-18
0.003219446733060236
5.653798110545658e-19
0.003219446733060232
2.809794950147374e-18
0.003219446733060232
3.126756477277966e-18
0.003219446733060234
2.933707351773882e-18
0.003219446733060233
1.657817146182953e-18
0.003219446733060231
9.240187299105388e-19
0.003219446733060231
4.779765248331344e-19
0.003219446733060231
2.080359485472027e-18
0.00321944673306023
1.078863423171907e-18
0.003219446733060232
2.411941730859661e-19
0.00321944673306023
-6.963575772094583e-19
0.003219446733060231
1.987040089522499e-19
0.003219446733060232
1.265469860829893e-18
0.00321944673306023
9.998923855787937e-20
0.003219446733060232
-1.222996418523506e-18
0.003219446733060233
-2.120957596300366e-18
0.003219446733060234
-2.701767897693636e-18
0.003219446733060236
-5.198377670737653e-18
0.003219446733060234
-1.208979895578074e-18
0.003219446733060234
-4.104174226175005e-19
0.003219446733060237
-3.7488054421051e-18
0.003219446733060227
9.209260615766514e-18
0.003219446733060236
-1.0912563753897e-17
0.00321944673306024
-2.37179459322691e-18
0.003219446733060237
-1.511700597537863e-18
0.003219446733060238
-3.565005893630705e-18
0.00321944673306024
1.463455144295545e-18
0.003219446733060238
-1.476071108890635e-18
0.003219446733060239
-2.964962560042259e-18
0.003219446733060239
-4.152953224300749e-19
0.00321944673306024
1.192721755444225e-18
0.003219446733060241
-1.46512239136475e-18
0.003219446733060237
3.056181699233056e-18
0.003219446733060238
3.11432354166458e-18
0.003219446733060238
1.762800725925862e-18
0.003219446733060235
-6.529111281339003e-19
0.003219446733060237
6.124149180581027e-18
0.003219446733060237
1.485644031309095e-18
0.003219446733060234
5.9581000095963e-18
0.003219446733060234
3.330397631861631e-18
0.003219446733060232
5.778949406737122e-18
0.003219446733060231
3.710879425886468e-18
0.003219446733060227
5.184390104462424e-18
0.003219446733060228
2.322834057405384e-19
0.003219446733060227
4.676810711119138e-18
0.003219446733060227
2.666612452476471e-18
0.003219446733060222
6.805900160415636e-18
0.003219446733060223
3.795199827896817e-18
0.003219446733060222
6.110652153083449e-18
0.003219446733060218
1.152099992582605e-18
0.00321944673306022
6.153557456097633e-18
0.003219446733060221
6.175430430584118e-19
0.003219446733060217
4.915495909112032e-18
0.003219446733060215
3.142234680499238e-18
0.003219446733060218
-5.440034640557143e-19
0.003219446733060215
3.433105067817547e-18
0.003219446733060215
-1.398101618563208e-17
-1.572433546377475e-17
0.004514098014910154
-6.518960307961573e-17
0.004514098014910164
-1.482270842389257e-17
0.004514098014910166
-8.027004708264119e-18
0.004514098014910168
-6.246607354620189e-18
0.004514098014910168
-7.729487793296596e-19
0.004514098014910169
4.346022530894744e-19
0.004514098014910171
2.944853245169292e-18
0.00451409801491017
6.089685077611664e-18
0.004514098014910169
1.14594353360634e-18
0.004514098014910169
2.94214449551353e-18
0.004514098014910168
3.736045692813882e-18
0.004514098014910169
3.097304156303301e-18
0.004514098014910168
1.70866396315491e-18
0.004514098014910168
9.870692158217153e-19
0.004514098014910167
7.583028345881717e-19
0.004514098014910169
5.030098647282049e-19
0.004514098014910174
-2.948925412466926e-18
0.00451409801491017
4.949681739081175e-18
0.00451409801491017
-1.294939109603857e-18
0.00451409801491017
-1.037118612084038e-20
0.004514098014910169
1.465360053052298e-18
0.00451409801491017
9.673271383673883e-21
0.004514098014910169
-9.052819923490467e-19
0.004514098014910171
-3.933676019886181e-18
0.004514098014910172
-3.378021770083756e-18
0.004514098014910175
-7.400555068155275e-18
0.004514098014910176
-3.287070985881781e-18
0.004514098014910177
-8.758446804616257e-19
0.004514098014910179
-5.691848894534774e-18
0.004514098014910189
-1.088671147985623e-18
0.00451409801491018
-1.674101939342663e-18
0.004514098014910183
-5.293765219095534e-18
0.004514098014910182
-1.175777036736431e-18
0.004514098014910184
-6.055263494306488e-18
0.004514098014910183
2.767778982050976e-18
0.004514098014910185
-3.136901286196578e-18
0.004514098014910186
-3.591570570187925e-18
0.004514098014910186
-9.200809892528794e-19
0.004514098014910184
3.501430696530689e-18
0.004514098014910184
-1.047043452791594e-18
0.004514098014910182
5.489292034213164e-18
0.004514098014910182
3.730786270780149e-18
0.004514098014910178
4.845270290975215e-18
0.004514098014910177
9.726456569666879e-19
0.004514098014910177
5.780189290242811e-18
0.004514098014910178
7.363562706419498e-19
0.004514098014910176
6.519653516642031e-18
0.004514098014910174
5.531132734217531e-18
0.004514098014910171
8.255616411166865e-18
0.004514098014910169
5.238338517563097e-18
0.004514098014910168
7.583358558712139e-18
0.004514098014910166
1.504701785188832e-18
0.004514098014910164
6.310828271918013e-18
0.004514098014910165
1.72836961113131e-18
0.004514098014910164
7.865141590711047e-18
0.004514098014910161
6.976659740953679e-18
0.004514098014910159
8.351266574431998e-18
0.004514098014910158
2.009722922989963e-18
0.004514098014910155
9.170902057202919e-18
0.004514098014910153
1.855127926454502e-18
0.004514098014910152
5.070935978977804e-18
0.00451409801491015
5.96815594959888e-18
0.004514098014910151
-1.420656777714536e-18
0.004514098014910148
6.355313095184848e-18
0.004514098014910151
-1.688934320290057e-17
-9.406177834296467e-18
0.005337473105611517
-6.037075397507998e-17
0.005337473105611539
-3.628891601191086e-17
0.005337473105611541
-1.084855585746783e-17
0.005337473105611544
-9.001052444068622e-18
0.005337473105611544
-1.393672014390737e-18
0.005337473105611544
1.337890451715332e-18
0.005337473105611545
2.288374763993641e-18
0.00533747310561155
1.535845665551451e-18
0.005337473105611548
2.954612647342298e-18
0.005337473105611544
6.981408099412252e-18
0.005337473105611542
5.727769293229764e-18
0.005337473105611544
1.255416198187549e-18
0.005337473105611551
-4.581709645966975e-18
0.005337473105611545
7.143147928568381e-18
0.005337473105611545
4.446672773289161e-19
0.005337473105611546
-5.138947613273418e-19
0.005337473105611544
1.488726992020815e-19
0.00533747310561155
-7.268589979621677e-19
0.005337473105611548
3.381183480752858e-19
0.005337473105611553
-5.464351861665149e-18
0.005337473105611549
5.480346973706218e-18
0.00533747310561155
-1.152498426704864e-18
0.005337473105611556
-6.821024607068873e-18
0.005337473105611559
-6.120594313664928e-18
0.005337473105611556
4.544764024069157e-19
0.005337473105611558
-9.883985554219372e-18
0.005337473105611558
-4.532974990208062e-18
0.005337473105611568
-9.580893538209013e-18
0.005337473105611564
-1.896311651370366e-18
0.005337473105611563
-1.980677923248114e-19
0.005337473105611571
-9.071670390219732e-18
0.005337473105611569
-2.904541037802639e-18
0.005337473105611567
-2.193958360530318e-19
0.00533747310561157
-8.90194197898191e-18
0.005337473105611576
-4.280723210603013e-18
0.005337473105611572
1.902463993534634e-18
0.005337473105611573
-4.020196703964043e-18
0.005337473105611571
6.428797534553134e-19
0.005337473105611568
6.091611948471673e-18
0.005337473105611569
-1.007083376644929e-18
0.005337473105611567
7.107456491452643e-18
0.005337473105611572
-6.459680205493184e-19
0.00533747310561157
7.783872788754798e-18
0.00533747310561156
9.270893028958533e-18
0.005337473105611567
1.789245064213149e-19
0.005337473105611566
8.886980804312454e-19
0.005337473105611564
7.407864612213014e-18
0.005337473105611558
1.198546160258352e-17
0.005337473105611556
1.120711641439836e-17
0.005337473105611551
8.369092996777532e-18
0.00533747310561155
1.007545459487167e-17
0.005337473105611549
3.112678588669355e-18
0.00533747310561155
4.515595337105599e-18
0.005337473105611544
8.100051727150979e-18
0.005337473105611543
9.777547835468594e-18
0.005337473105611542
7.385091644979793e-18
0.005337473105611545
5.82106866723205e-18
0.005337473105611541
6.580992930102366e-18
0.005337473105611535
1.52789491165247e-17
0.005337473105611531
4.568104093568538e-18
0.005337473105611534
1.552272679458335e-18
0.005337473105611532
8.146872657153809e-18
0.005337473105611528
3.518980362788547e-18
0.005337473105611524
1.025304658724288e-17
0.005337473105611527
-2.067162886873984e-17
-3.602358223074912e-18
0.005745953193648077
-6.313740552980409e-17
0.005745953193648094
-5.323339896024724e-17
0.005745953193648091
-8.799252053940767e-18
0.005745953193648093
-1.071235782475678e-17
0.005745953193648105
-1.353489983539981e-17
0.005745953193648094
1.307153501760019e-17
0.005745953193648093
4.652835265598437e-18
0.005745953193648094
2.119026971506797e-19
0.005745953193648088
9.051109043386716e-18
0.005745953193648093
1.651952237848252e-18
0.005745953193648103
-4.82862105718661e-18
0.005745953193648095
1.147404109939512e-17
0.005745953193648091
-1.614898214378421e-18
0.005745953193648097
3.848905965344659e-19
0.005745953193648099
-1.748048041355438e-18
0.005745953193648101
-1.973390518857632e-18
0.005745953193648101
3.379636712175255e-19
0.005745953193648102
-1.010986690409959e-18
0.005745953193648101
5.935819778447958e-19
0.005745953193648097
-1.156497553240633e-18
0.00574595319364811
-8.410268868621683e-18
0.005745953193648108
1.974366183806232e-18
0.005745953193648101
-9.41144268156176e-19
0.005745953193648103
-7.387687045929844e-18
0.005745953193648111
-7.558049486645542e-18
0.005745953193648114
-1.240793982146616e-17
0.005745953193648115
-6.83439901750656e-18
0.005745953193648113
-7.546174426034339e-18
0.005745953193648121
-8.59584007797192e-18
0.005745953193648122
-1.809780151205782e-18
0.005745953193648118
-4.424231800549486e-18
0.005745953193648123
-8.15624657932798e-18
0.005745953193648127
-4.601719264229013e-18
0.005745953193648129
-1.112420478963078e-17
0.005745953193648126
-9.391545219718326e-19
0.00574595319364813
-2.524437614249416e-18
0.005745953193648131
-4.677273037692915e-18
0.00574595319364813
1.239614292270879e-18
0.005745953193648128
7.340754838666829e-18
0.005745953193648126
1.588336111225496e-18
0.005745953193648125
7.421239996525223e-18
0.005745953193648118
7.320670045274523e-18
0.005745953193648115
1.120115499627698e-17
0.005745953193648119
3.886840231132799e-18
0.005745953193648114
6.168078469987111e-18
0.005745953193648113
1.963278453817888e-18
0.005745953193648111
7.745974559324826e-18
0.005745953193648116
8.04781215159204e-18
0.005745953193648112
1.510250537041298e-17
0.005745953193648108
1.162023576623078e-17
0.005745953193648105
1.347040824666185e-17
0.005745953193648105
3.368148148902239e-18
0.005745953193648098
1.160630053287058e-17
0.0057459531936481
6.003148997125956e-18
0.005745953193648096
1.406627484736009e-17
0.005745953193648096
6.950355110321951e-18
0.00574595319364809
1.301890700898424e-17
0.005745953193648097
3.901148881810825e-20
0.005745953193648088
2.395398288354415e-17
0.005745953193648085
6.968187914238488e-18
0.00574595319364809
-3.269575135624111e-18
0.005745953193648077
2.098643330993343e-17
0.005745953193648082
-6.998763756714056e-19
0.005745953193648089
3.909026501552011e-18
0.005745953193648078
-1.005786235274434e-17
-4.135070497534879e-20
0.005979122977661355
-6.777425714004695e-17
0.005979122977661358
-5.598307214712304e-17
0.005979122977661365
-1.672650526403442e-17
0.00597912297766136
-6.214333345615232e-18
0.005979122977661354
-7.580467690309173e-18
0.005979122977661364
2.282981772352561e-18
0.00597912297766136
1.081864965133815e-17
0.005979122977661359
1.30757552889003e-18
0.005979122977661363
3.690079757674553e-18
0.005979122977661366
-9.353831131083868e-19
0.005979122977661355
6.379142675819161e-18
0.005979122977661368
-6.108763984121598e-19
0.005979122977661368