/*--------------------------------*- C++ -*----------------------------------*\
| =========                 |                                                 |
| \\      /  F ield         | OpenFOAM: The Open Source CFD Toolbox           |
|  \\    /   O peration     | Version:  v1812                                 |
|   \\  /    A nd           | Web:      www.OpenFOAM.com                      |
|    \\/     M anipulation  |                                                 |
\*---------------------------------------------------------------------------*/
FoamFile
{
    version     2.0;
    format      ascii;
    class       volVectorField;
    location    "10000";
    object      U;
}
// * * * * * * * * * * * * * * * * * * * * * * * * * * * * * * * * * * * * * //

dimensions      [0 1 -1 0 0 0 0];


internalField   nonuniform List<vector> 
2838
(
(0.3377797312088018 -1.010030380968522e-15 5.375710564808977e-06)
(0.3377797312087895 1.401344118281227e-16 5.375875352579912e-06)
(0.337779731208792 2.280974082313571e-16 5.375886610167796e-06)
(0.3377797312087925 1.175769992671086e-16 5.375877268405069e-06)
(0.3377797312087913 3.482133473415191e-17 5.375880319029337e-06)
(0.3377797312087907 1.631054575238418e-17 5.375866481215408e-06)
(0.3377797312087903 1.161520303475606e-17 5.375869723142729e-06)
(0.3377797312087895 1.48830111965786e-18 5.37585416837571e-06)
(0.3377797312087896 1.923924893308627e-17 5.375859004403004e-06)
(0.3377797312087896 8.682166727004631e-18 5.375841974778039e-06)
(0.3377797312087896 2.96612499908428e-17 5.375848847812688e-06)
(0.3377797312087887 3.974820957562368e-17 5.375830115590235e-06)
(0.3377797312087886 -4.118067254543815e-17 5.37583931485178e-06)
(0.3377797312087891 5.349360408983403e-18 5.375818517876711e-06)
(0.3377797312087886 2.141315808104488e-17 5.375830342022305e-06)
(0.337779731208788 -2.061144384682073e-17 5.375807052291363e-06)
(0.3377797312087887 8.514590424365915e-18 5.375821853777391e-06)
(0.337779731208788 2.39453192593002e-17 5.375795587829167e-06)
(0.337779731208788 -3.899067283199662e-17 5.375813789689e-06)
(0.3377797312087885 -2.658892737285879e-17 5.375784003431661e-06)
(0.337779731208788 1.715906145690668e-17 5.375806109628813e-06)
(0.3377797312087877 -6.727225761802518e-18 5.375772188322975e-06)
(0.337779731208789 -2.163608402070299e-18 5.375798793423304e-06)
(0.3377797312087887 -1.186796471562351e-17 5.375760039730037e-06)
(0.3377797312087882 2.053164445574183e-18 5.375791839530352e-06)
(0.3377797312087895 -1.36738297177772e-17 5.375747460379287e-06)
(0.3377797312087893 -2.541151138460966e-17 5.375785263925109e-06)
(0.3377797312087902 -1.961662886114165e-17 5.375734356343854e-06)
(0.3377797312087898 1.33052543957137e-17 5.375779099397839e-06)
(0.3377797312087897 1.142404590998277e-17 5.375720635275918e-06)
(0.3377797312087903 -4.584343014467713e-17 5.375773395170868e-06)
(0.3377797312087906 1.557360431029833e-17 5.375706204977221e-06)
(0.3377797312087899 -1.033607865576726e-17 5.375768216677787e-06)
(0.3377797312087917 -7.431609613889581e-17 5.375690972185294e-06)
(0.3377797312087918 1.628121950888721e-17 5.375763645375978e-06)
(0.3377797312087908 5.731312584977237e-17 5.375674841572665e-06)
(0.3377797312087921 -1.070962591078422e-17 5.375759778437892e-06)
(0.3377797312087914 -4.741592100346998e-17 5.375657714907839e-06)
(0.3377797312087915 -7.014479811701578e-18 5.375756728217029e-06)
(0.3377797312087915 1.901247425422521e-17 5.375639490427652e-06)
(0.337779731208793 2.897583905270912e-18 5.375754621378985e-06)
(0.3377797312087907 4.430953907734962e-18 5.375620062443185e-06)
(0.3377797312087924 -4.019004713696764e-17 5.37575359761953e-06)
(0.337779731208791 -1.064301126134324e-17 5.375599321258931e-06)
(0.337779731208792 2.876024276043989e-17 5.375753807893641e-06)
(0.33777973120879 -1.387390002971648e-17 5.375577153439486e-06)
(0.337779731208792 7.66451096673843e-17 5.375755412138395e-06)
(0.3377797312087893 1.622595493011986e-17 5.375553442471869e-06)
(0.337779731208791 -3.407569321885546e-17 5.37575857649388e-06)
(0.3377797312087887 3.352494708945785e-17 5.375528069839292e-06)
(0.33777973120879 2.183952020742061e-17 5.375763470007977e-06)
(0.337779731208788 -7.686592789030344e-18 5.375500916671575e-06)
(0.3377797312087902 3.576872297084901e-17 5.375770260489758e-06)
(0.3377797312087855 -1.369921967154874e-17 5.375471866881411e-06)
(0.3377797312087901 -3.298855043903214e-17 5.375779107553085e-06)
(0.337779731208786 4.099250696814614e-17 5.375440816012294e-06)
(0.3377797312087888 1.08224021601231e-18 5.375790144309729e-06)
(0.337779731208783 4.581031539486858e-17 5.375407703083136e-06)
(0.3377797312087896 5.929441098499464e-18 5.375803413110019e-06)
(0.3377797312087824 4.524098835382465e-17 5.375372635298941e-06)
(0.3377797312087882 -3.454131727558184e-18 5.37581861335539e-06)
(0.3377797312087801 1.443697590015355e-17 5.375336399195021e-06)
(0.3377797312087891 -4.358405329512044e-17 5.375834037612663e-06)
(0.3377797312087797 -2.355906176778759e-17 5.375302607289888e-06)
(0.3377797312087923 7.076792042311164e-17 5.375840882628114e-06)
(0.3377797312087785 -2.978839210853939e-16 5.375279056992718e-06)
(0.5056198815561169 -1.382747965879484e-15 8.076054749841251e-06)
(0.505619881556108 4.716122865739677e-16 8.076296809295552e-06)
(0.5056198815561094 2.449976485187807e-16 8.076299287734246e-06)
(0.5056198815561107 9.379740717604557e-17 8.076281065367718e-06)
(0.5056198815561103 4.681573791976489e-17 8.076283564230108e-06)
(0.5056198815561096 3.639440321058642e-17 8.076262683774587e-06)
(0.5056198815561094 4.59886417644485e-17 8.076266860512551e-06)
(0.5056198815561084 4.530357642102122e-17 8.076244064672244e-06)
(0.5056198815561084 2.411445751053866e-17 8.07625078863408e-06)
(0.5056198815561082 2.12658717370307e-17 8.076225967134771e-06)
(0.5056198815561083 5.623535983895414e-17 8.076235679234551e-06)
(0.5056198815561076 7.357290930631708e-17 8.076208409999277e-06)
(0.5056198815561073 -3.696379139378803e-17 8.076221485145483e-06)
(0.5056198815561075 -6.029498350438358e-18 8.076191222985045e-06)
(0.5056198815561075 5.059024827842604e-17 8.076208084550308e-06)
(0.5056198815561069 -2.130591679708775e-17 8.076174205871059e-06)
(0.505619881556107 4.727988851355379e-18 8.076195363985093e-06)
(0.5056198815561066 4.168410179770571e-17 8.076157168741575e-06)
(0.5056198815561067 -4.358481561438549e-17 8.076183238029527e-06)
(0.505619881556107 -8.36524697442665e-18 8.076139938643257e-06)
(0.5056198815561065 5.231913533284793e-18 8.076171651590933e-06)
(0.5056198815561066 -4.579720092609286e-17 8.076122357387679e-06)
(0.5056198815561072 -2.128077639561444e-17 8.076160578132414e-06)
(0.5056198815561072 1.978231136594283e-17 8.07610427765977e-06)
(0.5056198815561073 -3.330638719896225e-17 8.076150017619563e-06)
(0.505619881556108 -5.152579729938674e-17 8.076085559393882e-06)
(0.5056198815561084 -3.510721767992912e-17 8.076139995078044e-06)
(0.5056198815561085 -3.260170318903356e-18 8.076066066775711e-06)
(0.5056198815561089 -1.001142823253169e-18 8.076130559797926e-06)
(0.5056198815561082 -1.496618611017527e-17 8.076045665805347e-06)
(0.5056198815561089 -3.882073728269509e-17 8.076121785001602e-06)
(0.5056198815561093 1.400668869129664e-18 8.076024222284016e-06)
(0.5056198815561088 -3.461349025502759e-17 8.07611376770834e-06)
(0.50561988155611 -9.849074295348331e-17 8.076001600082082e-06)
(0.5056198815561106 3.350601813395078e-17 8.076106628640325e-06)
(0.5056198815561095 1.538000718723075e-17 8.075977659651174e-06)
(0.5056198815561104 -4.438569762738926e-17 8.07610051192926e-06)
(0.5056198815561098 1.527942142845192e-17 8.075952256729715e-06)
(0.5056198815561105 3.102889424610626e-17 8.076095584498994e-06)
(0.5056198815561098 -4.106642171640575e-17 8.075925241320896e-06)
(0.5056198815561116 -1.604579409631486e-17 8.076092034948407e-06)
(0.5056198815561093 3.009900637160176e-17 8.075896456975604e-06)
(0.505619881556111 -4.328394226218635e-17 8.076090071836767e-06)
(0.5056198815561089 -6.336508163502004e-18 8.075865740510014e-06)
(0.5056198815561106 6.226722193701589e-17 8.076089921234467e-06)
(0.5056198815561082 1.729176158638567e-17 8.075832922237578e-06)
(0.50561988155611 8.566029024365309e-17 8.076091823523042e-06)
(0.5056198815561069 4.855914157669092e-17 8.075797826785212e-06)
(0.5056198815561092 9.563309249148053e-18 8.076096029417396e-06)
(0.5056198815561063 2.724679971144683e-17 8.075760274522762e-06)
(0.5056198815561085 2.742067255331429e-17 8.076102795277553e-06)
(0.5056198815561052 -1.841481174587693e-17 8.075720083683153e-06)
(0.5056198815561087 1.171076517076131e-16 8.076112377547055e-06)
(0.5056198815561033 2.514147456340517e-17 8.075677073782257e-06)
(0.5056198815561087 -5.712855135696913e-17 8.07612502495919e-06)
(0.5056198815561027 6.29028254192946e-17 8.075631073551981e-06)
(0.5056198815561079 1.451725190753894e-16 8.076140961869287e-06)
(0.5056198815561008 1.18098475141511e-17 8.075581947001027e-06)
(0.5056198815561078 -6.874441437231975e-18 8.076160335634023e-06)
(0.5056198815560989 8.366393829280538e-17 8.075529691551427e-06)
(0.5056198815561073 4.776199065067331e-17 8.076183020464852e-06)
(0.5056198815560965 1.287960569733781e-17 8.07547482055817e-06)
(0.505619881556108 -4.914309504914338e-17 8.076207817514025e-06)
(0.5056198815560956 -6.439247195141185e-17 8.075419729925693e-06)
(0.5056198815561108 1.145975983517622e-17 8.076227368359399e-06)
(0.5056198815560959 -6.621334629636264e-16 8.075358841198709e-06)
(0.6051828043365455 -1.562597333566787e-15 9.690401868565361e-06)
(0.6051828043365378 7.40764039495813e-16 9.690588616168116e-06)
(0.6051828043365387 2.131980059715117e-16 9.690585352102972e-06)
(0.6051828043365409 2.51780102637366e-17 9.690561679233842e-06)
(0.605182804336541 4.826958193086434e-17 9.69056270371292e-06)
(0.6051828043365404 5.938757574244547e-17 9.690538199258562e-06)
(0.6051828043365406 7.465724879182271e-17 9.690542141872277e-06)
(0.6051828043365398 7.372016643825098e-17 9.690515979376452e-06)
(0.6051828043365395 3.870892630312338e-17 9.690523018114897e-06)
(0.6051828043365394 3.914878753911459e-17 9.690494686567084e-06)
(0.6051828043365393 8.547130573314612e-17 9.690505128192013e-06)
(0.605182804336539 1.070912444456219e-16 9.690474058349212e-06)
(0.6051828043365389 -4.115381761961449e-17 9.690488279307471e-06)
(0.6051828043365384 -2.625651500298006e-18 9.690453835069406e-06)
(0.6051828043365387 5.150272248252733e-17 9.690472303416593e-06)
(0.6051828043365385 -1.063299349394918e-17 9.690433778575487e-06)
(0.6051828043365383 1.369320495928619e-17 9.69045706986288e-06)
(0.6051828043365381 5.434347090707738e-17 9.69041367585509e-06)
(0.6051828043365381 -6.052379224184141e-17 9.690442485791233e-06)
(0.6051828043365383 -4.525583017535764e-18 9.690393335051157e-06)
(0.6051828043365381 1.211324430707609e-17 9.690428492815744e-06)
(0.6051828043365383 -5.838321238718252e-17 9.690372579989767e-06)
(0.6051828043365378 -2.274622935843339e-17 9.690415063692948e-06)
(0.6051828043365385 4.182813261315811e-18 9.690351245248814e-06)
(0.6051828043365384 -6.160757621711576e-17 9.690402200045347e-06)
(0.6051828043365388 -8.587319161941357e-17 9.690329172228836e-06)
(0.6051828043365395 -3.404971524609675e-17 9.690389931103813e-06)
(0.6051828043365388 -7.111857726995114e-18 9.690306206040193e-06)
(0.6051828043365394 -7.957516620123287e-18 9.690378313249765e-06)
(0.6051828043365391 -1.354371853082852e-17 9.690282193013767e-06)
(0.6051828043365393 -6.565479985000774e-17 9.690367430054896e-06)
(0.6051828043365394 9.601106400706304e-18 9.690256978580602e-06)
(0.6051828043365393 -4.560466772538956e-17 9.690357392502488e-06)
(0.6051828043365399 -1.558191345095185e-16 9.690230405416623e-06)
(0.6051828043365406 4.546595823570672e-17 9.690348339236498e-06)
(0.6051828043365394 1.527050110793425e-17 9.690202311759898e-06)
(0.6051828043365405 -5.20781606910024e-17 9.690340436552785e-06)
(0.6051828043365397 1.553462737589241e-17 9.690172529871031e-06)
(0.6051828043365404 3.782440473654108e-17 9.690333878024614e-06)
(0.6051828043365391 -5.981384490221783e-17 9.690140884738172e-06)
(0.6051828043365411 -1.925819009990844e-17 9.690328883545472e-06)
(0.6051828043365395 4.633801807063143e-17 9.690107193056982e-06)
(0.6051828043365406 -2.909301144405251e-17 9.690325697688846e-06)
(0.6051828043365386 5.717109676557193e-18 9.690071262665079e-06)
(0.6051828043365406 9.993147069469401e-17 9.69032458720216e-06)
(0.6051828043365376 3.439725899174575e-17 9.690032892541288e-06)
(0.6051828043365396 1.410130756562886e-16 9.69032583760205e-06)
(0.6051828043365369 5.466231181724013e-17 9.689991873477694e-06)
(0.6051828043365394 8.126589227664684e-18 9.690329748810009e-06)
(0.605182804336536 5.282461664493299e-17 9.689947989487897e-06)
(0.6051828043365391 7.046949683813041e-17 9.690336629942917e-06)
(0.6051828043365353 -1.775756852182581e-17 9.689901019872353e-06)
(0.6051828043365393 1.690428503225182e-16 9.690346793466298e-06)
(0.6051828043365343 1.070969146025453e-17 9.689850741843256e-06)
(0.605182804336539 -4.522513507586903e-17 9.690360548801742e-06)
(0.6051828043365332 1.146798728595071e-16 9.689796934046757e-06)
(0.6051828043365386 1.928602495260007e-16 9.690378194425115e-06)
(0.605182804336532 2.243895525797142e-17 9.689739383492595e-06)
(0.6051828043365387 4.998149025896881e-17 9.690400003396983e-06)
(0.60518280433653 9.552242456054825e-17 9.689677905592643e-06)
(0.6051828043365393 8.387901495313842e-17 9.690426185683094e-06)
(0.605182804336528 9.31805918332676e-18 9.689612401858872e-06)
(0.6051828043365396 -4.417946353546631e-17 9.690456794487131e-06)
(0.6051828043365267 -1.007268376157409e-16 9.689542920940974e-06)
(0.6051828043365413 -7.385186899210542e-17 9.690491016037038e-06)
(0.6051828043365284 -9.125990816821572e-16 9.689460688715225e-06)
(0.6592501350792842 -1.701080533839071e-15 1.057129071162507e-05)
(0.659250135079277 9.235303234645158e-16 1.057145466114207e-05)
(0.6592501350792778 1.800164314842503e-16 1.057144970860478e-05)
(0.6592501350792801 -4.155719059907655e-17 1.057142409296662e-05)
(0.6592501350792805 3.989627289975819e-17 1.057142417504119e-05)
(0.6592501350792803 6.528664488582442e-17 1.057139831002304e-05)
(0.6592501350792803 9.265039258667855e-17 1.057140178421647e-05)
(0.6592501350792795 1.044968047483838e-16 1.05713744321732e-05)
(0.6592501350792794 5.236556176811625e-17 1.057138119550135e-05)
(0.6592501350792792 4.998948848720714e-17 1.057135165955635e-05)
(0.659250135079279 1.045497042875665e-16 1.057136193502562e-05)
(0.6592501350792788 1.158384890252024e-16 1.057132958093506e-05)
(0.6592501350792788 -2.406413910207292e-17 1.057134373379774e-05)
(0.659250135079278 6.643059820699783e-19 1.05713078964363e-05)
(0.6592501350792788 3.196975507153425e-17 1.057132640693637e-05)
(0.6592501350792784 4.976692442583681e-18 1.057128635874365e-05)
(0.659250135079278 1.983268473480133e-17 1.057130982318378e-05)
(0.6592501350792782 5.899281714000744e-17 1.057126475298336e-05)
(0.6592501350792781 -6.22706846085588e-17 1.057129389248256e-05)
(0.6592501350792779 1.763702723627923e-18 1.057124288577051e-05)
(0.6592501350792781 1.610577405127924e-17 1.057127855912815e-05)
(0.6592501350792779 -5.382025471913327e-17 1.057122057795142e-05)
(0.6592501350792778 -2.777343518612182e-17 1.057126379780717e-05)
(0.6592501350792782 -1.757708727430964e-17 1.057119765943741e-05)
(0.6592501350792783 -7.479700797267448e-17 1.057124961155455e-05)
(0.6592501350792785 -1.112717793792263e-16 1.057117396548401e-05)
(0.6592501350792789 -3.009577609102182e-17 1.057123603095734e-05)
(0.6592501350792785 -2.724177628039299e-18 1.057114933382985e-05)
(0.659250135079279 -1.985146078535732e-17 1.057122311418823e-05)
(0.6592501350792787 -8.966029919187117e-18 1.057112360244304e-05)
(0.6592501350792788 -7.826379964388286e-17 1.057121094751401e-05)
(0.6592501350792791 2.512706530218583e-18 1.057109660753553e-05)
(0.659250135079279 -4.170762439029856e-17 1.057119964596082e-05)
(0.6592501350792793 -1.74666850719602e-16 1.057106818178452e-05)
(0.6592501350792797 4.740452360901836e-17 1.057118935396989e-05)
(0.6592501350792792 3.817822048079299e-18 1.057103815263279e-05)
(0.6592501350792802 -5.47947141867982e-17 1.057118024577524e-05)
(0.659250135079279 1.086904054174205e-17 1.057100634066411e-05)
(0.6592501350792799 5.415054895536364e-17 1.057117252539662e-05)
(0.6592501350792785 -7.505350579246848e-17 1.057097255814888e-05)
(0.6592501350792802 -2.899693990380502e-17 1.057116642601916e-05)
(0.6592501350792788 6.077079186395224e-17 1.057093660781248e-05)
(0.6592501350792799 5.049902369977689e-18 1.057116220865819e-05)
(0.6592501350792782 5.398967897727833e-18 1.057089828201139e-05)
(0.6592501350792799 1.2918765768142e-16 1.057116015990624e-05)
(0.6592501350792769 4.870735566927374e-17 1.057085736246587e-05)
(0.659250135079279 1.751445290450762e-16 1.057116058868565e-05)
(0.6592501350792764 6.912503055119109e-17 1.057081362070226e-05)
(0.659250135079279 2.994874298192951e-17 1.057116382193795e-05)
(0.6592501350792752 5.86354107769216e-17 1.057076681929329e-05)
(0.6592501350792787 8.021798315322316e-17 1.057117019931538e-05)
(0.6592501350792745 -1.117357982629929e-17 1.057071671378881e-05)
(0.6592501350792787 1.97745033169931e-16 1.05711800673159e-05)
(0.6592501350792741 7.348784429248419e-18 1.057066305478855e-05)
(0.6592501350792787 -5.661903578458036e-18 1.057119377384003e-05)
(0.6592501350792724 1.300254560614271e-16 1.057060558864122e-05)
(0.6592501350792784 1.940001657296071e-16 1.057121166597799e-05)
(0.6592501350792718 3.277237993096948e-17 1.057054405198937e-05)
(0.6592501350792784 1.09977959066631e-16 1.057123410010224e-05)
(0.6592501350792698 9.254263562391291e-17 1.057047814242617e-05)
(0.6592501350792794 1.217126608196166e-16 1.057126150207787e-05)
(0.6592501350792682 -3.884126577455765e-20 1.05704073830727e-05)
(0.6592501350792794 -2.453287085573542e-17 1.057129466739211e-05)
(0.6592501350792668 -1.128095666184995e-16 1.057033040296058e-05)
(0.6592501350792803 -2.099204363286434e-16 1.057133600224375e-05)
(0.6592501350792689 -1.03283693659082e-15 1.057023449012973e-05)
(0.7040863554554071 -1.999850170278035e-15 1.130356446194429e-05)
(0.7040863554554017 1.019525463186412e-15 1.130379115647794e-05)
(0.7040863554554027 1.822231299120451e-16 1.130378655643999e-05)
(0.7040863554554044 -7.636297484013182e-17 1.130376047126812e-05)
(0.7040863554554053 3.455703583768375e-17 1.130375985226021e-05)
(0.7040863554554052 6.835089961836884e-17 1.130373350917987e-05)
(0.7040863554554051 1.198833747860308e-16 1.130373637356706e-05)
(0.7040863554554044 1.355089748929713e-16 1.130370862451819e-05)
(0.7040863554554047 6.355184840985536e-17 1.130371479605052e-05)
(0.7040863554554042 5.966045047714061e-17 1.130368487592965e-05)
(0.704086355455404 1.201172072187821e-16 1.130369453458412e-05)
(0.7040863554554039 1.293692890463807e-16 1.130366178860604e-05)
(0.7040863554554037 1.168126723937387e-17 1.130367529177447e-05)
(0.7040863554554032 6.82591798698707e-18 1.13036390549573e-05)
(0.7040863554554037 1.358800890934209e-17 1.130365688664809e-05)
(0.7040863554554033 2.518279074331219e-17 1.130361643629212e-05)
(0.704086355455403 1.541874397757557e-17 1.130363919889435e-05)
(0.704086355455403 5.072322368796829e-17 1.130359372781815e-05)
(0.704086355455403 -4.267088591053079e-17 1.130362214822296e-05)
(0.704086355455403 1.087774293637117e-17 1.130357074337332e-05)
(0.7040863554554033 1.829028336561537e-17 1.130360568563445e-05)
(0.7040863554554027 -4.127875183865439e-17 1.130354730747944e-05)
(0.7040863554554029 -4.063101868011045e-17 1.130358978955364e-05)
(0.7040863554554032 -4.574941464152951e-17 1.130352325056011e-05)
(0.7040863554554031 -8.317688236691979e-17 1.130357446449529e-05)
(0.7040863554554032 -1.349841121040658e-16 1.130349840580104e-05)
(0.7040863554554039 -2.947415949699422e-17 1.130355974100418e-05)
(0.7040863554554038 -2.956710593946109e-18 1.130347260684507e-05)
(0.7040863554554041 -4.361956957311954e-17 1.130354567643667e-05)
(0.704086355455404 -7.263304600744257e-18 1.130344568598077e-05)
(0.7040863554554038 -7.864202398146472e-17 1.130353235611427e-05)
(0.7040863554554042 -1.633930942237882e-18 1.130341747246883e-05)
(0.7040863554554041 -5.215839930674361e-17 1.13035198946141e-05)
(0.7040863554554042 -1.775841969473445e-16 1.130338779098395e-05)
(0.7040863554554045 4.549648489604454e-17 1.130350843699915e-05)
(0.704086355455404 -6.221723042469166e-18 1.130335646000643e-05)
(0.7040863554554052 -5.926450939036089e-17 1.130349815976534e-05)
(0.704086355455404 -2.847525184454908e-18 1.130332329019024e-05)
(0.704086355455405 7.435012361357055e-17 1.130348927138855e-05)
(0.7040863554554038 -8.848692385794702e-17 1.13032880827992e-05)
(0.7040863554554049 -2.963345428401914e-17 1.130348201225338e-05)
(0.7040863554554037 7.890104615765514e-17 1.130325062826588e-05)
(0.7040863554554047 3.859542719153936e-17 1.130347665386772e-05)
(0.7040863554554031 4.04919760818283e-18 1.130321070507313e-05)
(0.7040863554554048 1.639371787970314e-16 1.130347349711438e-05)
(0.7040863554554018 5.812459465493593e-17 1.130316807914692e-05)
(0.7040863554554042 1.982224483587438e-16 1.130347286944651e-05)
(0.7040863554554015 9.744475705376602e-17 1.130312250394738e-05)
(0.7040863554554039 7.200186554420099e-17 1.130347512090419e-05)
(0.7040863554554 7.63238261455217e-17 1.130307372142854e-05)
(0.7040863554554034 8.067108015615858e-17 1.130348061893252e-05)
(0.7040863554553998 -1.690756423783081e-17 1.130302146379707e-05)
(0.7040863554554034 2.347252633099256e-16 1.130348974249886e-05)
(0.704086355455399 2.69685381900783e-17 1.130296545532161e-05)
(0.7040863554554034 5.416174175896513e-17 1.13035028770088e-05)
(0.7040863554553977 1.282164827058833e-16 1.130290541158012e-05)
(0.704086355455403 1.929377218687162e-16 1.130352041508716e-05)
(0.7040863554553967 3.089189894825219e-17 1.130284102690585e-05)
(0.7040863554554037 1.91036075502388e-16 1.13035427806705e-05)
(0.7040863554553949 6.92679312660523e-17 1.130277191678847e-05)
(0.7040863554554044 1.619345162735326e-16 1.130357054127994e-05)
(0.7040863554553938 1.763863965410924e-17 1.130269738064476e-05)
(0.7040863554554043 -4.303704796467614e-18 1.130360487695812e-05)
(0.7040863554553922 -1.226260112015494e-16 1.130261539162047e-05)
(0.704086355455405 -3.487778953041901e-16 1.130364945063769e-05)
(0.7040863554553943 -1.120411226507828e-15 1.130250933296153e-05)
(0.7521586358010213 -2.428889178758759e-15 1.209166511569372e-05)
(0.7521586358010184 8.713207325630803e-16 1.209211737454473e-05)
(0.7521586358010197 2.014926519795821e-16 1.209211258472694e-05)
(0.7521586358010207 -5.112895816475768e-17 1.209208718740161e-05)
(0.7521586358010219 3.877902259585988e-17 1.209208602800976e-05)
(0.7521586358010217 6.752167999465759e-17 1.209206009544048e-05)
(0.7521586358010216 1.618489570878977e-16 1.209206211555424e-05)
(0.7521586358010212 1.688278831418885e-16 1.209203472267054e-05)
(0.7521586358010214 6.006205216484067e-17 1.209203984260403e-05)
(0.7521586358010207 7.283935269666183e-17 1.209201028975098e-05)
(0.752158635801021 1.341400950209624e-16 1.209201870608649e-05)
(0.7521586358010203 1.510200583484587e-16 1.20919863779817e-05)
(0.7521586358010202 5.250885639458035e-17 1.209199845413527e-05)
(0.7521586358010199 2.472361006468189e-17 1.209196272337949e-05)
(0.7521586358010203 2.609978598370851e-18 1.20919789441768e-05)
(0.75215863580102 4.991401483243242e-17 1.209193912376881e-05)
(0.7521586358010198 1.007903145667027e-17 1.209196008616479e-05)
(0.7521586358010199 3.620974217263252e-17 1.209191540222438e-05)
(0.7521586358010199 -2.05840926201089e-17 1.209194182126352e-05)
(0.7521586358010203 8.265715419125239e-18 1.209189139199813e-05)
(0.7521586358010203 2.244242331109209e-17 1.209192411412887e-05)
(0.7521586358010197 -1.518659471283906e-17 1.209186692985569e-05)
(0.7521586358010197 -5.174833890356221e-17 1.209190695054157e-05)
(0.75215863580102 -6.892620344883425e-17 1.209184185275876e-05)
(0.7521586358010202 -9.707249814348159e-17 1.209189033761775e-05)
(0.7521586358010203 -1.599347489389548e-16 1.209181599593802e-05)
(0.7521586358010208 -3.716867750214261e-17 1.209187430507847e-05)
(0.7521586358010205 -1.221037610610363e-17 1.209178919165657e-05)
(0.7521586358010207 -7.443984655946817e-17 1.209185890724639e-05)
(0.7521586358010208 1.489049956692152e-19 1.209176126814572e-05)
(0.7521586358010206 -7.354497694050383e-17 1.209184422518556e-05)
(0.7521586358010212 -1.673652891228129e-17 1.209173204850275e-05)
(0.7521586358010212 -6.901997923362886e-17 1.209183036899662e-05)
(0.7521586358010214 -1.864325980211362e-16 1.209170134953049e-05)
(0.7521586358010212 3.940210257434967e-17 1.209181747995028e-05)
(0.7521586358010208 -1.181516006621385e-17 1.209166898032408e-05)
(0.7521586358010217 -7.755808904791429e-17 1.209180573233026e-05)
(0.7521586358010214 -2.523239254911102e-17 1.209163474068e-05)
(0.7521586358010223 8.764974367906099e-17 1.209179533491379e-05)
(0.7521586358010208 -7.558320956157581e-17 1.209159841939092e-05)
(0.752158635801022 5.075225286971913e-18 1.209178653183624e-05)
(0.7521586358010203 9.216658719267383e-17 1.209155979251185e-05)
(0.7521586358010215 7.192365874220851e-17 1.20917796027884e-05)
(0.7521586358010199 4.399440585928928e-18 1.20915186217554e-05)
(0.752158635801022 2.054580092938285e-16 1.209177486223872e-05)
(0.752158635801019 7.771543146330521e-17 1.209147465330096e-05)
(0.7521586358010212 2.140485138988209e-16 1.209177265756474e-05)
(0.7521586358010184 1.390134993192521e-16 1.209142761722577e-05)
(0.7521586358010209 1.574263688521486e-16 1.209177336586439e-05)
(0.7521586358010171 7.992418165945462e-17 1.20913772278989e-05)
(0.7521586358010206 8.697790323609249e-17 1.209177738925317e-05)
(0.7521586358010166 -1.394091631951688e-17 1.209132318543715e-05)
(0.7521586358010205 2.770854596178244e-16 1.209178514894034e-05)
(0.7521586358010159 7.415190204403403e-17 1.209126517772107e-05)
(0.7521586358010204 1.428174565225264e-16 1.209179707937337e-05)
(0.7521586358010146 1.261169990116519e-16 1.209120288053135e-05)
(0.75215863580102 2.003795448510289e-16 1.209181362746429e-05)
(0.7521586358010137 -1.551528009670278e-18 1.20911359465056e-05)
(0.7521586358010204 2.994326461225703e-16 1.20918352740899e-05)
(0.7521586358010123 4.335660212828731e-17 1.209106395227309e-05)
(0.7521586358010212 2.070836858770501e-16 1.20918626363131e-05)
(0.7521586358010115 5.908643103870768e-17 1.209098620806179e-05)
(0.7521586358010209 8.255679920804265e-18 1.209189686191417e-05)
(0.7521586358010102 -8.959174737207957e-17 1.209090101320547e-05)
(0.7521586358010207 -5.234203199831114e-16 1.209193824873327e-05)
(0.7521586358010115 -1.130843839275817e-15 1.209077181780225e-05)
(0.8068088255992921 -2.86976118541103e-15 1.299638668097081e-05)
(0.806808825599292 2.626363459740674e-16 1.299716567525278e-05)
(0.8068088255992932 1.320764418670635e-16 1.299716223590562e-05)
(0.8068088255992942 -1.195780747536075e-17 1.299713958279343e-05)
(0.8068088255992948 6.813913618359447e-17 1.299713819959964e-05)
(0.8068088255992951 6.962639777744617e-17 1.299711416327378e-05)
(0.8068088255992955 1.946720100074887e-16 1.299711502056906e-05)
(0.8068088255992946 2.198491390044317e-16 1.299708922094501e-05)
(0.8068088255992952 2.865659165099289e-17 1.299709257212301e-05)
(0.8068088255992948 1.157151440497605e-16 1.299706458773054e-05)
(0.8068088255992945 1.411413556395702e-16 1.299707075735758e-05)
(0.8068088255992946 1.728658575437194e-16 1.299704012468216e-05)
(0.8068088255992943 1.03435600431589e-16 1.299704951702792e-05)
(0.8068088255992941 6.480211000937967e-17 1.29970157137731e-05)
(0.8068088255992942 -6.620585635136303e-18 1.299702881496691e-05)
(0.8068088255992938 8.377355791398656e-17 1.299699124142077e-05)
(0.806808825599294 4.013226923312066e-17 1.299700862643405e-05)
(0.8068088255992939 1.062910453359211e-17 1.299696658895534e-05)
(0.8068088255992939 -4.320676293133389e-17 1.299698893378332e-05)
(0.806808825599294 1.58298897813753e-17 1.299694162890138e-05)
(0.8068088255992942 1.261453986580097e-17 1.299696972674568e-05)
(0.8068088255992939 2.091928556143312e-17 1.299691622407918e-05)
(0.8068088255992939 -4.759825249352835e-17 1.299695100470838e-05)
(0.806808825599294 -1.023588949863116e-16 1.2996890227923e-05)
(0.8068088255992941 -1.230292766397951e-16 1.299693277999559e-05)
(0.8068088255992945 -1.99990557240212e-16 1.299686348496699e-05)
(0.8068088255992949 -6.506443268171106e-17 1.299691508152615e-05)
(0.8068088255992946 -1.835975645204872e-17 1.299683583137746e-05)
(0.8068088255992948 -1.178702057482273e-16 1.299689795863749e-05)
(0.8068088255992953 -3.211890818721952e-18 1.299680709504755e-05)
(0.8068088255992953 -7.963194066792687e-17 1.29968814848122e-05)
(0.8068088255992958 -9.2558220509153e-17 1.299677709544154e-05)
(0.8068088255992956 -6.167627764995202e-17 1.299686576147614e-05)
(0.8068088255992963 -1.979195894591338e-16 1.299674564293e-05)
(0.806808825599296 1.686591943891837e-17 1.299685092149925e-05)
(0.8068088255992956 -5.842261173906207e-17 1.299671253765452e-05)
(0.8068088255992968 -9.297351367533389e-17 1.299683713250394e-05)
(0.8068088255992959 -1.835718066016965e-17 1.299667756793465e-05)
(0.8068088255992967 6.35775422450611e-17 1.299682459979536e-05)
(0.8068088255992956 -4.439204662624141e-17 1.299664050819956e-05)
(0.8068088255992969 9.568301941657241e-17 1.29968135689e-05)
(0.8068088255992946 1.252533776977787e-16 1.299660111664538e-05)
(0.8068088255992962 9.785398038007447e-17 1.299680432742602e-05)
(0.8068088255992945 -1.246782692931922e-17 1.299655913265093e-05)
(0.8068088255992961 3.008568661746654e-16 1.29967972061731e-05)
(0.8068088255992937 8.585006166869576e-17 1.299651427433859e-05)
(0.8068088255992958 2.46753410059712e-16 1.299679257921553e-05)
(0.806808825599293 1.999651918606438e-16 1.299646623649191e-05)
(0.8068088255992958 2.474262153697156e-16 1.299679086251258e-05)
(0.806808825599292 9.356866442205868e-17 1.2996414689556e-05)
(0.8068088255992951 1.634924955963017e-16 1.299679251070432e-05)
(0.8068088255992912 2.125301399284811e-17 1.29963592801125e-05)