/*--------------------------------*- C++ -*----------------------------------*\
| =========                 |                                                 |
| \\      /  F ield         | OpenFOAM: The Open Source CFD Toolbox           |
|  \\    /   O peration     | Version:  v1812                                 |
|   \\  /    A nd           | Web:      www.OpenFOAM.com                      |
|    \\/     M anipulation  |                                                 |
\*---------------------------------------------------------------------------*/
FoamFile
{
    version     2.0;
    format      ascii;
    class       volVectorField;
    location    "10000";
    object      wallShearStress;
}
// * * * * * * * * * * * * * * * * * * * * * * * * * * * * * * * * * * * * * //

dimensions      [0 2 -2 0 0 0 0];


internalField   uniform (0 0 0);

boundaryField
{
    inlet
    {
        type            cyclic;
    }
    outlet
    {
        type            cyclic;
    }
    bottomWall
    {
        type            calculated;
        value           nonuniform List<vector> 
66
(
(-0.003710593801226921 1.606583970082691e-17 -5.905350870991066e-08)
(-0.003710593801226786 -3.168092172267846e-18 -5.905531894428784e-08)
(-0.003710593801226814 -3.00691406188259e-18 -5.905544261167213e-08)
(-0.003710593801226817 -1.805555006471614e-18 -5.905533999010051e-08)
(-0.003710593801226806 -7.185405308719574e-19 -5.905537350196183e-08)
(-0.003710593801226798 -3.535829104676479e-19 -5.905522149015694e-08)
(-0.003710593801226795 -3.060683669514971e-19 -5.905525710352955e-08)
(-0.003710593801226786 -9.477865406948663e-20 -5.90550862305708e-08)
(-0.003710593801226786 -2.918156971042867e-19 -5.905513935552542e-08)
(-0.003710593801226786 -1.063163725456041e-19 -5.905495228088774e-08)
(-0.003710593801226787 -5.387046602852671e-19 -5.905502778287147e-08)
(-0.003710593801226777 -6.97281114159923e-19 -5.905482200477972e-08)
(-0.003710593801226775 6.448754105917853e-19 -5.905492306094061e-08)
(-0.003710593801226781 -7.835206098391769e-20 -5.905469460103126e-08)
(-0.003710593801226775 -4.487646731336744e-19 -5.905482449219194e-08)
(-0.003710593801226769 3.123213821636125e-19 -5.905456864874346e-08)
(-0.003710593801226777 -1.146946793925186e-19 -5.905473124672442e-08)
(-0.003710593801226769 -4.445581186159704e-19 -5.905444270879374e-08)
(-0.003710593801226769 6.23224138126479e-19 -5.905464266072108e-08)
(-0.003710593801226775 3.894479152155504e-19 -5.905431545132504e-08)
(-0.003710593801226769 -3.447523574406025e-19 -5.905455829336244e-08)
(-0.003710593801226767 2.336598799044508e-19 -5.905418565943702e-08)
(-0.003710593801226779 1.363539630299022e-19 -5.905447792303733e-08)
(-0.003710593801226776 9.001772307464376e-20 -5.905405220414207e-08)
(-0.003710593801226772 6.375811133016907e-20 -5.90544015328052e-08)
(-0.003710593801226785 3.253882676283385e-19 -5.905391401686615e-08)
(-0.003710593801226784 4.560146175298032e-19 -5.905432929815699e-08)
(-0.003710593801226793 3.394529100412017e-19 -5.905377006579935e-08)
(-0.00371059380122679 -2.474173844617202e-19 -5.905426157930189e-08)
(-0.003710593801226788 -1.147925803758823e-19 -5.905361933647809e-08)
(-0.003710593801226794 7.753178381686783e-19 -5.905419891695928e-08)
(-0.003710593801226798 -2.698091004908439e-19 -5.905346081608166e-08)
(-0.003710593801226791 2.769073924060362e-19 -5.905414202993338e-08)
(-0.00371059380122681 1.307039276240799e-18 -5.905329348009885e-08)
(-0.00371059380122681 -3.423202546323295e-19 -5.905409181305356e-08)
(-0.003710593801226801 -7.981697025598584e-19 -5.90531162813338e-08)
(-0.003710593801226815 2.298430440462697e-19 -5.905404933378332e-08)
(-0.003710593801226807 6.215209778913761e-19 -5.905292814068924e-08)
(-0.003710593801226808 9.2722246951762e-20 -5.905401582635353e-08)
(-0.003710593801226808 -9.122149985171623e-20 -5.905272794027176e-08)
(-0.003710593801226824 -1.358642333666368e-19 -5.905399268221709e-08)
(-0.0037105938012268 -1.278611847004574e-19 -5.905251451906238e-08)
(-0.003710593801226818 6.1994039750434e-19 -5.905398143596655e-08)
(-0.003710593801226802 9.374110904856051e-20 -5.90522866720289e-08)
(-0.003710593801226814 -5.154891176617898e-19 -5.90539837458796e-08)
(-0.003710593801226791 2.032106412957429e-19 -5.905204315305539e-08)
(-0.003710593801226814 -1.216044272872668e-18 -5.905400136890458e-08)
(-0.003710593801226783 -3.527510605506821e-19 -5.905178268221793e-08)
(-0.003710593801226801 4.365526766522283e-19 -5.905403613013137e-08)
(-0.003710593801226777 -5.948890650482446e-19 -5.905150395758036e-08)
(-0.003710593801226792 -4.036963130618461e-19 -5.905408988659276e-08)
(-0.003710593801226768 1.230111392816047e-19 -5.905120567332436e-08)
(-0.003710593801226794 -7.949714276213141e-19 -5.905416448171282e-08)
(-0.003710593801226742 1.693754826275627e-19 -5.905088655420222e-08)
(-0.003710593801226792 5.561626826227739e-19 -5.905426166888928e-08)
(-0.003710593801226748 -7.668202540003719e-19 -5.905054545273334e-08)
(-0.003710593801226779 -3.498790342199088e-19 -5.905438291038781e-08)
(-0.003710593801226715 -5.77152707448101e-19 -5.905018169902545e-08)
(-0.003710593801226787 -1.598283321314645e-19 -5.905452867143727e-08)
(-0.003710593801226707 -8.294545775969266e-19 -5.9049796470752e-08)
(-0.003710593801226771 -2.09641313830277e-19 -5.905469564988813e-08)
(-0.003710593801226683 -1.176275266001313e-19 -5.904939840819775e-08)
(-0.003710593801226781 5.962657275077523e-19 -5.90548650891651e-08)
(-0.003710593801226678 7.203926972811898e-19 -5.904902719577101e-08)
(-0.003710593801226817 -1.19292212515067e-18 -5.9054940283351e-08)
(-0.003710593801226663 5.468222972479726e-18 -5.904876848993811e-08)
)
;
    }
    topWall
    {
        type            calculated;
        value           nonuniform List<vector> 
66
(
(-0.003710593801227004 -2.281616047104352e-19 -5.887477306184803e-08)
(-0.003710593801226937 -5.874667890953449e-19 -5.887806974161728e-08)
(-0.003710593801226968 -2.942183757613966e-18 -5.887767867193328e-08)
(-0.003710593801227083 8.786100048182516e-18 -5.887731872164767e-08)
(-0.003710593801227226 7.226585841648477e-18 -5.887720588875109e-08)
(-0.003710593801226898 -4.528146240605038e-18 -5.887693904616905e-08)
(-0.003710593801227053 -3.846988310532482e-18 -5.887689807400069e-08)
(-0.003710593801227145 2.640032786703015e-18 -5.887665056917178e-08)
(-0.003710593801226919 -1.341986675891105e-18 -5.887665437657244e-08)
(-0.003710593801227114 1.647294858559788e-18 -5.887640798613905e-08)
(-0.003710593801227186 3.707238815240975e-19 -5.887645006503651e-08)
(-0.003710593801226914 -2.453868191364509e-18 -5.887619469941638e-08)
(-0.003710593801227067 5.024346620303484e-18 -5.887627347136287e-08)
(-0.003710593801227079 -2.835035920183581e-18 -5.88760011873124e-08)
(-0.003710593801226956 -2.803889856339076e-18 -5.887611749253999e-08)
(-0.003710593801227014 4.341890390272161e-18 -5.887582107432008e-08)
(-0.003710593801227197 4.083473389833902e-18 -5.887597746161133e-08)
(-0.003710593801227011 -9.175212015278057e-19 -5.887564978876796e-08)
(-0.003710593801226982 -2.67834076204289e-18 -5.887585023201739e-08)
(-0.003710593801227015 -4.696332932869773e-18 -5.887548388259732e-08)
(-0.00371059380122701 -2.640102468594714e-18 -5.887573367442072e-08)
(-0.003710593801226984 1.729254005509417e-18 -5.88753206281752e-08)
(-0.003710593801226931 -2.500554138903148e-18 -5.887562637404781e-08)
(-0.003710593801226957 2.55376951170407e-19 -5.887515776543721e-08)
(-0.003710593801227147 1.225442425040585e-17 -5.887552744495661e-08)
(-0.003710593801227202 -2.28058690419557e-19 -5.887499333850523e-08)
(-0.003710593801226864 -9.567150205395243e-18 -5.887543641448858e-08)
(-0.003710593801226942 -5.230122640576268e-18 -5.887482558595705e-08)
(-0.003710593801226983 -1.651643577944546e-19 -5.887535315280363e-08)
(-0.003710593801227055 -2.555430605935484e-18 -5.887465286650961e-08)
(-0.00371059380122684 -5.651681444689821e-18 -5.88752778297752e-08)
(-0.003710593801227096 9.102404986730051e-18 -5.887447360523108e-08)
(-0.003710593801227293 1.022220827243298e-17 -5.887521089002954e-08)
(-0.003710593801227132 -3.68644240772816e-18 -5.887428625366888e-08)
(-0.003710593801227017 -1.39727179337556e-18 -5.887515303910874e-08)
(-0.003710593801227262 7.54334303233667e-18 -5.887408925811178e-08)
(-0.003710593801227065 -5.110673291830751e-18 -5.88751052363513e-08)
(-0.003710593801226984 -1.060909144857811e-17 -5.887388103346378e-08)
(-0.003710593801226949 -3.424012863911029e-18 -5.88750686928675e-08)
(-0.00371059380122701 2.306225793623731e-18 -5.887365993876931e-08)
(-0.003710593801227101 2.489997943586695e-18 -5.887504487138999e-08)
(-0.003710593801226937 3.255935520870113e-18 -5.887342425377829e-08)
(-0.003710593801227205 2.857808945401731e-18 -5.887503548943362e-08)
(-0.003710593801226975 -2.342265608361551e-18 -5.88731721528605e-08)
(-0.003710593801226977 -2.082642342865305e-18 -5.887504252771987e-08)
(-0.003710593801226907 -1.847721871467116e-18 -5.88729016729951e-08)
(-0.00371059380122697 -1.749150489154178e-18 -5.887506824572111e-08)
(-0.00371059380122697 -4.305125670887934e-19 -5.887261066849948e-08)
(-0.003710593801227035 4.693392802297995e-18 -5.887511521631677e-08)
(-0.003710593801226928 -2.685807836721203e-18 -5.887229674000928e-08)
(-0.003710593801226972 8.788410922160015e-18 -5.887518639425588e-08)
(-0.003710593801227191 6.048431099081134e-18 -5.887195711792388e-08)
(-0.003710593801227033 -1.171581238351426e-17 -5.887528524493339e-08)
(-0.003710593801226892 -2.218833365740499e-18 -5.887158846090337e-08)
(-0.003710593801226941 -3.428596331977199e-18 -5.887541598315313e-08)
(-0.003710593801226871 3.375706049314418e-18 -5.887118652127875e-08)
(-0.00371059380122712 8.984426767014163e-18 -5.887558397233271e-08)
(-0.003710593801227064 -1.57949701590426e-18 -5.887074562743006e-08)
(-0.003710593801227029 -2.627112611881155e-18 -5.887579629313389e-08)
(-0.003710593801226859 1.149239006559323e-18 -5.887025808450297e-08)
(-0.003710593801227119 8.328343738785549e-18 -5.887606205454969e-08)
(-0.003710593801227013 -2.929634138630267e-18 -5.886971408572185e-08)
(-0.003710593801226867 -4.637382727889787e-18 -5.887638878265567e-08)
(-0.00371059380122715 4.40519173485571e-18 -5.88690937780238e-08)
(-0.003710593801227024 -5.43580304275445e-18 -5.887671057168824e-08)
(-0.003710593801226787 -3.309767519056271e-18 -5.886794243497229e-08)
)
;
    }
    left
    {
        type            cyclic;
    }
    right
    {
        type            cyclic;
    }
}


// ************************************************************************* //
