/*--------------------------------*- C++ -*----------------------------------*\
| =========                 |                                                 |
| \\      /  F ield         | OpenFOAM: The Open Source CFD Toolbox           |
|  \\    /   O peration     | Version:  v1812                                 |
|   \\  /    A nd           | Web:      www.OpenFOAM.com                      |
|    \\/     M anipulation  |                                                 |
\*---------------------------------------------------------------------------*/
FoamFile
{
    version     2.0;
    format      ascii;
    class       volScalarField;
    location    "0";
    object      nut;
}
// * * * * * * * * * * * * * * * * * * * * * * * * * * * * * * * * * * * * * //

dimensions      [0 2 -1 0 0 0 0];


internalField   nonuniform List<scalar> 
3770
(
2.57698648123617e-06
5.315876646551997e-07
7.581898838068601e-07
9.386581435280391e-07
1.78789195141852e-06
9.471697688649927e-06
3.800705514483749e-06
1.348250090363837e-05
5.212017319247169e-07
1.607032933287124e-06
6.574488082332169e-07
9.912264555984157e-07
3.222007546068546e-06
2.014035652086769e-06
2.910172083355281e-07
2.84585330362608e-06
8.785586629585296e-06
3.937675322843063e-07
2.973111000258709e-07
2.690947127190973e-07
1.139042982713915e-06
5.327461978108958e-07
7.903578009944656e-07
6.589290075200029e-07
1.967350785031212e-06
5.123578470769879e-07
2.384286045287181e-06
7.44857708022635e-06
4.467422235939582e-06
4.043651277305029e-07
7.03861502096933e-06
1.464672325405251e-05
2.933176995555918e-07
2.484462572309828e-06
1.723795032153939e-06
3.674895094949539e-06
2.528533744484553e-06
2.68632654400851e-07
1.216359689099535e-06
3.38199164365965e-07
2.752000756470118e-07
1.768967160709269e-07
7.623300464408558e-08
4.790274022253367e-07
1.018251400303577e-06
3.232117677209638e-06
2.801810271317056e-06
3.965707112156358e-06
4.307399603456257e-06
1.457649248758002e-06
1.983483056909445e-05
9.482325064166687e-07
4.186933800488472e-06
1.981332512284803e-06
7.723874430212683e-07
4.778366476512431e-06
6.172086955016398e-07
1.031133726205431e-06
2.710306845670534e-06
5.766809913651383e-07
7.905470591638101e-07
9.935273611172003e-07
1.831060840751123e-06
1.115834130341451e-05
3.749498566549205e-06
1.308197738721221e-05
5.948793456244538e-07
1.810079188029918e-06
6.96132331031759e-07
1.000448343313608e-06
3.756947428020731e-06
2.135493331428893e-06
2.816536874440528e-07
2.852780379029687e-06
1.029905585427281e-05
4.158272254365295e-07
3.217990558014953e-07
3.029695412412425e-07
1.181550149199505e-06
5.640329454500965e-07
8.275052614963846e-07
7.101484308140123e-07
1.905321341009217e-06
5.184905782540838e-07
2.394546334182395e-06
8.840636162254961e-06
5.362262605495146e-06
4.569427867379784e-07
8.449333918585529e-06
1.659389390190374e-05
2.824920393991734e-07
2.678818538781347e-06
1.822962446324005e-06
4.374685919629531e-06
2.898288410202037e-06
2.609967003013795e-07
1.240948974157827e-06
4.162900000826473e-07
2.844944671774201e-07
1.905124513306861e-07
9.073126025210836e-08
4.743008176136951e-07
9.858610954483127e-07
3.166346499293009e-06
3.247656306711693e-06
3.905811575985888e-06
4.189918383655565e-06
1.402448018092072e-06
2.227423686382674e-05
9.956392215597297e-07
4.84575623477804e-06
2.225451135173915e-06
7.800637695525134e-07
4.677465008156382e-06
6.169145897759379e-07
1.167744961861733e-06
2.015451942034969e-05
1.001225115339119e-05
3.14628356814511e-06
4.02731137292898e-06
7.545950089903965e-06
2.369227730795224e-05
7.893202415448274e-06
1.566239907059853e-05
8.067027641065441e-06
6.87325931574746e-06
8.345924251878437e-06
1.259145998724308e-05
1.325303001798531e-05
6.247116975492944e-06
5.698837025749839e-06
7.187397440973855e-06
2.536590242171088e-05
3.002833235348617e-06
2.421066283754599e-06
1.689115046683735e-06
8.291058883133906e-06
2.067834744423461e-06
7.247268374661615e-06
3.767872740200947e-06
3.125929457153434e-06
1.751298755566235e-05
9.804172697523064e-06
2.901672169596011e-05
2.115295985219344e-05
6.698931028574624e-06
2.179480925812013e-05
7.820780720668006e-05
3.333506304203113e-06
1.138936717151601e-05
5.718233703181969e-06
1.504575041037249e-05
6.625839513371109e-06
3.058380795163674e-06
6.478780066250522e-06
1.955682884288301e-06
9.939987660380035e-07
1.34398700108627e-06
2.03211419864913e-06
1.455782212125921e-06
3.342431547336902e-06
2.932321844643343e-06
7.33304784837825e-06
8.452621949430257e-06
1.058132144679439e-05
1.479780141858881e-05
5.544932342803833e-05
1.919299739498561e-05
1.210711610644094e-05
4.456763236120681e-06
3.843703173704236e-06
1.748097928175977e-06
5.742442561010726e-06
1.367700462096778e-05
2.347611414755164e-05
1.179044994357538e-05
3.177208162544432e-06
4.395068961519822e-06
8.301363046420874e-06
2.541458930545621e-05
7.85603722023897e-06
1.609135364577831e-05
8.92267741127874e-06
7.597655973721668e-06
8.99125240902135e-06
1.441350918343749e-05
1.437880929138213e-05
7.063886167247395e-06
5.915326034714925e-06
8.215478609752965e-06
2.71044952643638e-05
3.280968062123658e-06
2.591428520255992e-06
1.73217216239457e-06
8.242292958022241e-06
2.159209659291092e-06
7.92657300746291e-06
4.171901411017107e-06
2.817913502202165e-06
1.879336200328226e-05
1.019199694543524e-05
2.972981314446783e-05
2.382181773876082e-05
7.898718037075574e-06
2.270134502881492e-05
8.05720675345944e-05
3.440640499127524e-06
1.244748157160607e-05
5.913744008259488e-06
1.599278966326468e-05
6.856737566382197e-06
3.40804929285767e-06
7.937519249609322e-06
2.170481949742378e-06
1.069720311196696e-06
1.532334136040975e-06
2.517087050719935e-06
1.759087711570781e-06
3.456581707792313e-06
3.044664983797708e-06
7.545276487805375e-06
7.971172983914748e-06
1.101847844999317e-05
1.682688097221358e-05
5.605801759444716e-05
2.208622875064346e-05
1.360734646811567e-05
5.020642265844893e-06
4.200990956088495e-06
1.868497587049247e-06
6.352964048344087e-06
1.505913138021147e-05
5.317366995038568e-05
3.996835891173961e-05
2.707052531311168e-06
7.440607067583218e-06
1.423597187394058e-05
3.96484744859292e-05
2.86213564561071e-05
2.417767620629693e-05
1.974493646568487e-05
5.187914023620055e-05
5.977076253962133e-06
2.206672036852982e-05
1.722168263704121e-05
3.822094903371771e-05
7.715724136103682e-06
2.15340642842195e-05
3.028338217206362e-05
1.068917127596392e-05
4.491575192471517e-06
1.730117988209985e-06
3.149564177875627e-06
5.300990017819936e-06
1.628720457880418e-05
9.828069279445475e-06
2.198557886620311e-05
2.659476015955202e-05
2.162408320942996e-05
2.341665950676457e-05
5.71770237452345e-05
1.707807129393388e-05
1.980800841833136e-05
7.720259289513885e-05
3.857361384073773e-05
2.030851349179427e-05
1.690961897884279e-05
1.984514119753805e-05
1.119755614951353e-05
2.323066491234805e-05
2.628366849661402e-05
4.445301083239891e-06
9.056222487594057e-06
7.003611224878485e-06
1.105378972939811e-05
2.215748510938288e-05
9.736956454939026e-06
7.96804093854938e-06
8.438251921866212e-06
3.870110358635009e-06
1.05584330388016e-05
3.29718486406383e-05
2.741058054656478e-05
4.605399365750724e-05
2.971752765002587e-05
1.269887290321324e-05
1.010943461680618e-05
1.95915741527696e-05
2.131710848083735e-05
2.17031327579149e-05
5.633121287427511e-05
4.253178214470029e-05
2.838983645978072e-06
7.736168933021372e-06
1.550517969844676e-05
3.699862217843024e-05
3.025334181114297e-05
2.450939730916566e-05
2.126822166582426e-05
5.767823008293735e-05
6.37439131746519e-06
2.302451060847267e-05
1.706494825891574e-05
4.091781753504495e-05
8.584421692262007e-06
2.259994170829187e-05
2.864612286155974e-05
1.139142781237003e-05
5.090633744859918e-06
1.776448765275921e-06
3.063939762919764e-06
5.337462950667567e-06
1.662945263015329e-05
1.073091717784353e-05
2.130553128981569e-05
2.862385759102076e-05
2.272233591875799e-05
2.193571836515807e-05
5.912817490193907e-05
1.86769468497088e-05
1.822099178156485e-05
7.738868114940082e-05
4.286418441607393e-05
2.03750301160732e-05
1.75461423800431e-05
1.976941521274841e-05
1.089642343743651e-05
2.500388309864315e-05
2.973575568328519e-05
4.667882090832453e-06
9.536437752052207e-06
7.266464987745983e-06
1.186261376203915e-05
2.502694547388214e-05
1.033821739754673e-05
8.2727537292643e-06
7.956073305211705e-06
3.950708243054096e-06
1.108382021227101e-05
3.471800897717367e-05
2.412547206829759e-05
4.929618421991769e-05
3.096592704275421e-05
1.3366263914223e-05
1.041332209811996e-05
1.9773307476269e-05
2.230238931499501e-05
2.357112640828319e-05
5.71204182674629e-05
4.102986400020406e-05
3.064534726401573e-06
7.612227086002174e-06
1.408987283140693e-05
3.662341661611004e-05
3.26995705595512e-05
2.415345935573519e-05
2.242472594716038e-05
6.113747783158204e-05
6.646027904040886e-06
2.217185493564082e-05
1.657378701347083e-05
4.590117917911249e-05
1.028762854295674e-05
2.312414690642229e-05
2.686695085030563e-05
1.169821041685438e-05
6.150134874502626e-06
1.831690408372295e-06
3.007712549762763e-06
5.233417991332647e-06
1.65259604070494e-05
1.178950194206213e-05
2.359644663867904e-05
2.763963124575734e-05
2.379864040082047e-05
2.047926076348914e-05
6.612924926978072e-05
1.714255487320941e-05
1.669399439699828e-05
7.797131524153137e-05
5.2233019267344e-05
2.119949950080868e-05
1.747084500108918e-05
1.973091145443758e-05
1.082059893305483e-05
2.449348017948881e-05
3.203522742303181e-05
4.442211780812182e-06
1.028910148814719e-05
7.354696967396132e-06
1.160924705768993e-05
2.269514165221848e-05
1.000634923263562e-05
8.397639603437031e-06
7.618120180836465e-06
4.37229916865713e-06
1.243102457023083e-05
3.307124654300933e-05
2.195392930956587e-05
5.001844370004308e-05
3.330813502617413e-05
1.251094249532261e-05
1.106937065258168e-05
2.02653543131366e-05
2.209253996394097e-05
2.42558843703266e-05
5.528900776414734e-05
1.979094167848147e-05
2.345059489296016e-05
6.502419706364853e-06
1.014931940763014e-05
2.062154421620672e-05
7.173574895402585e-05
1.839946002456192e-05
3.071289599520009e-05
0.0001255799512797586
1.45063906104474e-05
1.387476267808323e-05
2.563850314443922e-05
7.403501191165175e-05
2.14525844818306e-05
1.771909860707716e-05
1.400659849688892e-05
2.665390882809824e-05
8.925306358141285e-06
2.812114405356776e-06
3.617763027260251e-06
4.649857267045721e-06
1.455331269563305e-05
1.329434384484259e-05
4.264746749137546e-05
2.424124029488619e-05
2.085186380753518e-05
1.088268252990859e-05
5.410456036640051e-05
8.014589047027391e-06
1.441686403202361e-05
7.212163512968978e-05
8.252714336393771e-05
2.32370040962729e-05
3.667839212925007e-05
1.923377731741538e-05
2.765198162559563e-05
2.174383728327804e-05
4.787822553288307e-05
6.401666364535403e-06
2.927831184966516e-05
1.087420719163491e-05
7.701575353786113e-06
7.982020031777478e-06
5.171706703279652e-06
7.783880975478547e-06
1.408956428021811e-05
7.115292034325426e-06
1.225983142213404e-05
1.69401420171315e-05
1.766639734804072e-05
0.0001256015032332414
2.995675419529788e-05
1.635441134584999e-05
1.482667200845351e-05
1.268963270104697e-05
5.512502264216693e-05
3.151159118277314e-05
5.092971255909888e-05
1.834896319680215e-05
2.624362933940934e-05
6.412001025073666e-06
8.868536451629595e-06
1.99135855294116e-05
7.700906020601736e-05
1.80023502206277e-05
3.087863022027032e-05
0.0001161878541459962
1.468244521047184e-05
1.196900398287175e-05
2.503209148519439e-05
7.093577064243336e-05
2.100083454776251e-05
1.80454321143922e-05
1.261336418876928e-05
2.592553856301691e-05
8.889676813009817e-06
3.388961684869639e-06
4.203117528410636e-06
4.893713325172241e-06
1.377302634491204e-05
1.289789305745362e-05
4.818013446162948e-05
2.40805607042449e-05
2.028217000225527e-05
1.036080230506485e-05
5.113389324119843e-05
7.176013020548764e-06
1.479366525028138e-05
7.569530233351697e-05
7.793560084350504e-05
2.474272769763154e-05
3.597492887838619e-05
1.933819039833487e-05
2.857554748987441e-05
2.078564809541665e-05
4.71291674724993e-05
7.026112906574076e-06
3.277020935687706e-05
1.101900880897828e-05
7.336731902010422e-06
8.122011515007763e-06
5.491206444706923e-06
7.628738085316507e-06
1.466448423526383e-05
6.861159832645322e-06
1.297387078303504e-05
1.577079722067191e-05
1.722264188958037e-05
0.0001276120861434932
2.894744155553697e-05
1.783980204514483e-05
1.554475128758535e-05
1.27884246360213e-05
5.237870491462243e-05
3.004939838811607e-05
2.494898372194599e-05
1.36370093602966e-05
4.332176513926628e-05
7.059744433230309e-06
2.976044138492437e-06
2.012850197961745e-05
8.269125517068029e-05
2.124788281181209e-05
2.789641638322581e-05
0.0001134106874015201
2.341956965670454e-05
4.442957718336383e-06
1.081045445442407e-05
3.357278785550112e-05
2.044002106395359e-05
2.806579939875189e-05
8.175631615151581e-06
1.602118452448662e-05
7.591901553976594e-06
1.316568140905335e-05
7.74415409250611e-06
5.966055183760938e-06
1.279020957121984e-05
2.166932077160037e-05
6.210638293075334e-05
2.452353308782761e-05
1.280218585035798e-05
2.075155175069709e-05
3.331444410988048e-05
6.021818911112118e-06
1.605905837302798e-05
0.0001104086826792896
4.401376121888299e-05
2.940780195205359e-05
2.199424880263119e-05
3.28589481299639e-05
5.266446977458831e-05
1.300594269097095e-05
3.009131508279349e-05
1.477939782867359e-05
5.89613208877565e-05
9.176097549623417e-06
1.173406079651937e-05
7.648714675394648e-06
9.533198806329596e-06
9.2328458358172e-06
1.156122752361651e-05
6.74799996658987e-06
2.615631922682651e-05
1.714494428336351e-05
1.413436335360783e-05
0.0001253152979929387
2.60878361858697e-05
2.587340773893814e-05
3.924446460508805e-05
9.951315735402894e-06
1.723778076387957e-05
9.4193472605723e-05
2.588935360216707e-05
1.780021355970437e-05
3.915999702059292e-05
6.36554920058766e-06
3.795331121613399e-06
6.279990348544208e-05
5.933935134857984e-05
3.410011267559694e-05
3.188813166866867e-05
5.103613167306097e-05
3.518750861523564e-05
3.437665318694177e-05
1.633206521549136e-05
1.616837071943053e-05
7.150767884604369e-06
3.789384798124762e-05
9.389438869337096e-06
2.1966474767052e-05
4.910223706879124e-06
2.935399315606228e-05
6.21621785498142e-06
8.859258637010007e-06
4.399143746253866e-06
1.966184062188136e-05
4.325848980885881e-05
3.358060561168642e-05
9.762824383899967e-06
1.977023075885945e-05
1.117663926041654e-05
9.145073652295429e-06
1.600167091081963e-05
0.0001190961666886777
3.090090794991071e-05
4.185144907131691e-05
2.473509830715661e-05
3.948155155040018e-05
8.572534022024215e-05
1.151431120704809e-05
1.695735219984913e-05
1.569966845588831e-05
7.607993317737909e-05
1.361404373114391e-05
2.318542725491368e-05
1.338010639211646e-05
8.67785049982173e-06
1.487815898097629e-05
1.78543904415975e-05
1.107391683984169e-05
1.634453961667429e-05
2.246516904072419e-05
1.644890634519701e-05
0.0001196909355693522
2.397822636422904e-05
2.800057521853998e-05
9.565740083457511e-05
2.1904011489506e-05
1.62984926858713e-05
5.206115090123033e-05
2.743930919259229e-05
1.862349161742262e-05
3.650912815227158e-05
6.133634525500653e-06
3.811594832771836e-06
7.095237751791466e-05
5.436736574394773e-05
3.506347611136252e-05
3.482971772390974e-05
5.415476364934223e-05
3.805610898569019e-05
3.909545684497686e-05
1.658511766989107e-05
1.551895907289501e-05
7.330201516051548e-06
4.024625590666922e-05
9.839235692686861e-06
2.219219214155126e-05
4.554145713582854e-06
3.347603442940628e-05
5.586427783347247e-06
8.514508774525373e-06
4.334721030469068e-06
1.944505854059557e-05
3.742848946820019e-05
3.269952424373605e-05
9.861412382985052e-06
2.021052378398745e-05
9.376078473377601e-06
9.1811244210356e-06
1.547878739149745e-05
0.0001162857516252362
3.134213883124082e-05
3.994907495628684e-05
2.449708928799852e-05
3.926870025578583e-05
9.114423451394161e-05
1.147159815050344e-05
1.544048767198774e-05
1.528011456591309e-05
7.737668368015868e-05
1.330965599740599e-05
2.729586363909034e-05
1.351970768742443e-05
8.649582571145877e-06
1.489121318871466e-05
1.754218300351597e-05
1.302760217603189e-05
1.547067988220989e-05
2.26327222191242e-05
1.643933238683344e-05
0.0001141383329095224
2.418041413360246e-05
3.028333011699741e-05
0.0001060150073112719
2.166894443655976e-05
1.727218258428074e-05
5.433260499048969e-05
3.548927540845694e-05
2.416852872357513e-05
2.268970319395183e-05
6.421195148610032e-06
2.413101344832363e-06
7.824281621822155e-05
2.659192392380566e-05
4.08269334542929e-05
4.943251054756927e-05
5.42420143845839e-05
3.353974829396116e-05
7.179004141207818e-05
1.605561808705124e-05
1.621949866109745e-05
3.777513047205025e-06
4.884837787377324e-05
1.072634026287952e-05
1.295411084061535e-05
3.025057640695418e-06
5.360591818275957e-05
3.944413637337704e-06
1.201715111140189e-05
4.420896848980987e-06
1.042862983042948e-05
2.068046614738275e-05
1.641174834460163e-05
7.197218156934454e-06
2.483735374764413e-05
1.212069548109173e-05
3.134998515387346e-05
1.46052619895713e-05
9.851062164922039e-05
1.899366899039437e-05
2.256083139761254e-05
2.496733851686167e-05
2.23270178161922e-05
9.419354054567019e-05
1.338798086015618e-05
1.485348283377631e-05
1.132236676919891e-05
6.01144874127585e-05
9.024046575573446e-06
3.235169169158439e-05
1.121296384205554e-05
1.013537706175686e-05
1.02625539049587e-05
3.989317993338093e-05
2.653935337060762e-05
1.090134485735575e-05
2.237824289785645e-05
3.280326776708157e-05
5.339242780845966e-05
2.69482915913051e-05
3.852243729518177e-05
0.000106814049930467
2.407587305538189e-05
2.24732120189711e-05
2.535872705505572e-05
1.752078446905576e-05
1.562936751711403e-05
2.39770322964427e-05
1.332168813909157e-05
4.55831788978453e-06
2.859890078829873e-05
1.716993700187249e-05
2.380754843999088e-05
4.155029152842124e-05
5.351322561307952e-05
1.959213557647693e-05
7.734012382821407e-05
1.228833430993157e-05
1.559092163754929e-05
3.149869890260912e-06
4.473841430976845e-05
1.734848716025127e-05
1.062046014863918e-05
5.488096399070152e-06
6.460222747570472e-05
5.523332685744678e-06
1.820089632638454e-05
4.885126867793126e-06
8.228329263886806e-06
5.484091372048997e-05
1.572907735375838e-05
1.563288818304221e-05
2.638474045508165e-05
2.485791441498287e-05
3.319739073999944e-05
1.479500882358477e-05
0.0001036022068722617
2.258122747176448e-05
3.423517454902304e-05
2.523193019573782e-05
2.83058331269044e-05
5.240518318443654e-05
9.149554210691364e-06
1.503198514063324e-05
1.964592358356437e-05
3.982912182665734e-05
7.555172386540851e-06
2.395919748631071e-05
1.874658267591155e-05
9.469175913781353e-06
7.824128916528104e-06
2.584236621957307e-05
3.330631267821302e-05
1.231655801679911e-05
1.176036535934436e-05
1.672753055129228e-05
2.279404228512191e-05
2.87329892630347e-05
5.032037689197504e-05
3.812533058023161e-05
5.468044260502067e-06
2.083227201073125e-05
1.997718888079786e-05
1.670757002630873e-05
1.506289145300274e-05
2.129460995957903e-05
1.777758092701139e-05
9.256076869684916e-06
8.458037468089892e-06
1.773933066413651e-05
1.362779838944824e-05
5.603694376875304e-05
3.730325527994508e-05
2.660653309674531e-05
9.286567799369401e-05
1.157287211123248e-05
1.052847673515309e-05
6.348259089834162e-06
3.907719927140135e-05
4.272856572797059e-05
3.153188447218085e-06
4.561791168776011e-06
5.083853957944213e-05
7.016591856200732e-06
2.229602243617843e-05
7.228112127016655e-06
8.337098931701872e-06
0.0001383341487785701
1.445541293978209e-05
3.989567273429403e-05
3.646672595719127e-05
2.56647804817556e-05
5.016549237170587e-05
1.998353129947819e-05
6.72551595234009e-05
2.729552094685141e-05
5.578340401512482e-05
1.919250156754107e-05
1.25871361040042e-05
1.829028111155141e-05
9.948086379441084e-06
4.134144818226943e-05
1.492132327884163e-05
2.776352730963722e-05
1.135803023350461e-05
4.266730919283321e-05
3.698346537910805e-05
8.444712420178466e-06
7.448600186521446e-06
3.909345148128257e-05
6.692825477275466e-05
1.835205015942549e-05
1.169476300192065e-05
1.148492864063488e-05
1.486721124243831e-05
2.613573383837884e-05
3.5967328966266e-05
1.256869604547742e-05
8.394933199411302e-06
1.820688306714607e-05
1.84629781486426e-05
9.349070985400675e-06
1.306541986529732e-05
2.492487542919871e-05
1.272123141573087e-05
6.516591392834826e-06
9.993134585613066e-06
1.82805235940687e-05
7.820496318012231e-06
3.309535365620077e-05
2.015777484512489e-05
5.418957275861469e-05
4.336880602952589e-05
4.573355006360976e-05
2.037523989158945e-05
1.205550062498014e-05
2.04336674301581e-05
1.686858977862908e-05
3.786645704751842e-06
4.872488327820827e-06
1.482954070791206e-05
1.179140509448908e-05
1.146854418471531e-05
3.737499570570099e-06
5.295522109940405e-06
5.217604780899827e-05
2.645001049646174e-05
1.575001004204566e-05
4.335363234944426e-06
1.402300193277192e-05
2.430942070716109e-05
1.172398023569266e-05
7.142647819879192e-06
7.18014541315079e-05
0.0001461535481050011
2.225964909548736e-05
3.67230878805863e-05
2.111909008628606e-05
3.613159990416882e-05
6.716470510806784e-05
1.544965158011486e-05
4.190132096010897e-05
2.699198054256008e-05
4.050821960196252e-05
1.552112627775171e-05
9.960071691805879e-06
9.753357550713368e-06
1.701188544278012e-05
8.603161129597914e-05
7.600203825568569e-06
2.21200088197106e-05
1.659397836342565e-05
6.667225581974965e-05
1.874167374969185e-05
1.083389978538743e-05
9.182783446057502e-06
9.540941553846249e-06
2.081989338098083e-05
6.004052003305843e-05
9.336726947371338e-06
6.276958492192363e-06
5.088774659690799e-06
7.640597684884727e-06
1.124547380887168e-05
1.275221844994909e-05
1.724142939292118e-05
1.621857486537216e-05
9.48987552455971e-06
2.505554454716324e-05
2.767839061511336e-05
2.861783346238944e-05
4.14928563589033e-05
4.76481268837793e-05
5.078093966466964e-06
1.453694779477331e-05
5.682065805796765e-06
9.54272198072515e-06
9.8426719400434e-06
1.126746700923798e-05
1.256891038976087e-05
1.793090899207523e-05
4.138481875379421e-06
1.666273993252847e-05
2.23819410569667e-05
6.885036847088936e-06
3.748693485153534e-06
1.085777043831395e-05
1.436816117058625e-05
1.023937948092351e-05
1.465206370589471e-05
1.825391511186495e-05
0.0001074283674284277
4.750624720234661e-05
3.998810476567303e-05
3.02351338826255e-05
1.7788699111143e-05
3.022158640282088e-05
4.61627413675892e-05
2.229128403058796e-05
4.803366231776128e-05
4.205137812229603e-05
2.060861548877333e-05
1.87053159044032e-05
1.209605060440581e-05
1.241860697867002e-05
3.21768565940179e-05
2.690482183280788e-05
7.164158488639937e-06
4.065777962910229e-05
9.514273020365666e-06
9.095323169596075e-05
1.781144711147007e-05
2.861841988466079e-05
6.011100918539447e-06
1.230993730510512e-05
1.462954744225951e-05
5.277503221017922e-05
2.097371845049054e-05
1.538593319551411e-05
1.679970691193191e-05
1.248918352516913e-05
8.957459530768878e-06
2.096861137027663e-05
3.951829306699101e-05
5.397912854381553e-05
1.909565934324174e-05
1.190983296986918e-05
4.546997471863162e-05
1.964423762211106e-05
3.451161561551174e-05
4.473416762388311e-05
9.382870145435478e-06
1.686417558398718e-05
6.793424838614733e-06
1.44101703172933e-05
1.191649984035682e-05
1.650280705327861e-05
1.219965037475925e-05
2.634934195146531e-05
5.417900172444831e-06
4.324811210975121e-05
1.058573574030161e-05
2.675456187769766e-05
8.957277389909081e-06
2.028125214303176e-05
1.936926044709599e-05
8.108951119000473e-06
5.569830366524529e-05
1.363445375057634e-05
9.691133507501463e-05
3.279005581349422e-05
1.480798720503953e-05
2.83918139670495e-05
3.08877137011288e-05
5.175820425846279e-05
2.341364792308489e-05
2.836901670845464e-05
7.651276267126221e-05
4.327620511304798e-05
1.425222985399317e-05
4.824817628546989e-05
3.906682579392874e-05
1.93090169277508e-05
3.385448802237248e-05
2.640723485927715e-05
5.967644209073965e-06
4.054128755630677e-05
7.324281956914147e-06
3.52928691167686e-05
2.240554012349018e-05
4.804335647269019e-05
8.420964630187765e-06
1.568487575946001e-05
2.240042309209985e-05
3.845139184893175e-05
3.699129740099244e-05
1.176431911896843e-05
3.846105948023271e-05
1.981415312448534e-05
1.332296643210399e-05
9.8036390677341e-06
3.658254002300682e-05
6.593457712671649e-05
2.305033073367515e-05
7.161385310531875e-06
0.0001015147831330601
4.061123604063975e-05
3.879509873441726e-05
3.230505202858193e-05
4.168104349196174e-05
3.347213942877196e-05
1.533272105445442e-05
2.003741512523118e-05
1.629818346818396e-05
4.232814895689399e-05
1.698324194930782e-05
4.914692901028639e-05
1.278574497778893e-05
2.949632921638697e-05
1.502810958057896e-05
3.462155887760475e-06
1.725427873396008e-05
9.666216960503218e-06
1.747999841682249e-05
1.035433793862051e-05
1.565481469631057e-05
1.654082516106989e-05
2.648533169612018e-05
5.714251822681863e-05
2.168141185337218e-05
2.815933373982546e-05
1.54497406393104e-05
0.0001300180553771617
7.330014027628602e-05
7.285409368715294e-05
7.896530393557839e-05
8.202308207075693e-05
1.16955149369561e-05
2.572808524130648e-05
7.145958524715005e-05
4.235087884354237e-05
4.514451787040688e-05
1.386360048893189e-05
1.592131968827848e-05
4.486662695013206e-05
1.643999328541863e-05
3.663182428886255e-05
3.969323531905337e-05
2.355627109244553e-05
1.263581382587286e-05
2.734938254500098e-05
1.109937194927147e-05
2.610330527645337e-05
5.25114262696426e-05
2.18518668779745e-05
6.007328186671679e-05
2.012602400474701e-05
1.125557664941447e-05
1.609570419809872e-05
2.804336660641303e-05
6.030811717573898e-05
5.40715923829832e-05
1.08268293748766e-05
6.498915083583565e-05
3.015491331434615e-05
3.746497904028318e-05
1.539119216677711e-05
2.118805093905779e-05
1.957463020408169e-05
6.982384202199516e-05
9.168747317221661e-06
2.596623093174083e-05
2.411114624016916e-05
1.233404915547658e-05
2.320626713815516e-05
4.585421869629481e-05
3.12987645157152e-05
8.535404610191272e-06
3.691169184911699e-06
1.338841380431267e-05
1.667470014084986e-05
8.48707533205296e-06
1.376605369786398e-05
1.595996077812554e-05
1.896215030045156e-05
1.998322346865701e-05
0.000160991968107856
2.457835216313118e-05
1.828844842370509e-05
1.560982860363885e-05
0.0001021423146340287
2.576113107066617e-05
8.887993928637622e-05
0.0001087946482058126
2.367176769110446e-05
1.58782175075797e-05
5.720852605211638e-05
8.19372893573369e-05
2.007610722111472e-05
5.253103667701228e-05
1.283679738801138e-05
4.067749838225652e-05
3.693587147865021e-05
4.193186604093149e-05
0.0001378243498889766
3.012147949267379e-05
1.881103872673072e-05
2.993623878438939e-05
2.736759218553932e-05
1.250509028200697e-05
9.922946119155674e-06
3.91827162192823e-05
3.456267583324176e-05
0.0001025251504803877
2.670059472315753e-05
1.392104922930483e-05
6.630843533776471e-05
2.010096283759552e-05
3.406714082624885e-05
3.152216332274559e-05
4.950390385406924e-05
2.369864260614857e-05
1.744547862458567e-05
2.837368505106349e-05
1.211920352256685e-05
1.222606693309061e-05
3.499045410170007e-05
3.808870627547537e-05
9.169133436171966e-06
1.928113880830039e-05
2.004419842042201e-05
1.442253695384264e-05
2.089822923161688e-05
2.815114035142957e-05
3.169136232314772e-05
2.771234524869412e-05
1.048035777384389e-05
8.209080772565891e-06
1.132787883999338e-05
7.549291628233708e-06
2.153558963561729e-05
2.417268062192468e-05
4.825672331162752e-05
2.097364022596103e-05
0.0001276073753717688
2.534542960949384e-05
2.325775923288152e-05
3.221313380678827e-05
0.0001385611127703104
1.829541426156566e-05
7.107535144220596e-05
6.016997914476079e-05
1.105046808371794e-05
3.238917143345912e-05
2.441001519801355e-05
0.0002355314017482116
5.405763071471037e-05
5.010483941418966e-05
2.911770776704652e-05
4.218720062300394e-05
2.068852161798366e-05
3.315406879961877e-05
0.0001456642970403166
2.150337357371615e-05
1.363587351242004e-05
5.666479429556991e-05
3.323911473656402e-05
2.278797988095807e-05
1.967638932117959e-05
3.39792019693244e-05
3.484051754187821e-05
0.0001066104215984376
3.026690404639537e-05
1.452369611323752e-05
7.867430644593801e-05
2.041417539098185e-05
3.162646611766054e-05
3.26611047640659e-05
5.421038048626093e-05
1.735754890287992e-05
1.722336327676125e-05
2.448755413480375e-05
1.311286704410861e-05
1.115262110922605e-05
3.897529829285619e-05
3.175358960800321e-05
9.658879183320245e-06
1.653170090046838e-05
1.886686070450147e-05
1.513386968532053e-05
2.344811517727671e-05
2.094782218322252e-05
2.812933303282116e-05
3.266774124162934e-05
1.161220595990474e-05
8.479991790526128e-06
1.131264869399327e-05
7.837809252832012e-06
2.207880085088009e-05
2.628228815687315e-05
5.299413588957788e-05
2.063427150198215e-05
0.0001128909222107244
2.540547163341824e-05
2.38953589391658e-05
3.452566639870812e-05
0.0001457851043774861
1.893074141323434e-05
6.299935786192015e-05
4.706241465447965e-05
1.096626720812182e-05
3.559841572351259e-05
2.661000305906164e-05
0.0002596483910519577
5.86150125291824e-05
4.491676350851438e-05
3.001402517980395e-05
3.681308769170178e-05
1.589401829786404e-05
2.628656406736433e-05
0.0001405031428563799
1.993930254761224e-05
1.570749553669369e-05
5.695802224725198e-05
3.277124291077772e-05
2.30715502578868e-05
2.115144227094118e-05
5.516262850201424e-05
0.0001063407703124314
3.200586884973221e-05
0.000106656683937682
3.024520912897085e-05
2.66954708530247e-05
5.223064862082787e-05
2.531065891418406e-05
4.226191072907724e-05
8.674448257433249e-05
5.107770871084511e-05
1.593747184662848e-05
6.02407009672408e-05
1.58188318413543e-05
1.686146969633101e-05
2.835049143922007e-05
4.123778576880188e-05
3.320932755104822e-05
3.95014014605892e-05
1.415417617152047e-05
3.110684849485171e-05
5.55227211125577e-05
1.102078439470858e-05
2.658003821284107e-05
1.595758336406723e-05
9.41170229875835e-06
4.197276754502267e-05
5.540549165084811e-06
2.745904901795199e-05
7.045778775280973e-05
7.817345580922016e-05
6.055435243541058e-05
1.83175631230619e-05
2.764174946292681e-05
2.09954157119025e-05
2.081974615351301e-05
5.983289653425167e-05
7.216820063933549e-05
9.93178241959726e-06
8.871435210718842e-05
1.754455620760183e-05
1.467201663434241e-05
7.050355114936794e-05
0.0001088989825447975
0.0001116761302018364
1.862492994721125e-05
2.102081301566599e-05
5.133559212564569e-05
6.823461402141375e-05
2.409140060875571e-05
2.396463181297351e-05
3.615981213586341e-05
1.650094382826088e-05
1.643234186519863e-05
4.453780300784443e-05