/*--------------------------------*- C++ -*----------------------------------*\
| =========                 |                                                 |
| \\      /  F ield         | OpenFOAM: The Open Source CFD Toolbox           |
|  \\    /   O peration     | Version:  v1812                                 |
|   \\  /    A nd           | Web:      www.OpenFOAM.com                      |
|    \\/     M anipulation  |                                                 |
\*---------------------------------------------------------------------------*/
FoamFile
{
    version     2.0;
    format      ascii;
    class       volScalarField;
    location    "0";
    object      nut;
}
// * * * * * * * * * * * * * * * * * * * * * * * * * * * * * * * * * * * * * //

dimensions      [0 2 -1 0 0 0 0];


internalField   nonuniform List<scalar> 
1892
(
7.696910043773234e-08
8.622922179923249e-08
4.313278752166267e-08
1.729646801134099e-07
7.438840090194218e-07
2.946101827572712e-08
1.554001385540461e-08
1.491693430381428e-07
3.558726373225202e-08
1.689192674299706e-08
2.900909009600846e-08
8.479729299518948e-08
1.810143460933754e-06
5.429377377379793e-08
1.821287801911725e-07
1.014516621507576e-07
8.984774581059477e-08
9.228613073603198e-07
2.950294228315849e-08
2.717068813600987e-08
1.106338345586516e-07
6.052004067724013e-08
2.407377976745308e-07
2.412715113050107e-07
1.637392785575375e-07
1.584520000500467e-07
7.523424303206587e-09
1.96262756566719e-08
1.461670159653974e-08
7.84856222509834e-08
5.045366882909125e-08
7.637684618438359e-09
0.0001
0.0001
0.0001
0.0001
0.0001
0.0001
0.0001
0.0001
0.0001
0.0001
0.0001
0.0001
7.684947205922724e-08
9.014426319805141e-08
4.207466249925626e-08
1.74624466451944e-07
4.175983032463111e-07
3.259313599550062e-08
1.486416121151403e-08
1.537578710461201e-07
3.985979130938451e-08
1.240128047888149e-08
3.084692423514125e-08
5.310927029946689e-08
2.057204049088582e-06
5.529213017440005e-08
1.90885213248673e-07
1.091719584664635e-07
8.998710420176027e-08
1.056162787506066e-06
2.683127651167112e-08
2.922593287807144e-08
9.585030411590009e-08
6.230254630109097e-08
2.391944994762739e-07
2.28015897543823e-07
1.717526361883181e-07
7.573975390720171e-08
7.593351716719453e-09
1.57633604272638e-08
1.617105072003279e-08
8.189263877131539e-08
4.946699441029076e-08
8.428009901440089e-09
0.0001
0.0001
0.0001
0.0001
0.0001
0.0001
0.0001
0.0001
0.0001
0.0001
0.0001
0.0001
1.473138074752032e-07
1.306937962699768e-07
4.060520844569559e-08
1.733057117322639e-07
1.556688777971913e-06
4.85535912631429e-08
2.911968486595103e-08
2.441984306019214e-07
6.73287023555593e-08
3.296149739261179e-08
3.836058321122548e-08
1.508568000118235e-07
3.243068061719585e-06
6.064312592553023e-08
3.034226991425608e-07
1.712961816632027e-07
8.521384204211396e-08
1.634856326143928e-06
3.000383587146886e-08
4.031268561418457e-08
2.068739103078292e-07
9.721888705487331e-08
2.648022182451536e-07
3.857328979555665e-07
2.096619593199097e-07
3.107577515676796e-07
8.673128450199856e-09
3.882469886406744e-08
2.741827390032874e-08
1.186527569312874e-07
6.067552360552604e-08
1.275234382962647e-08
0.0001
0.0001
0.0001
0.0001
0.0001
0.0001
0.0001
0.0001
0.0001
0.0001
0.0001
0.0001
6.308343984854985e-07
7.743496198915104e-07
5.418995694520161e-08
2.74180632989886e-07
4.894469211357163e-06
1.827189230637818e-07
1.543038688205537e-07
6.859657392934493e-07
3.750592712972269e-07
3.54509400834704e-07
2.990673758160393e-07
6.325725122534309e-07
1.268588038135433e-05
2.65325550579914e-06
3.754240769062218e-06
3.112453980159158e-06
4.94094546586596e-07
6.553043690109153e-06
1.421264760968011e-07
5.815288535856547e-07
1.830155901974542e-06
1.087809103562852e-06
1.22667312271026e-06
1.688255100043204e-06
1.139974531048372e-06
1.22857747016103e-06
8.016150716688784e-08
2.018860307644497e-07
7.998361272854337e-07
9.483351177671481e-07
2.226213468234537e-07
1.887892849349781e-07
0.0001
0.0001
0.0001
0.0001
0.0001
0.0001
0.0001
0.0001
0.0001
0.0001
0.0001
0.0001
7.17187015303814e-07
9.179466649247341e-07
6.290648974092016e-08
3.103408430658862e-07
4.991575328115575e-06
1.921078088117833e-07
1.896682991183252e-07
6.952192492929687e-07
4.296461571084933e-07
4.760373301777477e-07
3.68552653825344e-07
6.359231643179056e-07
1.325686174734311e-05
3.835834389869616e-06
5.116490955796626e-06
4.289853296709037e-06
7.202897957351077e-07
6.993796660806458e-06
1.944229781307027e-07
7.769980967659974e-07
2.371771477566154e-06
1.319908385929107e-06
1.636146983936844e-06
1.932266150369917e-06
1.413764338818777e-06
1.278723358570038e-06
1.057082154354772e-07
2.375642727460864e-07
1.152709397862955e-06
9.790335527658245e-07
2.696964242282689e-07
2.511355983822462e-07
0.0001
0.0001
0.0001
0.0001
0.0001
0.0001
0.0001
0.0001
0.0001
0.0001
0.0001
0.0001
1.571497765361051e-06
4.055344433977222e-06
2.432583985046077e-07
1.119081958153701e-06
2.192443654842037e-06
9.740290464877551e-07
1.028171342857828e-06
9.449001381736734e-07
1.162684788981466e-06
2.338227917901204e-06
4.260945512281001e-06
2.347786897454372e-06
2.245746231290389e-05
2.38629965875019e-05
2.216615844195299e-05
1.724760095889435e-05
5.015965691653682e-06
9.87788056842153e-06
1.764186469017195e-06
5.541362106307362e-06
1.018653423177323e-05
6.036483259987236e-06
9.868964125870026e-06
7.255996457430381e-06
6.208302403416529e-06
1.699362310777235e-06
1.520261475317549e-06
6.109712858831479e-07
8.985774937149213e-06
6.192460457172659e-06
9.947185361645595e-07
1.47746137367728e-06
0.0001
0.0001
0.0001
0.0001
0.0001
0.0001
0.0001
0.0001
0.0001
0.0001
0.0001
0.0001
1.400635010771666e-06
1.139730839655526e-05
7.94953867694155e-07
1.984287383451368e-06
1.496162414904736e-06
7.872351205471035e-06
4.868319309197651e-06
7.263748181620349e-06
3.922672750435876e-06
2.845726997064794e-06
1.794666394432587e-05
6.151567960551097e-06
5.71602611664014e-05
1.901400040875655e-05
7.407347579204911e-06
6.466123479957777e-06
6.299365765898273e-06
2.026222009206524e-05
1.145214936044004e-05
2.434341769414918e-05
1.235346693609286e-05
1.49593153778271e-05
3.2468711441495e-06
2.186332755624269e-05
1.779888808530991e-05
6.941421185391259e-06
1.021166280726435e-05
3.246054888088747e-07
3.084831598300877e-05
5.341426158794721e-05
1.673772183013189e-06
4.405563682623379e-06
0.0001
0.0001
0.0001
0.0001
0.0001
0.0001
0.0001
0.0001
0.0001
0.0001
0.0001
0.0001
8.372080903456157e-06
9.22083068805095e-06
8.491758349509337e-06
5.069426952046052e-06
3.037796379635974e-06
2.294931927861491e-05
8.483008079796765e-06
2.362796868642085e-05
2.426858502338449e-05
2.655966081377321e-06
1.147715157315482e-05
1.300932823716765e-05
0.0001263111610755197
8.223065324298336e-06
1.20717457875689e-05
1.349825125419859e-05
5.576962953676523e-06
4.093918194256164e-06
3.149887617070686e-05
8.77527819782468e-05
3.33957991245442e-05
2.76998404191539e-05
1.05736185494898e-05
1.506642642086029e-05
3.26456693260128e-05
8.086919111533047e-06
2.440254866444944e-05
5.252042345522145e-06
1.247721513328217e-05
6.945103001439288e-05
5.626938754571887e-06
6.326773937333135e-06
0.0001
0.0001
0.0001
0.0001
0.0001
0.0001
0.0001
0.0001
0.0001
0.0001
0.0001
0.0001
6.214131487005027e-05
7.288529179171084e-06
3.581705743638356e-06
4.580078822715423e-06
1.452105129637975e-05
5.851422050051988e-05
8.156578792947235e-06
5.244230496512509e-06
2.443763341076386e-05
6.037975379297509e-06
4.575796487084965e-06
4.021873864496374e-05
0.0001104769179675013
2.283694357120807e-05
4.768156650719095e-05
2.098990653337901e-05
2.929653582387301e-05
9.532340461530055e-06
1.482588956605499e-05
0.0001288375580759754
2.353845834714287e-06
3.488341209774959e-05
9.438342406675126e-05
6.830476154476933e-06
2.01921404150885e-05
1.050719107467842e-05
1.230104435230666e-05
1.897535646860839e-05
9.733132970633238e-06
2.484918076065049e-05
1.435828178030725e-05
1.407191304196503e-05
0.0001
0.0001
0.0001
0.0001
0.0001
0.0001
0.0001
0.0001
0.0001
0.0001
0.0001
0.0001
1.990045422818792e-05
2.837289897518679e-05
1.13824586277621e-06
7.938840178838046e-06
4.342578345667418e-06
6.610490449173471e-05
8.281433423520435e-06
5.302497492703116e-06
2.221154514869775e-05
6.585897402267615e-06
6.648578527723544e-06
2.887736202838503e-05
2.206490638285285e-05
1.614840451931877e-05
5.875489130085034e-05
1.022770359480012e-05
2.147667908560784e-05
1.95516883246673e-05
1.780860416630171e-05
9.628672609052171e-05
5.891580555164647e-06
5.084679227450064e-06
9.302529911574932e-05
1.119575506952138e-05
4.917092028832758e-05
7.816773399778557e-06
1.096894764245501e-05
9.25307581533109e-06
8.503401646500135e-06
1.628162221511026e-05
3.667759355062495e-05
4.603296772139974e-06
0.0001
0.0001
0.0001
0.0001
0.0001
0.0001
0.0001
0.0001
0.0001
0.0001
0.0001
0.0001
1.826674988931436e-05
4.401977337013402e-05
8.874728048686429e-07
3.8671275887241e-06
2.645957313366211e-06
2.145507068074832e-05
7.012382621581053e-06
6.669674946668014e-06
1.980925368420767e-05
9.310790641097179e-06
4.325248861402334e-06
6.159802529364325e-06
1.461278190522972e-05
1.316477166999435e-05
2.478155581062294e-05
8.586091126729811e-06
5.128437425299035e-06
7.93635703135382e-05
1.969214550797602e-05
3.395490663534011e-05
1.175143274453538e-05
1.369785102947457e-05
6.911258272752507e-05
1.252360187729223e-05
3.187982582482511e-05
2.527672950801137e-05
9.932075573435252e-06
3.812255638686573e-06
3.620311878380372e-06
1.756869569352465e-05
1.89687859904252e-05
4.394432074634042e-06
0.0001
0.0001
0.0001
0.0001
0.0001
0.0001
0.0001
0.0001
0.0001
0.0001
0.0001
0.0001
1.47730826263112e-05
1.160187496808801e-05
2.181743488525923e-06
1.500898401233736e-06
2.628359938895894e-05
1.807992708260042e-05
5.206226510181234e-06
9.197532265330252e-06
5.798601759705419e-06
3.192484881254105e-05
3.704039647235347e-06
5.965936636492293e-06
6.300412271429333e-06
1.501244712740564e-05
7.083118848793806e-06
4.20289289313609e-05
1.353292547459004e-05
0.0001077133317661115
5.002010357703943e-05
8.076734741421996e-06
5.417399321162771e-05
1.490669099816499e-05
1.268924573995985e-05
1.402615668251455e-05
4.752397803080866e-05
4.159310714596117e-05
1.386586452341327e-05
1.226435786174118e-05
7.534782613486059e-06
8.415156167927294e-06
6.732842375536425e-06
1.092138390290613e-05
0.0001
0.0001
0.0001
0.0001
0.0001
0.0001
0.0001
0.0001
0.0001
0.0001
0.0001
0.0001
5.098062327589228e-06
1.79641775841911e-05
4.668213815888916e-06
1.847745443993215e-05
3.100760041821916e-05
1.265526224906719e-05
5.767575481038582e-06
6.69169059621002e-06
2.431502871317551e-06
4.74916438535704e-05
2.741061321321946e-06
3.704734290190165e-06
4.659408040238137e-06
1.092568241661742e-05
4.241018949713362e-06
1.89704087185567e-06
7.789519053289048e-06
3.031638336979902e-05
1.002081855349868e-05
5.707773942014771e-05
9.162769700093002e-05
5.267061107207227e-05
5.680371257311041e-06
5.781882632798389e-05
4.446929294799258e-05
1.002193042414345e-05
9.521178575811526e-06
5.200631938409075e-06
2.990893239555885e-06
1.410582734466559e-05
5.74403193850095e-06
4.679902670749952e-06
0.0001
0.0001
0.0001
0.0001
0.0001
0.0001
0.0001
0.0001
0.0001
0.0001
0.0001
0.0001
9.433862475086974e-06
8.468435227337618e-05
6.090422793166738e-06
5.601814068388036e-05
9.942054460759337e-06
9.128570342265135e-06
2.327905832904398e-06
4.782419263284524e-06
1.151710556044514e-05
1.498880755203371e-05
3.113870766672652e-06
1.002265125008277e-05
3.692303907225717e-06
6.964924738224267e-06
4.548168792322712e-06
3.430842451767399e-06
1.560994161254399e-06
5.008467583624333e-06
1.356120516746209e-05
1.443342344672289e-05
8.855846330869358e-05
9.760131949859071e-05
9.051813180606853e-06
1.631478551018394e-05
2.764754743799491e-05
1.598511614978104e-06
5.892430889727402e-06
4.399748594788877e-06
3.392421894436422e-06
7.448832602031156e-05
1.513597245422982e-05
1.153668167660766e-05
0.0001
0.0001
0.0001
0.0001
0.0001
0.0001
0.0001
0.0001
0.0001
0.0001
0.0001
0.0001
1.907273471550313e-05
9.616624390769942e-05
1.699131212362109e-05
5.993521563137429e-05
4.315934973853124e-06
1.285459561079541e-05
2.945983124176136e-06
2.039638410523489e-06
6.656622292746188e-06
5.317503878442652e-06
1.590522864917875e-05
4.284130144943253e-06
8.241143992984628e-06
2.952711770962012e-06
2.126932854711214e-06
6.379687698120112e-06
2.233443233282314e-06
1.556907748933752e-06
1.514602546649259e-05
9.786730104133364e-06
1.970026703809377e-05
0.0001550496741525722
3.407837136904633e-05
1.026272384339596e-05
1.902905716517162e-05
3.088946952761224e-06
2.690025657552115e-06
2.451400028563974e-06
3.526418970716871e-06
2.428081976717019e-05
7.889725944575647e-06
4.673109097228763e-05
0.0001
0.0001
0.0001
0.0001
0.0001
0.0001
0.0001
0.0001
0.0001
0.0001
0.0001
0.0001
1.055701707371021e-05
2.966186997475743e-05
2.550584488186965e-05
2.238206073251431e-05
9.64908549010729e-06
1.337870300191229e-05
1.660099080508275e-06
2.556269258625298e-06
1.22531446666871e-05
5.51870619539309e-06
1.57482341888411e-05
7.121003087568084e-06
4.122163421637955e-06
3.485318664447203e-06
1.444611501459859e-06
2.864583932591729e-06
2.95538015287977e-06
1.687716550509105e-06
2.909173870106618e-06
1.687826218561008e-06
7.977197400352539e-06
3.84440524774684e-05
2.832852971570267e-05
1.027405584644462e-05
3.908912961910138e-06
2.088373423485986e-06
2.763183524826994e-06
1.556676134546682e-06
8.037517611283287e-06
8.917289843517066e-06
1.34367167715028e-05
1.600915223231818e-05
0.0001
0.0001
0.0001
0.0001
0.0001
0.0001
0.0001
0.0001
0.0001
0.0001
0.0001
0.0001
3.504986035913094e-06
1.078491945008024e-05
1.235492511579072e-05
1.086262392138169e-05
1.981495547633302e-05
1.143632726768342e-05
1.398011505231503e-06
4.060235571406397e-06
7.449403313148008e-06
8.919611908743872e-06
8.898675555457596e-06
1.522847441417736e-05
7.616318691639109e-06
1.705976926031442e-05
1.313908231547392e-06
2.160575734208827e-06
1.403603253011021e-06
3.249508285516472e-06
1.968084674734306e-06
1.567326743037054e-06
4.64681592907541e-06
5.42312536166061e-06
1.97276271159721e-05
1.273092910946763e-05
2.689150781265532e-05
1.333246102452816e-06
4.326166013092701e-06
1.814636380943008e-06
7.150249164541516e-06
5.281741103614785e-06
1.985476458661151e-05
1.342197924165095e-05
0.0001
0.0001
0.0001
0.0001
0.0001
0.0001
0.0001
0.0001
0.0001
0.0001
0.0001
0.0001
7.175485836375081e-06
1.042274605357476e-05
6.021432726608693e-06
2.445497426535267e-05
5.259254436316057e-05
7.312575930214186e-06
2.456631197003084e-06
2.630878096893259e-06
4.487417113681944e-06
1.497312724188882e-05
5.036054461470432e-06
1.715036919686453e-05
2.472448086887157e-05
4.123756069825976e-05
1.727231174715999e-06
3.361823346934963e-06
1.094726833377213e-05
6.568178153066191e-06
2.873910876631769e-06
4.027178404729434e-06
3.66502607202316e-06
2.447326499135119e-06
7.517995734282441e-06
1.710802729987416e-05
4.35974232283205e-05
6.734201004916069e-06
7.716367622829083e-06
9.44329934289951e-07
4.427360077712231e-06
6.533646476933495e-06
7.019943550468224e-06
7.053708914021437e-06
0.0001
0.0001
0.0001
0.0001
0.0001
0.0001
0.0001
0.0001
0.0001
0.0001
0.0001
0.0001
7.262831042144755e-06
9.125381925940719e-06
7.323558252376813e-05
1.669326889666822e-05
9.285922619028456e-06
5.914573555762292e-06
2.883295258338353e-06
4.499391336961457e-06
4.522942843759696e-06
1.062065461313493e-05
4.600403099593731e-06
9.420993755126927e-06
2.060291917623225e-05
4.635360154365923e-05
3.22093310627767e-06
1.910186852141882e-06
9.039304143116124e-06
1.434666395201079e-05
1.988922257802391e-06
5.014962928151043e-06
3.043054049037606e-06
6.255089941939979e-06
3.895806215181989e-06
1.088838246751286e-05
8.636538011302445e-06
3.835210071460577e-06
8.964321845628935e-06
1.542775500315891e-06
4.130801781088888e-06
6.083593431236444e-06
1.184950359528928e-05
1.308887669790607e-05
0.0001
0.0001
0.0001
0.0001
0.0001
0.0001
0.0001
0.0001
0.0001
0.0001
0.0001
0.0001
1.425338501119604e-05
7.080901193233031e-06
9.328825291849153e-05
3.837309792115212e-06
8.649135067752338e-06
5.664952252414479e-06
4.168735807204236e-06
5.679042692858635e-06
3.316209286490071e-05
8.279237500239083e-06
9.871451043520244e-06
3.873799051893789e-06
1.087612366296152e-05
5.104048811083953e-05
4.737761972682181e-06
4.274644235809054e-06
6.40570157868866e-06
9.605053870785457e-06
1.267886654439998e-05
1.598678001832022e-06
7.524382478039652e-06
3.289954495960812e-05
6.489249284027079e-06
7.849393602576964e-06
1.841779587806403e-05
1.471246854477106e-05
7.728718675354126e-06
2.54387795773212e-06
3.306316959396741e-06
4.009579512751176e-06
3.076831397225592e-06
2.934005125329166e-05
0.0001
0.0001
0.0001
0.0001
0.0001
0.0001
0.0001
0.0001
0.0001
0.0001
0.0001
0.0001
4.780556774540294e-06
6.726848756203164e-06
9.359514470263764e-05
6.108972916056637e-06
8.202672938688948e-06
6.797437363022936e-06
5.726282363585242e-06
4.56905513522613e-06
2.203865200031254e-05
5.68521443099449e-06
1.244580266392491e-05
1.727028913017522e-07
1.479443483156655e-05
2.46862981003708e-05
4.48117698282432e-06
3.06080559297756e-06
8.157694459075608e-06
6.662027369025007e-06
3.794541581950826e-06
5.753618539158928e-06
1.907214683510767e-05
3.49410939257011e-05
8.862526359751484e-06
3.645790687998634e-06
4.182627837341283e-05
1.358835671044448e-05
5.234847453240883e-06
3.136045541005721e-06
2.947261134269837e-06
4.191907101715121e-06
2.64361777247602e-05
1.073949779391798e-05
0.0001
0.0001
0.0001
0.0001
0.0001
0.0001
0.0001
0.0001
0.0001
0.0001
0.0001
0.0001
5.005187013349674e-06
4.971594940872299e-06
1.728820653081061e-05
3.759831904423756e-06
4.208108287753238e-06
8.442815437228628e-06
5.764217317391068e-06
3.48068726750042e-06
7.214830214842312e-06
4.142734770860081e-06
1.096621220242456e-05
3.467650628228746e-07
3.125525248422559e-06
5.252584996490015e-06
5.019988549852935e-06
3.087072544008871e-06
1.452403592794993e-05
9.844024003749928e-06
5.270531742219809e-06
5.900326786216359e-06
5.039925820245837e-05
2.186117320465069e-05
3.124985465278231e-06
6.802249049089981e-06
2.1463118958112e-05
1.683321989946544e-05
2.71768443894783e-06
3.650715007087884e-06
3.024622521146748e-06
4.515375577255447e-06
3.669288179245419e-05
6.076597689534978e-06
0.0001
0.0001
0.0001
0.0001
0.0001
0.0001
0.0001
0.0001
0.0001
0.0001
0.0001
0.0001
7.612961871678141e-06
4.266520166093786e-06
2.35777577689518e-06
5.294650485639931e-06
3.037676571755965e-06
6.790137167068367e-06
4.696757877270806e-06
3.146835225173836e-06
1.918005698248305e-05
3.898676588859533e-06
8.080719435509339e-06
7.173833625765431e-07
4.521202932095054e-06
3.443209563944873e-06
5.1376517351883e-06
2.790228986557547e-06
1.188903299262476e-05
8.30129199943222e-06
7.896084431542057e-06
4.990465706491404e-06
4.763025460886913e-05
1.296651789755228e-05
3.493649137680882e-06
1.56876775794482e-05
5.592196908629904e-06
2.038795437741965e-05
1.825171123910243e-06
3.908666796659367e-06
3.262955183667831e-06
2.871191021350717e-06
1.833266486638729e-05
4.939185206305102e-06
0.0001
0.0001
0.0001
0.0001
0.0001
0.0001
0.0001
0.0001
0.0001
0.0001
0.0001
0.0001
4.948888377893711e-06
4.572456296617892e-06
1.355653166965943e-06
5.620964844108856e-06
3.197142835313537e-06
3.018618615756476e-06
3.65695204946702e-06
4.925391129026752e-06
2.164537603515981e-05
2.524933044786126e-06
4.392141992682233e-06
1.763965165487974e-06
5.367453676919911e-06
8.263775074347855e-06
5.019908700753419e-06
1.557854235118802e-06
7.455905796142741e-06
1.429674736935386e-05
2.043649185727914e-05
5.821246855097456e-06
8.128599330408148e-06
6.65292729380768e-06
1.427494498761426e-05
2.287709614342015e-05
4.788816687955943e-06
1.615398916105177e-05
9.419147441778846e-06
4.256524600375946e-06
5.206846657645268e-06
1.289701254171843e-05
4.782039895420771e-06
2.584155558626775e-06
0.0001
0.0001
0.0001
0.0001
0.0001
0.0001
0.0001
0.0001
0.0001
0.0001
0.0001
0.0001
7.047384490053059e-06
4.663989583118225e-06
2.616635471288985e-06
4.647228239555097e-06
2.78697471918739e-06
3.153288254159673e-06
1.085919540158859e-05
1.092378044552367e-05
7.290914366684141e-06
3.245579238070978e-06
8.783398250498074e-06
2.630036458412372e-06
3.855045730086584e-06
1.309706464205216e-05
1.372035996153341e-05
6.288884547178884e-06
2.658088231598092e-06
1.174015665702878e-05
3.782595863416531e-05
1.134091867162101e-05
4.402683766606404e-06
2.571189256858621e-06
1.906409373148379e-05
1.980343078274955e-05
5.734994336813053e-06
5.716910282002984e-06
5.658530817686838e-05
4.224233880249715e-06
4.301053288216315e-06
4.736648629118508e-05
6.31212276305649e-06
1.661803841974435e-05
0.0001
0.0001
0.0001
0.0001
0.0001
0.0001
0.0001
0.0001
0.0001
0.0001
0.0001
0.0001
8.926708724279115e-06
4.092923086001539e-06
3.548665569377532e-06
6.72450045584714e-06
1.437880980820184e-06
3.937617701721153e-06
4.253711074638699e-05
1.961914518854008e-05
5.186508063733383e-06
3.215442319656958e-06
1.291063500994376e-05
1.638150524262548e-06
3.783701385577963e-06
1.843903797156527e-05
2.027879914557318e-06
4.19361018050495e-06
5.034686983518953e-06
5.291226088892688e-06
1.567383466262163e-05
2.212754050285446e-05
1.136450365914001e-05
2.693147929830241e-06
6.558391836337135e-06
4.726372389809533e-06
6.408741538194741e-06
8.993044946852164e-06
6.044253527681201e-05
8.166591355075957e-06
4.439144786445245e-06
6.475640844578697e-05
1.195101510938398e-05
2.61680226082356e-05
0.0001
0.0001
0.0001
0.0001
0.0001
0.0001
0.0001
0.0001
0.0001
0.0001
0.0001
0.0001
7.670175903229024e-06
4.98819892624484e-06
3.918224795524256e-06
2.561040953633115e-05
6.599688260882601e-06
3.281627016425295e-06
6.01515553587129e-05
2.425213765315333e-05
4.170153585328579e-06
7.563761112443113e-06
7.510092475811787e-06
1.134844866907843e-06
2.468147185080439e-06
3.012179345320464e-05
2.683421021661744e-06
8.627329186065962e-07
1.417413747908525e-05
4.568965990106981e-06
6.201397012914642e-07
1.875833570389738e-05
2.188274515254656e-05
1.336876958953561e-05
3.959212641578182e-06
3.279763899625439e-06
6.490574717393059e-06
4.860859771161216e-06
1.837009798282391e-05
3.119251653477372e-05
3.670007601176491e-06
4.169770976559046e-05
3.643828012642369e-06
3.139669853665489e-05
0.0001
0.0001
0.0001
0.0001
0.0001
0.0001
0.0001
0.0001
0.0001
0.0001
0.0001
0.0001
5.388962547034223e-06
6.499387142450528e-06
3.615923391275323e-06
3.102382245855999e-05
2.728066852010958e-05
2.927709061977612e-06
6.146997190522032e-05
2.052168883975995e-05
2.79662475135173e-06
1.622478932549263e-05
6.592567693179306e-06
1.39305716974078e-06
2.604870530318004e-06
3.922172991336259e-05
7.813382305896545e-06
1.15661852369148e-06
1.61141781355301e-05
3.912318639171128e-06
8.14242591394095e-07
2.047860843473325e-05
4.568715667464697e-06
1.587591555866134e-05
4.579514518328e-06
3.586875450850267e-06
5.580777318712467e-06
3.382203106293716e-06
4.384378165530125e-06
2.577132381270689e-05
2.771744686999049e-06
2.169407947099337e-05
5.173703130094477e-06
3.223147839610423e-05
0.0001
0.0001
0.0001
0.0001
0.0001
0.0001
0.0001
0.0001
0.0001
0.0001
0.0001
0.0001
3.191905748374825e-06
6.023794672309866e-06
4.247982088093688e-06
2.737086980648676e-05
3.378859869727669e-05
4.809714328928308e-06
5.536170306480269e-05
1.300862835735151e-05
2.008480361938138e-06
1.373982858959892e-05
5.410891069606422e-06
1.408565316386853e-06
2.853948094447059e-06
4.235695622851936e-05
2.973902600070067e-05
2.063687038405927e-06
1.694127947731467e-05
2.713244343334524e-06
4.022969697701224e-06
8.444417165618102e-06
4.16524965990542e-06
3.26140914898392e-06
3.108989181096579e-06
5.24326323845215e-06
6.425246938319597e-06
3.12115033595392e-06
4.914000020233053e-06
1.17934285084957e-05
2.230404355009621e-06
8.297811457257825e-06
4.402548428497649e-06
2.561468880735746e-05
0.0001
0.0001
0.0001
0.0001
0.0001
0.0001
0.0001
0.0001
0.0001
0.0001
0.0001
0.0001
5.002265424194302e-06
1.846981568012346e-05
3.300830410708862e-06
9.33420609910372e-06
1.950083197716823e-05
4.107201243092053e-05
3.970083921688848e-05
4.740887127563022e-06
2.51797782984118e-06
3.011547954294377e-05
4.475309654059831e-05
1.008374792871517e-06
2.756227382937509e-06
3.287224451429396e-05
2.095206138394118e-05
4.163201275978857e-06
2.467978881132156e-05
4.509847828005035e-06
6.161803144833432e-06
5.351613287916805e-06
6.936375516191038e-06
8.927510800865023e-06
8.38486729134777e-06
2.11597094718291e-05
5.940572540165083e-06
4.104225048981043e-06
5.734492563186928e-06
3.403374729138185e-06
6.037436087641501e-06
4.158424042413534e-06
6.54673282708026e-06
2.409753161440294e-05
0.0001
0.0001
0.0001
0.0001
0.0001
0.0001
0.0001
0.0001
0.0001
0.0001
0.0001
0.0001
6.39004682021015e-06
4.826077569427178e-05
4.786291333080468e-06
3.0822604039656e-06
7.467962456247749e-06
4.892372896327726e-05
2.298265205319654e-05
3.684326712683643e-06
3.814972033290697e-06
2.601570572110072e-05
4.752820381397061e-05
1.152459832882111e-06
4.416983507254142e-06
1.993391873652217e-05
1.25851851718477e-05
1.407600395106689e-05
8.133807777952082e-06
2.692251688718861e-06
2.910617828933198e-06
3.522682282166783e-05
4.659731470668816e-06
5.083660463611662e-06
7.386345623238211e-06
3.238073231635946e-05
1.014254474820745e-05
7.369039272636236e-06
1.59803645494059e-05
2.361203563329001e-06
3.133398135023431e-06
2.516306094987285e-06
1.066466611635753e-05
1.29899467497119e-05
0.0001
0.0001
0.0001
0.0001
0.0001
0.0001
0.0001
0.0001
0.0001
0.0001
0.0001
0.0001
7.558260567029134e-06
7.427482686086972e-05
4.109298598315097e-06
3.530794024258825e-06
1.530672219024596e-06
3.32814414707261e-05
4.970267151862998e-06
2.929183278095783e-06
6.383905540949528e-06
1.27772255092862e-05
7.963774074379123e-05
2.383759531707315e-06
3.431870112367197e-06
9.729489555219642e-06
1.8128287671165e-05
3.112391334338129e-05
8.187523999963926e-06
1.09779228396737e-05
1.025296213819103e-06
2.581002298680703e-05
5.330998154950868e-06
3.261209115070555e-06
2.090948532003422e-05
2.293995852293466e-05
1.344164074558133e-05
5.324735483467528e-06
1.094140890656265e-05
7.463991051831513e-06
3.543731357251761e-06
1.781697056821191e-05
6.787305958022145e-06
6.559340943135198e-06
0.0001
0.0001
0.0001
0.0001
0.0001
0.0001
0.0001
0.0001
0.0001
0.0001
0.0001
0.0001
6.805343175505164e-05
4.381895560296606e-05
6.2252973614307e-06
9.035130531201981e-06
4.214895827803026e-06
1.373461244949042e-05
6.303160691054064e-06
3.79723325353683e-06
1.357640894835962e-05
3.766164242389911e-06
6.106656249290226e-05
5.029843730985221e-06
6.103203390929769e-06
5.419100919332988e-06
2.528074563453415e-06
4.89318270871338e-06
6.601274815546827e-06
1.957004541185429e-05
3.001417129425174e-06
1.88943091007089e-06
3.52580197146544e-06
5.709238057681586e-06
1.5791950750746e-05
2.812968397320457e-05
1.426821106904793e-05
5.524790944531426e-06
1.585475152308442e-05
1.260852144993315e-05
5.334758189746919e-06
6.477362325239189e-06
3.342401950873027e-05
4.575918454738554e-05
0.0001
0.0001
0.0001
0.0001
0.0001
0.0001
0.0001
0.0001
0.0001
0.0001
0.0001
0.0001
9.66121735937703e-05
2.548616778275016e-05
1.419206602095492e-05
6.096380802706173e-06
2.497503849821026e-06
3.382226311657811e-06
2.205839296689292e-06
2.222396079501635e-05
1.455096955580817e-05
6.16720010343602e-06
2.431205692934623e-05
8.788375701508943e-06
5.868721379089512e-06
9.736780393863239e-06
2.695968040843241e-06
2.318945086414077e-06
6.640089764605061e-06
1.381382300763679e-05
6.356625924626523e-06
3.972044548924282e-06
7.547284253531968e-06
8.984754859868127e-06
1.223011302123467e-05
1.721590570790897e-05
5.737447607233189e-06
4.67056829394423e-06
6.227293565197282e-06
1.396118231983245e-05
7.070494652420742e-06
1.130806505347347e-05
7.444342763795449e-05
0.0001034383047219678
0.0001
0.0001
0.0001
0.0001
0.0001
0.0001
0.0001
0.0001
0.0001
0.0001
0.0001
0.0001
9.782698054409702e-05
1.288581986249956e-05
1.20927451552444e-05
3.625506631942531e-06
6.71807456584764e-06
2.931121442419308e-06
2.357230678976338e-05
0.0001006608079832321
1.347106189304435e-05
4.455589433682432e-06
1.380145115769809e-05
6.173561162975379e-06
3.628516134846105e-06
4.129794562818069e-06
7.249519705549769e-06
3.681059244721522e-06
6.807333514011921e-06
9.292258429372232e-06
6.203832471098507e-06
7.976609128544022e-05
7.248596123367749e-05
9.238304727573201e-06
2.111100503749252e-05
1.989604596728523e-05
2.084416210713227e-05
5.081127108296924e-06
1.639941526099406e-06
7.146552132884606e-06
1.037305486447073e-05
4.110921192822786e-05
0.0001031542733042661
0.0001236410473668376
0.0001
0.0001
0.0001
0.0001
0.0001
0.0001
0.0001
0.0001
0.0001
0.0001
0.0001
0.0001
2.861179635564118e-05
5.289256528182338e-06
4.791722586130085e-06
8.346335548281427e-06
1.442918233442218e-05
5.308897157359829e-06
0.000180493625160449
2.310523650675521e-05
1.190412389129712e-05
5.055352215842164e-06
9.494293050525887e-06
8.693268826119845e-06
9.517443248157634e-06
5.320656912583002e-06
1.038425094240574e-05
8.406561854271455e-06
7.592450547861012e-06
1.360262496242475e-06
5.100417431483254e-05
0.000139074704510628
7.219153336070769e-05
1.572462161021194e-05
1.131246072110094e-05
2.472192016738932e-05
2.25115477134885e-05
2.121610989641218e-06
2.469079921953423e-06
4.554592206428679e-06
7.667337413396939e-06
8.717151148490101e-05
9.357691109947782e-05
4.047725156826567e-05
0.0001
0.0001
0.0001
0.0001
0.0001
0.0001
0.0001
0.0001
0.0001
0.0001
0.0001
0.0001
8.196368614043571e-06
1.557560805337407e-06
1.670410698425784e-06
5.869129819294886e-06
0.0001090827338945852
9.967183635190214e-06
0.000183010168547453
8.832116900480535e-06
1.378795047645727e-05
4.496823015531308e-06
6.385330655643046e-06
9.050978395038841e-06
9.243753084207952e-06
2.936381726922825e-06
1.935116616413401e-05
5.342346074535137e-06
3.576315940835937e-06
6.379213348998107e-07
7.808645959563524e-05
9.911135879455759e-05
5.930470018668511e-05
2.160076499201145e-05
1.129515156377126e-05
1.020113894903148e-05
5.083094498624388e-06
1.550296151451616e-06
1.268265578311682e-06
1.657087106504811e-06
7.618707382327475e-06
2.976207014290356e-05
1.920870879438339e-05
1.367716578702543e-05
0.0001
0.0001
0.0001
0.0001
0.0001
0.0001
0.0001
0.0001
0.0001
0.0001
0.0001
0.0001
1.059956039044468e-06
5.166532789516366e-07
5.836327506267646e-07
3.855399379228481e-06
8.555753293352981e-05