/*--------------------------------*- C++ -*----------------------------------*\
| =========                 |                                                 |
| \\      /  F ield         | OpenFOAM: The Open Source CFD Toolbox           |
|  \\    /   O peration     | Version:  v1812                                 |
|   \\  /    A nd           | Web:      www.OpenFOAM.com                      |
|    \\/     M anipulation  |                                                 |
\*---------------------------------------------------------------------------*/
FoamFile
{
    version     2.0;
    format      ascii;
    class       volScalarField;
    location    "0";
    object      p;
}
// * * * * * * * * * * * * * * * * * * * * * * * * * * * * * * * * * * * * * //

dimensions      [0 2 -2 0 0 0 0];


internalField   nonuniform List<scalar> 
1892
(
0.001176935872581235
0.003097636079075852
-0.001474247185251257
-0.0005661303668370592
0.004240970130773862
0.000365510317458144
0.01053398728636521
0.006293172511454802
-0.002800053239699696
-0.001377978821288473
0.007942112556529216
0.01414790782861012
0.004857093733964048
-0.001288556407522095
0.00326064369002836
0.0006198007084378945
0.005700911040254274
0.01454701698662774
0.003762232553594079
-0.003029804586557711
0.005729362095721217
0.01110476888528173
0.009038144891496205
-0.001050027579818432
0.01461710104327281
0.01731133965741939
0.0004283640559582185
0.01249679171134478
0.01082825351347288
0.009175882456757505
-0.001267763401563397
0.006895541513900904
0
0
0
0
0
0
0
0
0
0
0
0
0.001161962022876121
0.003125208977583554
-0.001422631286299976
-0.00059548045809819
0.004030167276792079
0.0003560917655142399
0.0105505275336568
0.006278936140055446
-0.002806153033257834
-0.001329399652904355
0.007954320616724872
0.01422117755253263
0.004829637755593365
-0.001346280890399947
0.003279220485177026
0.000637101711860719
0.005711906868351268
0.014652430786219
0.003855211557807672
-0.003028708945345257
0.005714588692668397
0.01114042822536359
0.009047607923509443
-0.001031174867237965
0.01466481531499083
0.01720750197031062
0.0003649402562134438
0.01252673863033433
0.01082566514218892
0.00919587193963658
-0.001288068935692874
0.006883169053538018
0
0
0
0
0
0
0
0
0
0
0
0
0.001086301068222925
0.00317565934162485
-0.001641850096765901
-0.0007114352136002961
0.004681872193212598
0.0003521614865119585
0.01060480622489313
0.006282794312629817
-0.002790736155913233
-0.001392997115430887
0.007895500668546909
0.0140271291878896
0.00482073577676794
-0.001279361721288782
0.003213855973544491
0.0006719080470588632
0.005584779979391248
0.01516467196687141
0.003637196595412178
-0.003043747167010531
0.005733788772065219
0.01134499102701897
0.008750744010836928
-0.0009090280163807937
0.01483115126394126
0.01782710766814184
0.0002100175946416353
0.01247639009247771
0.01084732280194455
0.009355944271054991
-0.001410767229806256
0.006827543004483285
0
0
0
0
0
0
0
0
0
0
0
0
0.0005916062490126183
0.003697543499233202
-0.002418351530736587
-0.001808945921680009
0.006609790501964798
5.862934219893654e-05
0.01111144890385488
0.006244723350518303
-0.0029471359302336
-0.001578289968357004
0.007775905934696358
0.01333267800053594
0.003756456428840691
-0.001291487456234816
0.002789510510513232
0.0006525689433934948
0.004826977265806664
0.0181393025705063
0.003024616379159311
-0.002999269293268608
0.005725295100943137
0.01285293654596069
0.006794287273750364
-0.0002722237011697402
0.01525351608935621
0.02028581078017218
-0.001492398211239764
0.01231462584542942
0.01088289210010631
0.01007333584066282
-0.002096380822916694
0.006805156619939532
0
0
0
0
0
0
0
0
0
0
0
0
0.0005730074022989567
0.003586879641153751
-0.002393361266376391
-0.001888293227100197
0.006583203863786111
1.281555580067928e-05
0.01118572636786238
0.006226195737960271
-0.002993044728708305
-0.001623785085796336
0.007791915044285838
0.01327568383699472
0.003494117962186756
-0.001325196847912713
0.002724738978356448
0.0006177815818648623
0.004757781691865181
0.01804319479141077
0.003032815575574535
-0.002973068232029625
0.005706209597366872
0.01291481820725409
0.006682443832621394
-0.0003009564857152615
0.01510674000242877
0.02031582704686778
-0.001540641693450843
0.0123043247901796
0.01090173310944079
0.00997673159343274
-0.002087633141327603
0.006900471918529563
0
0
0
0
0
0
0
0
0
0
0
0
0.0008586736990187877
0.0007733981417115492
-0.0008673268233713892
-0.002134122770833536
0.003293549711623323
-0.0006415837625005666
0.01199992960074771
0.005865660614784435
-0.003704101217515327
-0.002422197992710952
0.008241860196075711
0.01294818304949684
-0.0004839422986167074
-0.001797486892639109
0.001988489262189241
-0.0002703344182470633
0.004258240250496469
0.01271061723524228
0.004038746416737377
-0.002690893472692378
0.005004200098857722
0.01201493935934695
0.007154598736858125
-0.001875017141179847
0.01164452221962277
0.01729671798537242
-0.0006035823820090458
0.01229743504168885
0.01112545982376566
0.007052134203330904
-0.0009238988217484725
0.008119087268647655
0
0
0
0
0
0
0
0
0
0
0
0
0.001326365253456978
-0.001232657862415274
-0.001112094066944868
-0.001413341576439384
0.002852005145356725
-0.002231598375414269
0.01270527967526918
0.005715776894508831
-0.004449841743391212
-0.004027420629017416
0.008703829558521236
0.01223298579546705
-0.004130718960670623
0.0006364459657006427
0.00145485271076784
-0.001186587693123668
0.003893641008148486
0.01039530150874903
0.004069993652294464
-0.004489528157779343
0.002584688568382488
0.01103754057717976
0.007185772475843884
-0.003401143148583281
0.007507180158396228
0.01516249483521103
-0.002140833001373589
0.01255367476520447
0.01162155103194673
0.004651840176174074
7.669097597121301e-05
0.007398526058155389
0
0
0
0
0
0
0
0
0
0
0
0
0.0006822820718815429
-0.002023860245019545
-0.001400709882224854
-0.0009662628733457697
0.0006278021097256446
-0.003923317218198158
0.01270673184078339
0.006600826530101116
-0.004457314189029528
-0.00526397485447358
0.009236089451053779
0.01127879045603832
-0.00830977133245769
0.001688837666163533
-0.0002279922494934634
-0.00131038596327413
0.004326895479275421
0.01044662429019226
0.003300804882947698
-0.008610730526977833
0.0003298975149163314
0.007806838544289946
0.007062105731062881
-0.002622041451960854
0.003528785882207664
0.01240495616613268
-0.0006198265558588371
0.01255247681573185
0.01286328198399575
0.003494545728926149
0.0003927621735920358
0.005269321155894581
0
0
0
0
0
0
0
0
0
0
0
0
-0.0009027661715611223
-0.003631126917250446
-0.00155079886498224
-0.001571010021318398
-0.001573695025863715
-0.003758149288030805
0.01211362503230475
0.008427819104847838
-0.004254728983095989
-0.006254114601299346
0.01175701568612457
0.009047321007561646
-0.006990441588174149
-0.0028102274914628
-0.005695342801200052
-0.0003648733866930799
0.002920658825811138
0.01283379395747468
0.004769262550895241
-0.01237876823702969
-0.0004537354329389385
0.00627950032620856
0.004350522191395742
0.001019364305210246
-0.002502523275390005
0.007803881538606676
0.0002992023940311279
0.01095728955525044
0.01526721253298557
0.007218279053231348
-0.0003114874080695913
0.003101533025153222
0
0
0
0
0
0
0
0
0
0
0
0
0.001333220678456447
-0.004816294421357204
-0.001831118665306617
-0.002631454758269005
-0.004008488822182976
-0.003949420966047819
0.01186484515205895
0.008800807514551388
-0.003899486833978367
-0.007148987753879086
0.01292197843863973
0.01131130655321142
0.00435377249978584
0.001177369632101712
-0.008315203197616739
0.0009500805202479023
0.002768703828514479
0.007795394742225681
0.005359600537650683
-0.0108244373953243
-0.002578151337964881
0.0089128442304329
0.003217633646175601
0.005559077259201623
-0.008661379381845059
0.002867677151243719
0.001451007599208377
0.00923078835860505
0.0140180037381884
0.01302681824617435
0.000849638947372167
0.003298668915155028
0
0
0
0
0
0
0
0
0
0
0
0
0.002258058436146844
-0.004462305679044644
-0.00202552891513492
-0.003420616109777271
-0.006247410912185935
-0.003915210642499883
0.01169028034747342
0.008852562810915145
-0.003883887595651361
-0.007905983084147855
0.01181431334067126
0.01233353970910178
0.008804387163989002
0.003386397211029618
-0.007004802571751749
4.646921372129104e-05
0.002953089279152234
0.0034906481742103
0.0008553700914415248
-0.008618977395152785
-0.007026249513526019
0.007837619435397123
0.003855550459498064
0.006754096764117923
-0.01107894408496768
-0.0005352384340233233
0.002139828579206547
0.008338904759392802
0.013382146148818
0.01656630691721566
0.002988959920323323
0.003083685579649497
0
0
0
0
0
0
0
0
0
0
0
0
0.003139758760348243
-0.002448127970261726
-0.002789345521128315
-0.0046554719330878
-0.01083702460006385
-0.005936596217164746
0.01012023694540421
0.008377813164615699
-0.003800616346547422
-0.00764662282646776
0.009714446688699049
0.01157831815034171
0.01111053510743237
0.004091477902105123
-0.005074882664972123
-0.0006744849968570558
0.001467209698497134
-0.0005272154305932165
-0.004395636012834635
-0.007067805172757006
-0.01596647233454512
0.001757161921068108
0.005472654309832597
0.004189576825035336
-0.0136699519885076
-0.001869031228809907
0.002570358773297395
0.007176151067327115
0.01191435430711757
0.01765889264366875
0.005396187673483427
0.003376717594039375
0
0
0
0
0
0
0
0
0
0
0
0
0.003591167081295984
-0.001339087503152198
-0.004038869618822159
-0.005576607378826456
-0.01208703342156981
-0.009661553019718402
0.006796960907365485
0.00819226640072558
-0.002767066874598754
-0.00588568431788774
0.007550925370171678
0.009786570781875611
0.01030378057314012
0.003000190234432269
-0.00254999969809864
0.002379786928857194
-0.0006686453371452216
0.001496932433467078
-0.002321919163755977
-0.006561854933651877
-0.02037922027980186
-0.007396003953176375
0.006382740011207535
-0.0004456071968124907
-0.01231863888551965
0.001215964451416801
0.002638871140411048
0.006556644122582563
0.01034717581881645
0.01176199959393703
0.004850403692877047
0.003355298160807535
0
0
0
0
0
0
0
0
0
0
0
0
0.002822978168041999
-0.00103060858924466
-0.004708248117861868
-0.006169940337977496
-0.008877154765129486
-0.01282400318723488
0.002816902812224154
0.00667691152270288
-0.0005248666737169166
-0.003124194262483191
0.005731624577573538
0.007940187035775537
0.008562029815650867
0.003192993425490543
0.0001314745503876563
0.004800930246796264
-0.000641718068872913
0.005744267652861394
0.001238326936896555
-0.0002684128848361285
-0.01680257567446777
-0.01606619863542819
0.00487751508347622
-0.0005222947715083013
-0.008591404824155973
0.0004620841762764113
0.002271707358822154
0.006072484206821288
0.008678623049766325
0.005274826292346028
0.004524379823275434
0.001643889574960483
0
0
0
0
0
0
0
0
0
0
0
0
0.002028410982730744
0.0001946522928120486
-0.004610628683664993
-0.005588522312940996
-0.0046745035040176
-0.01445885254246415
-0.000730296580720624
0.004516885233716196
0.001668525992016092
-0.0005434179254799173
0.00417045858192656
0.006565205366261769
0.006882503262917431
0.003516846643294963
0.001902708478033986
0.005540120069726222
0.0006732662007302391
0.006815532412321263
0.001210864928929325
0.00236921674532157
-0.008516378039175328
-0.01898282368687847
0.0001195254282525053
0.0009362917291151208
-0.005355678010528751
-0.001888488955787621
0.00194434197519736
0.005685902008254493
0.006998132964029371
0.004288176456775934
0.005118545563338924
0.0004236416570661822
0
0
0
0
0
0
0
0
0
0
0
0
0.002798806042009311
0.002457208410949051
-0.003991694198206049
-0.003259165680413092
-0.0009757725582140638
-0.01387027070840501
-0.003230831069723457
0.002856844133957001
0.002385243925082233
0.0006794391085058441
0.003531905634132953
0.00552241916418272
0.005646619335265285
0.003603357464878681
0.00287775741708125
0.005148330813073935
0.001936042590738322
0.00611380044034891
0.001906271539584736
0.001959177517088238
-0.004093959513632416
-0.0105464781961662
-0.001376223875225066
0.001393594199303847
-0.00307009052452563
-0.002050159570812737
0.001933708303817095
0.00543188637229456
0.005914436520274704
0.004984678298198495
0.005786241404700434
0.002098158394305869
0
0
0
0
0
0
0
0
0
0
0
0
0.003766606820689864
0.003822687717157871
-0.003954563167777856
-0.001596647249801521
0.0008615781964043913
-0.01263411672558341
-0.004246491076432498
0.002171997976855257
0.002518740299048367
0.0008786690920778453
0.003621919757356375
0.004952149613893849
0.004875556744719267
0.003188293713042322
0.003253351329568733
0.004836302926042216
0.002392607316342282
0.005593837603627669
0.002729604580895408
0.001021330939889147
-0.002895406013558663
-0.005409044531823781
-0.0002182542929505123
0.0008783824483388318
-0.002795572264601314
-0.001643078250094228
0.0019465584727934
0.00535220418578926
0.005712613326837249
0.005595453329836641
0.006047138821513017
0.003033461934867131
0
0
0
0
0
0
0
0
0
0
0
0
0.004848316198321215
0.005505097894152676
-0.005793816889265323
-0.0003686347500435451
0.003276795502862562
-0.01058736284782046
-0.005043354228047327
0.001562942430912291
0.002417363708784957
0.0008700692324741751
0.00365908672493871
0.004214539865629485
0.003628423560491634
0.002447478091418866
0.003675454240616818
0.004414183649262977
0.002636966954521967
0.005005536915168867
0.003608059807192249
0.0005526662112496105
-0.002176216594471056
-0.002229913344854602
0.001932612423990027
-1.15110436373623e-06
-0.002524071282209263
-0.001119033661910828
0.001897996384828224
0.005350153149007834
0.00619304139672
0.005842607217874564
0.006791665729102544
0.004071894751361436
0
0
0
0
0
0
0
0
0
0
0
0
0.004616921175286714
0.00703974475058005
-0.01152169665085932
0.0001000722475529375
0.006296183644621716
-0.009429601562521673
-0.004863631638993233
0.001560305287805591
0.002049030109427158
0.0008462262648772857
0.003007827723396696
0.003632649780954474
0.002970881340826723
0.001930548841776864
0.003972676100747952
0.004076399776491664
0.0026988941780141
0.004755217800297999
0.003543295909662673
0.001361606688386408
-0.00285879826784448
-0.002017209346010287
0.002249864029405347
-0.0001149843057082764
-0.00144094040355729
-0.0009913588835538665
0.001870826929289372
0.005486844404688046
0.006724500328973359
0.005890268602124652
0.006978624548988882
0.003660513819594949
0
0
0
0
0
0
0
0
0
0
0
0
0.004423920881266171
0.008093579609788038
-0.01477415020588944
0.0008727736783390356
0.008507859919911655
-0.007786416537207146
-0.003879060893876562
0.001577687639665978
0.001013622039258824
0.0009657714067560432
0.002065352645501811
0.00316434977075966
0.002563636565798199
0.001723010504945806
0.00404187047500066
0.004012453242863246
0.002565164886794817
0.004755528172125338
0.003290133392028833
0.002627759296507069
-0.004586885633116077
-0.00290889554445013
0.001564354037273314
0.0002721814445106752
-0.0009163065977621439
-0.001086457278032584
0.001905237120937557
0.005709001284139452
0.006926539955345612
0.00616776555364936
0.006106529458623239
0.002905757549681502
0
0
0
0
0
0
0
0
0
0
0
0
0.00524588921954687
0.00813612234959262
-0.01009533927799638
0.00154366205002423
0.008189838389566526
-0.004719648047195777
-0.002464986068928789
0.001138163148567424
0.0006244985423841526
0.001137527444484816
0.001354038835957722
0.002925483202030508
0.002118781590953593
0.002102996001903697
0.004039936429997226
0.004221048738002393
0.002494074358830794
0.004717318530641664
0.003056712886711567
0.003961301301433087
-0.007215674484809777
-0.003448091601481617
0.000858574782502723
0.0003040732771074781
-0.0002302224257141644
-0.0009549354877902046
0.002008579929611534
0.005938013010182204
0.007025156446653151
0.006006536482542297
0.004861216644675898
0.003808947445934494
0
0
0
0
0
0
0
0
0
0
0
0
0.005196611783772941
0.007276803537850898
-0.003363249937512722
0.001621893226903546
0.005693593264298364
-0.00131838027970106
-0.001038166649991233
0.000813375754864718
0.0005368540137590343
0.001117802186747187
0.0009044104160436123
0.002857057396348263
0.001741360781883267
0.002491653601928716
0.004056906464739286
0.004301987924237178
0.002838057303725723
0.004518459677405585
0.002553885459145235
0.004793612753846525
-0.009165785191115456
-0.003009880144089116
0.0002502393880187071
-0.0001945214937201234
0.0009976217625626423
-0.0009881955927333057
0.002150084648424425
0.006147361203631988
0.007222834162439486
0.005575907533212007
0.003724620838681595
0.004668216198864118
0
0
0
0
0
0
0
0
0
0
0
0
0.004849916843611454
0.006684542048225091
-0.0008362261938142351
0.001245829333796348
0.004271699566008305
-8.988513274125956e-05
-0.0002960717772094399
0.000689012336796254
0.0003413481290731637
0.0009929582315672488
0.0007331810837512765
0.002811207802444124
0.00157921284984721
0.002634900734866108
0.004021898323417273
0.004183624529907085
0.003108918360494797
0.004376740793291228
0.002178290765597544
0.004682643396914772
-0.009379310581254047
-0.002307841709186598
-0.0002485289070245041
-0.0005757601452164917
0.001896220902244055
-0.001152762205030513
0.00216845620541147
0.006259049853561074
0.007398222619545224
0.005064934724052738
0.003252815818905256
0.004706871019388143
0
0
0
0
0
0
0
0
0
0
0
0
0.003976534707926332
0.005994373357456267
0.0008030299607562631
0.0005238123140692593
0.002917001705681138
0.0008189878786153017
0.0003706641468139238
0.0005039273074462238
0.0001372308536107395
0.0007658830913192798
0.0005020385206735234
0.002601872343883628
0.001539191771829877
0.0027159811999701
0.003860298767854064
0.003879754560859316
0.003269835687857662
0.004109563360824767
0.001972844550483804
0.004238077553257405
-0.00723184606159769
-0.001387166899968004
-0.001313732460707049
-0.001101065858936698
0.003326450396318409
-0.001047320720322959
0.001943184352448676
0.006279230689884331
0.007789584814322401
0.003535546756591195
0.00335540048290548
0.003910428443046415
0
0
0
0
0
0
0
0
0
0
0
0
0.003029037520689646
0.005801604706062133
0.001038995408125497
8.985747194868023e-05
0.002118019544027754
0.001169259163631276
0.0001347214066642565
0.0004112061948808353
0.0004161730003984759
0.0005866162610647725
0.0002789651515957771
0.002078097002781054
0.001614894480130023
0.002598817605318238
0.003734738054006393
0.00370291470472155
0.00323178821151378
0.003954513243744634
0.002548939986980814
0.003848125883714074
-0.004203813288832957
-0.0009441259135170529
-0.002173943117881852
-0.001385056065876518
0.004093896136636286
-0.0003831157598982454
0.0009207527176247474
0.005770287112947351
0.008335727381359631
0.002056579265364643
0.003844805000300688
0.002644524646192435
0
0
0
0
0
0
0
0
0
0
0
0
0.002520470768583597
0.005885947325646757
0.0004810233088235403
-0.0004077474854982237
0.001370384757795239
0.001073936753777574
-0.0008613706282776299
0.0006694741933101357
0.0006671839871331307
0.0001295577675858757
0.0001164324807601263
0.001301090318301487
0.001639424612008702
0.002210009181529462
0.003893870196657463
0.003731071525895778
0.003004478860970063
0.003836288019048486
0.003793492557581632
0.003758743452876109
-0.002430401171519603
-0.0003996731025074703
-0.002292400329709954
-0.001474187222459969
0.003775940309814164
0.0007262242260307821
0.0004555166737309509
0.004737486634001189
0.008545642941606072
0.001896999389624053
0.003925605311616688
0.001922248006856499
0
0
0
0
0
0
0
0
0
0
0
0
0.00250634724421707
0.00599897763527871
-0.0003655454446641655
-0.0006615363747122512
0.0007816916047045057
0.0002329800281695735
-0.001704703968964401
0.001411289959566834
0.0008304813717929094
-0.000588619527483041
-0.0001612078588129435
0.0004883972035640686
0.001834717194595453
0.001454793128497916
0.00422609432738313
0.003921551839856803
0.002519801013696278
0.003604791093046854
0.005822722727677301
0.004202751558725024
-0.0008903577761411094
0.0004160195754402141
-0.002038350778667847
-0.001954729613094571
0.002621643903439994
0.001866703304205332
0.001943706956715561
0.00452444933008928
0.007991810940162698
0.003054188214493915
0.004829397722859059
0.001534344794633408
0
0
0
0
0
0
0
0
0
0
0
0
0.002737123437284496
0.005783124867100828
-0.0009097850654564702
-0.0004534151717905571
0.0003242080622572201
-0.0005321479203487885
-0.001913306924006948
0.002117349723173747
0.0009749634076912405
-0.0009735133372057384
-0.0006195291177037354
-7.737652894278053e-05
0.002050056797456311
0.0009243960215261766
0.004046054401586254
0.004024576947764823
0.002230514042159877
0.003409355207132433
0.007392342498312244
0.004471637764829565
0.0005543578599731252
0.001180617659259712
-0.002101260185130182
-0.002428013626136399
0.001715365237348942
0.002460880896435588
0.0028484204989898
0.004846264823818809
0.007643016904175065
0.004123365986834776
0.005447774301799237
0.001498014771245606
0
0
0
0
0
0
0
0
0
0
0
0
0.003270210368017703
0.003798535502689679
-0.001544838849772775
0.0004339789250209458
-2.00939030484458e-06
-0.002200358585782441
-0.001596768885123533
0.003556586640741199
0.001286829237251124
-0.001186447808506459
-0.002402470051676276
-0.001145670349431187
0.002384420415233139
0.0003510376589362153
0.00345881308103471
0.003964821735355627
0.002107190651467683
0.003050062459985565
0.009594899847986563
0.004772423533109085
0.002827709286512391
0.002377091955208191
-0.003455073763717413
-0.003644688035372479
0.0004317895353613202
0.003232753445936277
0.003601460331092591
0.0054349789410652
0.007548006885534365
0.005834096509938773
0.005747649347808466
0.001765329594726135
0
0
0
0
0
0
0
0
0
0
0
0
0.003726804197434332
-0.0002162990406408687
-0.001324256405685203
0.001670826689034399
6.428254675502009e-05
-0.003982102863961836
-0.0005577760464722545
0.005348228979112355
0.00169801156971112
-0.0007565547558985974
-0.006449793952190154
-0.002418621158498599
0.002613924674169613
-0.0001180071910913582
0.003210533207405033
0.0035581372096897
0.002688871657615479
0.002732619004003198
0.01088218005916617
0.005015529287969855
0.005020576543056989
0.003284161364341285
-0.004473203982800154
-0.005086756212347503
-0.0002570429125412252
0.004133163642672614
0.003815148034330809
0.005981659408197503
0.007850819828859061
0.007079463144453135
0.004997079962347166
0.001994365631126276
0
0
0
0
0
0
0
0
0
0
0
0
0.003352274183442994
-0.003184887707959457
-0.0001171764621893416
0.002805547239716956
0.000171004495415924
-0.004549150939180097
0.0008693422713521311
0.007194293491923058
0.00209102198612522
0.001335507324292751
-0.01186385397667605
-0.003468580763828406
0.002943347176396586
-0.0008460089990943942
0.003515875483005043
0.003192803683022822
0.004225634974837844
0.00244197150586451
0.01130791677211271
0.004745723704566497
0.006203306797999799
0.004294753659072299
-0.005646288751892918
-0.006304139093344244
-0.0004269007993606985
0.004750784811150099
0.003805872878136688
0.00650551550596669
0.008510420168365701
0.007206311178393642
0.003907759947476394
0.001736058071406617
0
0
0
0
0
0
0
0
0
0
0
0
0.0009402205924787802
-0.004700608092970301
0.001126663815308192
0.003615311037508261
0.000158526663448527
-0.004069391531780548
0.0023763997527734
0.00880734380295255
0.002010090620546795
0.00349626073395446
-0.01297944178582893
-0.003051710224861777
0.003404907661184807
-0.001897733202762228
0.004139095778285559
0.003961331350968263
0.005215296706819901
0.002155191071921739
0.01173645649069026
0.004928344120491658
0.006329378510709104
0.005672110441002957
-0.008850352955693976
-0.007480361095233128
-0.000790417096055306
0.003640489909036439
0.003882587221627036
0.007196279650969933
0.009630871483454527
0.006273382820801964
0.003005149779365793
0.0003967863657984756
0
0
0
0
0
0
0
0
0
0
0
0
-0.003446500706444207
-0.004636598107944858
0.001897805364872035
0.004413830111452556
-0.0001307519997636
-0.003462554041657197
0.002674572134201512
0.00958768837705056
-0.00023989974919966
-0.001630249445504646
-0.008081033458021527
-0.001576031759182117
0.003489024027231467
-0.003057384723186797
0.004801437600104342
0.005509235653096311
0.005048736244037813
0.002269968806874592
0.01267552494928809
0.005615615426749371
0.006171587220040282
0.007526887776429038
-0.01111861434929244
-0.009246910046601839
-0.001318864376627223
0.001923642880442545
0.004548109382590345
0.0088017533327056
0.01093189224246143
0.005788138864191527
0.001229546277873314
-0.003013644222907879
0
0
0
0
0
0
0
0
0
0
0
0
-0.005734313640856744
-0.003915937676064342
0.002155603037006787
0.005145561322713901
-0.0004786636476325313
-0.003390337349342775
0.001950558567173084
0.008403008606490804
-0.003594667194188851
-0.004832844681941764
-0.003706466940534764
0.0006067721888343524
0.003411638276208883
-0.00371477247234787
0.004944563911887044
0.006626789203354583
0.00530306625554871
0.002746765249313178
0.01334627559911071
0.005112144365700845
0.005781466706125706
0.008194542697506319
-0.01164766019963455
-0.01060928979036501
-0.001847307636948774
0.001377835511301392
0.005444443306352097
0.01056120738108193
0.01186365580734702
0.005185058363214022
-0.0002343597132621381
-0.006037621780345332
0
0
0
0
0
0
0
0
0
0
0
0
-0.005652390790619047
-0.0005973332230921768
0.003255084221711798
0.007692855486324301
-0.00124230023974297
-0.004709561511656362
-0.001014603863215381
0.003171513374860917
-0.003413232857703505
-0.004003640022090386
0.00207266137751124
0.004677046471452798
0.003116028509622972
-0.004037992003273107
0.004869753261284953
0.00982788726987288
0.008314470003533662
0.002384349955639544
0.01306917592080708
0.001081933693772246
0.003231434167137146
0.01086909006950307
-0.01379396120900609
-0.01180576711221235
-0.003331121445651885
0.001625502232023093
0.007389289673700009
0.01437950352092614
0.01363197880929928
0.001566911646803639
-0.0005322189818430681
-0.007257227405831583
0
0
0
0
0
0
0
0
0
0
0
0
-0.002287733751801658
0.005416097705090541
0.00522871195779907
0.0107610717507395
-0.00492954967013195
-0.009097485878946101
-0.00944928456542047
0.007876285446489887
8.488483380735793e-05
-0.002454739797007628
0.003674338801738325
0.007335892347219818
0.001135165241503834
-0.002589917419337485
0.002855421180112215
0.01690590682738533
0.01267654344882832
-0.0006711288534831997
0.005422543441241667
-0.002128255654185204
0.002226358199614307
0.01473652382950189
-0.0120674194363938
-0.01233755754140891
-0.003992694288432252
0.002823371223460901
0.008995276760915848
0.01755636130824549
0.01446525122084629
0.0002738918055773339
0.004685367248501546
-0.003726464872272613
0
0
0
0
0
0
0
0
0
0
0
0
-0.0008812498402641746
0.008325037391393666
0.006064918611752367
0.01060430127716945
-0.01044010607035423
-0.008871309827770256
-0.00998946682439858
0.01091017894642427
0.001731404241359997
-0.00228973710221955
0.003307127051472341
0.007679908556351843
-0.0003194987821025411
-0.0005432417173619156
0.0009300328791671984
0.01997850836604368
0.01612971094429893
-0.002276678454093084
0.003166995115577827
-0.001323730118162862
0.003969409774545433
0.01352598884664829
-0.01070254579929775
-0.01185324401181024
-0.004143793309125111
0.003996691316295899
0.009292547666759667
0.01796028078567224
0.01366651949899742
0.002845127036361228
0.01053956746264152
-0.002085014663031874
0
0
0
0
0
0
0
0
0
0
0
0
-0.002300543925176292
0.01106427899616533
0.003683256245859994
0.008769661669173241
-0.01051056894684273
-0.008356375064575639
-0.008318205771826698
0.01139471246967731
0.001712335231023735
-0.001989428684625721
0.003468064909246875
0.007440144441342264
-0.001188947979514321
0.002716641760813935
-0.0003030444804397566
0.02500754635431822
0.01266977325738448
-0.003042683257942462
0.004176792094448726
0.0002467151720791461
0.007049981535569414
0.01477056112122728
-0.01044384179128412
-0.01127719479830125
-0.004303380277213878
0.005130985878252298
0.008952479430528043
0.01789414682633677
0.0131922651894142
0.004288412898824498
0.0164038099803368
-0.00292483143602877
0
0
0
0
0
0
0
0
0
0
0
0
-0.003223379375583436
0.01274946820812757
0.003214635379324138
0.008046492337508744
-0.008654334483576127
-0.007765370635489857
-0.0044568868274103
0.01098810983802328
0.001315535262665758
-0.001003994869825861
0.003403079524409157
0.01008607950227891
-0.002026068894769226
0.005349601520258734
-0.002321402244178047
0.02292272176558495
0.01323347996104112
-0.003782677206376702
0.008276459745506108
0.00109436291326191
0.009206043640483318
0.0138830306694096
-0.01040107495067789
-0.01086376811215196
-0.004186008552455083
0.005647284921987927
0.008632837501065083
0.0183800616225014
0.01269137789692659
0.00373770403230504
0.01852098520435016
-0.002562614567059763
0
0
0
0
0
0
0
0
0
0
0
0
-0.003202554221844383
0.01282495250387446
0.003198491113485596
0.008060804108516222
-0.008497688209702195
-0.007697635504931618
-0.003986888967654667
0.01097793404145283
0.001279268800977457
-0.0009422443692792017
0.003447338237909996
0.01008601422127998
-0.001994060214644129
0.005521753878474749
-0.002289802281061955
0.02279840855134178
0.01318381555171648
-0.003765727092081193
0.008524161873831794
0.001213730640256816
0.00935335463526943
0.01374373664516533
-0.01038490602035256
-0.01082550790777033
-0.004170157718278148
0.005673278269189632
0.008610756609704749
0.01843357090222232
0.01264525603993931
0.003698314791973748
0.01860293883180898
-0.002499905799580095
0
0
0
0
0
0
0
0
0
0
0
0
-0.002334569832990379
0.01287401608136783
0.003229082530219915
0.008736659679117891
-0.007459561875264583
-0.007055391360204002
9.343655886115052e-05
0.0111298465698337
0.001086224547551236
-0.000658554581309307
0.004299042099032049
0.008204488968634849
-0.0008459795744565962
0.006168605603559831
-0.0003890336575037208
0.02316656516418692
0.01165899570526279
-0.002915545108496529
0.009266477691975326
0.00265109125726096
0.009989283512856348
0.01254247270897699
-0.01013505633861677
-0.01050342123438236
-0.004014764752944051
0.005751935593772793
0.008457078707847598
0.01885789423483929
0.0123279919868315
0.003690275594911382
0.01850965027522497
-0.002089942646978281
0
0
0
0
0
0
0
0
0
0
0
0
-0.00222827115605306
0.01290966815644309
0.003269183037682049
0.008891859498022618
-0.00734306385683295
-0.006978986822399892
0.0006207473773216677
0.01112362721736591
0.001032349230545754
-0.0006077327972445471
0.004428569179372457
0.007599261791040159
-0.0006310925934729558
0.006351118414117759
-0.0001051768438516735
0.02325796953341848