/*--------------------------------*- C++ -*----------------------------------*\
| =========                 |                                                 |
| \\      /  F ield         | OpenFOAM: The Open Source CFD Toolbox           |
|  \\    /   O peration     | Version:  v1812                                 |
|   \\  /    A nd           | Web:      www.OpenFOAM.com                      |
|    \\/     M anipulation  |                                                 |
\*---------------------------------------------------------------------------*/
FoamFile
{
    version     2.0;
    format      ascii;
    class       volVectorField;
    location    "0";
    object      U;
}
// * * * * * * * * * * * * * * * * * * * * * * * * * * * * * * * * * * * * * //

dimensions      [0 1 -1 0 0 0 0];


internalField   nonuniform List<vector> 
1892
(
(0.1734269173526847 0.004489272758377822 -0.03020133989705309)
(0.1794715031694593 -0.006144369967916941 -0.03129621572517832)
(0.1615226787425841 0.009970922717371341 -0.008073656148088902)
(0.1878031298125443 0.006714830383906332 -0.04472290746247645)
(0.2269532237655631 -0.003545651474916993 -0.02772588994200786)
(0.2205569342600821 -0.003326523746701173 0.001063032622329916)
(0.229267901852768 -0.003642553916037249 -0.0006658040996921786)
(0.2524218662315939 0.003766458607546169 -0.00712373209150481)
(0.2750552076105374 0.001751052716558764 -0.002743666903450165)
(0.2871627881479612 -0.002263391884826989 0.001400604030463591)
(0.323669402803325 -0.001467994832923717 -0.04251641392027603)
(0.3473235693707506 -7.971592024243765e-05 -0.05617093005466153)
(0.298827779211744 0.006760968521653137 -0.09189136000049318)
(0.2974036055839674 -0.005595340128833247 -0.01479973762445818)
(0.2914203972290434 -0.001950757662029356 -0.007448073620533031)
(0.2865536428199222 -0.001009168605935276 -0.01315763699752122)
(0.2896793683440732 -0.003031596146863456 -0.03534599957458816)
(0.2855011603470042 -0.0114000173772247 0.0003225624646719509)
(0.2431950081225584 -0.0007593542257395548 -0.0004564747762380165)
(0.240146429779088 -0.002363827016943846 0.01693655321091779)
(0.2936007013798776 -0.01049842562730786 0.01402621570199251)
(0.3409969765085415 -0.006602337526498747 0.02277915254531488)
(0.3634919835858004 0.01179053894588478 0.002341593955341856)
(0.3121161712799546 -0.01100811433898917 -0.05180382853212494)
(0.2814595786660101 -0.001950579654429918 -0.01978338038525327)
(0.1981842583571313 -0.001587420933565486 0.03060350498128993)
(0.1518642937258094 0.003828034167110344 -0.0002531246200690394)
(0.1594912977376011 0.001082824119143983 -0.0202877730350293)
(0.1758164461962681 -4.605363923465338e-05 -0.02853360968854114)
(0.1749497803015759 -0.001663837413544295 -0.02842171336116604)
(0.1591781263355562 -0.0004498736155729507 0.0008101569113560422)
(0.1804049488278607 0.005116956906299495 -0.02579351601312728)
(0 0 0)
(0 0 0)
(0 0 0)
(0 0 0)
(0 0 0)
(0 0 0)
(0 0 0)
(0 0 0)
(0 0 0)
(0 0 0)
(0 0 0)
(0 0 0)
(0.1744490565253043 0.004475400020988523 -0.03033413961199928)
(0.1850327602797631 -0.005895951075151523 -0.03203686080751925)
(0.1520769946056224 0.0106319167243984 -0.007747574825706502)
(0.1929841078774601 0.006874601718338532 -0.04547880190551193)
(0.2126032092541032 -0.004546482215219068 -0.02148247366340399)
(0.2252495730065923 -0.003400715475247318 0.0008864006278141294)
(0.2287589472516827 -0.003731431935580436 -0.0007973873726594581)
(0.2534223081384288 0.003812676186499882 -0.007006243180053704)
(0.2786921398241671 0.001713845590253729 -0.002135003732430451)
(0.2787363511272887 -0.002000801305964297 0.001130884653476249)
(0.3297167205767761 -0.001705042604478468 -0.04194550639923761)
(0.3298623273181164 0.0003777880121872356 -0.05588505441917985)
(0.3049943956287878 0.006262295574452592 -0.09349458229290761)
(0.2938084344316143 -0.005513858871328463 -0.01459488444963762)
(0.2948324823359827 -0.002073366551920388 -0.007714175781976598)
(0.2921331082596164 -0.001169774281810898 -0.01288364126192972)
(0.2790578691939856 -0.002694996554614643 -0.03431745423579558)
(0.2941734714370288 -0.01106774105315043 -0.0001633732925418324)
(0.2182373441333622 -0.0004803735596176014 -2.996961773811215e-05)
(0.2469757535292321 -0.002539770212733456 0.01609507186068141)
(0.2869936901739352 -0.01035903196655399 0.01447017090710647)
(0.3447677325376509 -0.006526831096780364 0.02267265084435031)
(0.3681802091000603 0.01150966567319549 0.003364675321952653)
(0.3045577736579427 -0.01097813147801229 -0.05234502312150596)
(0.2913525522459396 -0.002035877643377561 -0.02141870638508415)
(0.1748340219389151 -0.00226766987374326 0.02861089374214721)
(0.1566714697663387 0.003715962268748558 0.0001190172241010391)
(0.1525664955763636 0.001005446791129625 -0.01984732504358604)
(0.1804853442132202 -6.573175234523727e-05 -0.02877598457983346)
(0.1770321487412302 -0.001514547861936371 -0.02903835761366346)
(0.1577105273439106 -0.000405937122185719 0.0008778687696937698)
(0.1853792884109589 0.005008415545451476 -0.02587512016881345)
(0 0 0)
(0 0 0)
(0 0 0)
(0 0 0)
(0 0 0)
(0 0 0)
(0 0 0)
(0 0 0)
(0 0 0)
(0 0 0)
(0 0 0)
(0 0 0)
(0.2053268468346064 0.004974338506785625 -0.03125125912609997)
(0.2154037906108106 -0.003999454171660668 -0.03556042722390174)
(0.19098447539983 0.008509151417812919 -0.008373857082805277)
(0.2145441048736825 0.007563266473017513 -0.04825849422583196)
(0.263553030950687 -0.001283653889623474 -0.04293410962448059)
(0.2485748163881704 -0.0036674878439271 -6.768848179492903e-05)
(0.2542607017502061 -0.003587431448197094 0.000507972304656221)
(0.2752450958826685 0.004593956522435488 -0.003075204910725708)
(0.3024617058102821 0.00152647508648102 0.001730058346308767)
(0.3234721765689247 -0.003503972878605576 0.003757426211970679)
(0.3539578887516173 -0.002480070035033057 -0.03904963777087152)
(0.3872441938130184 -0.0008322703512917417 -0.05791465158346574)
(0.3338448816311541 0.003622542972515067 -0.09907815952821115)
(0.3467910338435209 -0.007887603034724272 -0.01699673930815343)
(0.3392786952094357 -0.003777170697278195 -0.01169614735691535)
(0.3350926755119187 -0.002137848760772232 -0.01170355697112777)
(0.354437552923062 -0.005185455189946458 -0.04277787433333638)
(0.3322953537578038 -0.009631532319279386 -0.002155956325323124)
(0.2847368573235159 -0.001453441510689024 -0.002297360555016883)
(0.2788307672030311 -0.003379025537999291 0.01257984790389123)
(0.3475830972124263 -0.01202739295940195 0.006609241291234547)
(0.3772357783047916 -0.005559317281245245 0.02355052690526533)
(0.4130434529403812 0.007629941636385793 0.01170641102129118)
(0.3893764007614635 -0.01156627740070343 -0.04739303769156397)
(0.3366366471834161 -0.002612757008939594 -0.03002376834209603)
(0.2426649539101696 -0.0002863186750726667 0.03477366998690116)
(0.1773329147432814 0.003097794943500611 0.001359228885379766)
(0.1961917998941654 0.001058201159795021 -0.02134900975880663)
(0.2129920235718276 -0.0001583266982577539 -0.03066853316294798)
(0.2041449277414374 0.001183704163012561 -0.03637239604381613)
(0.1890532002392097 -0.002680454991977136 0.001736852073515546)
(0.2083696164849221 0.004473551025924507 -0.02593211709585213)
(0 0 0)
(0 0 0)
(0 0 0)
(0 0 0)
(0 0 0)
(0 0 0)
(0 0 0)
(0 0 0)
(0 0 0)
(0 0 0)
(0 0 0)
(0 0 0)
(0.4131359570765133 0.008001645316056455 -0.03576867981134683)
(0.4659445955410776 0.01132762081365091 -0.06719331072821291)
(0.3874425698921763 0.002210908277446252 -0.01259423680161866)
(0.4523720074403428 0.01175206403403277 -0.07569877296314213)
(0.4919762427771589 0.01289755415050212 -0.1315105273192248)
(0.4720042035659846 -0.00661090325320104 -0.01027192156697873)
(0.4263843412362583 -0.003425984915809202 0.002373827044356352)
(0.4357966334256069 0.00995761083324443 0.02174121409070153)
(0.5020499504334558 -0.0001315523371591309 0.03530333964568642)
(0.5481799932712045 -0.01194020081807506 0.02195649099463507)
(0.6057401030783163 -0.01201835956790625 -0.01049902368076109)
(0.6247179084499683 -0.004637135073525362 -0.06691863294380943)
(0.599569415467865 -0.02192227176396035 -0.1381689450991438)
(0.6482578375090517 -0.02210366400694767 -0.0360051093032426)
(0.649733995298124 -0.0190718423427334 -0.03698981501887209)
(0.6705188097346628 -0.01267441467554699 -0.006802362440993767)
(0.7471428968112149 -0.01992119317373326 -0.08694286408971091)
(0.6980169359294464 0.00173278104640285 -0.0215683134206092)
(0.5466633541413537 -0.006166266709355805 -0.01156824907581916)
(0.586254230386312 -0.0104974742274261 -0.0261008018439864)
(0.6822259089526692 -0.02381205464535436 -0.04461974725187641)
(0.6443953058570934 0.0004656474049824864 0.02523939034877413)
(0.7486572372385067 -0.01819888214316023 0.06715983159967148)
(0.8629082566001559 -0.01799632226816978 -0.02073851300065268)
(0.7638968302730866 -0.007140893867094654 -0.09835021590839647)
(0.5290317884662105 0.008045335398244587 0.05222967375548035)
(0.3969572966556768 -0.003099929337676036 0.01788505099168513)
(0.4237745013537857 -0.001315143994811513 -0.02452528404194592)
(0.4710683871839836 -0.0004562623826613734 -0.04353595484244521)
(0.4218202005564385 0.01803859819463642 -0.08024521544577601)
(0.3934838972659855 -0.01525740015243268 0.0009669436184322371)
(0.3804056331642898 0.001444731637755382 -0.02521422996893366)
(0 0 0)
(0 0 0)
(0 0 0)
(0 0 0)
(0 0 0)
(0 0 0)
(0 0 0)
(0 0 0)
(0 0 0)
(0 0 0)
(0 0 0)
(0 0 0)
(0.4327212721967695 0.008058955466944857 -0.03505341010032209)
(0.4907016411475967 0.01203408194325081 -0.06838048637949927)
(0.4120542241565965 0.002443176867291992 -0.01395174484526939)
(0.4732072849775755 0.01127429057484098 -0.07621096828412786)
(0.5138922455686112 0.01445273318121512 -0.1386168324989669)
(0.4962265969022529 -0.006878527312888003 -0.01170635051931632)
(0.4471488919991657 -0.003588018368115845 0.0004963860704871844)
(0.4536788692696947 0.01068017981020538 0.02317505872598498)
(0.5211301001412123 -0.0002116133246194263 0.03920388766021547)
(0.5677056335944505 -0.01303619787087135 0.02508171863430057)
(0.6252610538566924 -0.01311336233911289 -0.007308955274500943)
(0.6426484469089192 -0.005342682894001922 -0.06616428100775396)
(0.6225697036910326 -0.02587897500525517 -0.1372573174996837)
(0.6733731381042868 -0.02357487465662435 -0.03918639041235693)
(0.6742203487258608 -0.02143553787907018 -0.03879372864034971)
(0.7000949649531083 -0.01455474452670406 -0.006618591070860502)
(0.7793266569039533 -0.02178996687161285 -0.09005879240769457)
(0.7293781442187869 0.001866478017341503 -0.024865069375133)
(0.5725967793310418 -0.006562372521170105 -0.01202816119444061)
(0.6128900837157353 -0.01071693464974378 -0.03165649614275998)
(0.7118601914561722 -0.02586291501876179 -0.05152430406066007)
(0.6744561732291198 0.0008970872488606381 0.0224148917938938)
(0.7786184456038775 -0.019603592893112 0.06887985957136122)
(0.9031037423291292 -0.02004708823624432 -0.01747179336770617)
(0.8013824304263446 -0.007691904016458454 -0.1012358399114823)
(0.5606063541840612 0.00921115793813938 0.05096504513534707)
(0.4196936610380503 -0.003582732680377199 0.02018339477535593)
(0.4444437088923928 -0.002437960960636614 -0.02351748759100609)
(0.4948563430374969 -0.0007897959802693925 -0.04365768301913479)
(0.448563643587516 0.01941449382497179 -0.08307539883651401)
(0.4195712975881473 -0.01599769773096265 -0.001483608723275717)
(0.4046293900975867 0.001312553084901491 -0.02511171170142439)
(0 0 0)
(0 0 0)
(0 0 0)
(0 0 0)
(0 0 0)
(0 0 0)
(0 0 0)
(0 0 0)
(0 0 0)
(0 0 0)
(0 0 0)
(0 0 0)
(0.5676604753575801 0.00687256927617765 -0.01720380848482055)
(0.667642902364188 0.01044020033954696 -0.055924272615517)
(0.6710085870591324 0.01623965391397034 -0.03975492194775818)
(0.6588244582599789 -0.0005828840542867602 -0.05574184456728773)
(0.6810399259142744 0.0263642490403644 -0.1644953511504856)
(0.7106566553620244 -0.00919578743723474 -0.0274349893429912)
(0.6494576315875646 -0.006771042113217444 -0.03741398682554827)
(0.6113081600232162 0.01774514746136736 0.01588615050783618)
(0.6573361010314248 0.0001465672780014988 0.07052212198427926)
(0.6797123068215141 -0.02563356404009106 0.06575971196805162)
(0.7407708740574025 -0.02645929484041056 0.02256410197039298)
(0.7102374353632661 -0.01287427386331665 -0.03647132958072681)
(0.7583051504443497 -0.07263142894840659 -0.07280373895452076)
(0.783334829824623 -0.0308074972873089 -0.08011917211709936)
(0.748927587239391 -0.04624205079925187 -0.03534219420415839)
(0.8497028993651048 -0.03994290790819342 -0.01150159135942678)
(0.9136385542719176 -0.04170337588660399 -0.0942587246698498)
(0.9262891455906603 -0.01214437505432745 -0.06481254507299271)
(0.7821133406190245 -0.007472234350388213 -0.01079252467712739)
(0.7778053836273627 -0.005367934292523312 -0.1004104937616619)
(0.8683732302936074 -0.05215655166628879 -0.1263702949677816)
(0.9244851544320098 -0.003244330334103874 -0.03558734107261767)
(0.945082709158491 -0.01508340057775526 0.03156804945776934)
(1.09093234273576 -0.05357158986182824 0.008839717891028385)
(1.04213788691357 -0.01453121030442572 -0.07894657024782567)
(0.8581118752067751 0.02337095641371026 -0.001724616425144922)
(0.6439160624420718 -0.002217477557395412 0.0469328960649214)
(0.576266873997661 -0.0232205101610762 0.003422115406485303)
(0.630444149088814 -0.009649123221679592 -0.02628614394013519)
(0.6921732957979732 0.02396925050007046 -0.08105600908130199)
(0.6806188926981411 -0.01244777842431907 -0.05198129633419553)
(0.5912286443772657 0.002147708124922169 -0.02294503082378129)
(0 0 0)
(0 0 0)
(0 0 0)
(0 0 0)
(0 0 0)
(0 0 0)
(0 0 0)
(0 0 0)
(0 0 0)
(0 0 0)
(0 0 0)
(0 0 0)
(0.7096702794148093 0.02287531417022326 -0.02304515014174203)
(0.7556013296451011 0.005063587603178245 -0.02866697334965241)
(0.842780143038919 0.01854316635769991 -0.05988188215752078)
(0.8404643238927502 0.01239749700918248 -0.04439351058892949)
(0.7855850750186212 0.02249924151208409 -0.1392080246766073)
(0.8238772613176035 -0.01154198711335971 -0.017819783584604)
(0.8296726073237821 -0.009137787539247448 -0.0294879220323191)
(0.7406584460985526 0.02282395779421014 -0.02385062364075729)
(0.7812356548993959 0.008895444988452751 0.05272165115495783)
(0.7443678921631532 -0.03749959313708306 0.07216687748539063)
(0.7846803943805073 -0.03433197920290677 0.02475483951386952)
(0.7277779720292156 -0.00768453456075793 0.009042663160372322)
(0.7651534849282173 -0.1332458218888741 -0.0135032190487485)
(0.8437004541494083 -0.008543058206477014 -0.09935191385333256)
(0.7103999909543648 -0.04168789627860502 0.01748880779688603)
(0.8414010642371826 -0.06873056374974915 -0.02071166796274816)
(0.8833627505339692 -0.05413455598233197 -0.06767732492934163)
(0.9112656044503682 -0.04810827802963549 -0.07332443297588094)
(0.8572964376814817 0.01187058293050105 -0.02520895426732581)
(0.8237341358746992 0.005718266604884379 -0.1633130903151292)
(0.8774709264961316 -0.07369648472468719 -0.164440515275929)
(1.008679622785228 -0.04028068716907294 -0.07753655071480223)
(1.013968858261436 -0.007816987105008246 -0.02942579221827898)
(1.107867664361854 -0.07373092573996677 -0.01158725870186658)
(1.082835425267287 -0.03373100498009743 -0.05940251722437176)
(0.9733305305631701 0.03948938897974949 -0.02450892010759817)
(0.8001859251312499 0.02135939330224213 0.02821284712145845)
(0.7083734851463637 -0.02963510944058658 0.02753808246761637)
(0.6325357919677649 -0.03617930403585909 0.01079940599119582)
(0.7641738143954746 0.01079761576951483 -0.05518615110330064)
(0.8343051995053801 -0.008413922010620502 -0.08488714805829713)
(0.7638897958794266 0.007911900145053294 -0.03493120591224144)
(0 0 0)
(0 0 0)
(0 0 0)
(0 0 0)
(0 0 0)
(0 0 0)
(0 0 0)
(0 0 0)
(0 0 0)
(0 0 0)
(0 0 0)
(0 0 0)
(0.789797810804751 0.02661013345426805 -0.02514844544936734)
(0.8097284546028155 0.01512243998612667 -0.0125635591525427)
(0.8958805147677472 0.01734348546665582 -0.04717327355121144)
(0.9423373594777615 0.02188806209660525 -0.04284050321137059)
(0.9296686099459865 0.04021674511348207 -0.1300688439893905)
(0.9244245882596936 -0.01318980317247458 -0.04231213350232593)
(0.9168013849134601 -0.03710251041166421 0.01180856689212601)
(0.8151127897403367 0.02483643142305136 -0.05937499621302992)
(0.853173927040077 0.02065475496230366 0.0292322075211164)
(0.8106273691855672 -0.04497561130499698 0.03692692512845008)
(0.8130811772914225 -0.03926078244645637 0.009904589290318674)
(0.7749516830059602 -0.003634589146219695 0.04580905836016224)
(0.7934304151048024 -0.1584949320521836 0.04501047871948084)
(0.8098203317081032 0.03758348148721433 -0.09267920880428147)
(0.6946057738155218 -0.01849260146890712 0.0988594084273967)
(0.7835658649310192 -0.0780610504093794 -0.002980979559598015)
(0.8049312825961517 -0.04906052662361934 -0.0009039536730911331)
(0.8749478192631508 -0.05723260984398672 -0.06895575901023016)
(0.8414189294444853 0.03500609748554931 -0.04912804234068312)
(0.8653620202326511 0.01565640038563876 -0.1688585143920898)
(0.8817733595933732 -0.07146885643575276 -0.1572686865558014)
(1.013425963479831 -0.08070342665714286 -0.08191548838300634)
(1.068407677894363 -0.00633999583293045 -0.05443983526304186)
(1.111346153361258 -0.07967630433436726 -0.02382870465423382)
(1.058779756760657 -0.03756444538178879 -0.05520317738631383)
(1.009335776548586 0.06060861394194287 -0.0278222214621035)
(0.8345945869851445 0.01900663361911246 -0.0314163407915225)
(0.9344806867294684 0.00785196198603404 0.04255456382868591)
(0.6453503151963159 -0.04917363766101062 0.03204420493226498)
(0.7350865007025296 -0.01822210071948329 -0.01035649105064512)
(0.8663896918478664 -0.008728646054090678 -0.07858000847761851)
(0.8073149206542658 -0.0005796576545575769 -0.03983060766287398)
(0 0 0)
(0 0 0)
(0 0 0)
(0 0 0)
(0 0 0)
(0 0 0)
(0 0 0)
(0 0 0)
(0 0 0)
(0 0 0)
(0 0 0)
(0 0 0)
(0.7383783063389566 0.00671089149018461 0.01191811492806072)
(0.8140586523542174 0.03749324499066319 0.01920791819415634)
(0.9050816641593395 0.033265800224879 -0.01639626788989519)
(0.9797372678705905 0.03228106964080982 -0.03469789507261743)
(1.039131324730074 0.03971435417329044 -0.08908567199663016)
(1.045076656655252 -0.006025003167335963 -0.06515192969930875)
(0.9969883090591344 -0.05975848218232441 0.04287709685457763)
(0.8852805235969123 0.03769422524429246 -0.05653016233183239)
(0.892388737990605 0.04948100310153985 -0.008436198228293376)
(0.9275217917976816 -0.05807380550876361 -0.09585059201861085)
(0.9749539840530107 -0.0532407219320488 0.01831765395753107)
(0.9220681804451365 0.01457194935684783 0.003853805264585225)
(0.914634514080363 -0.1658337278750359 0.07648597704156483)
(0.7162006128086783 0.1256505512490458 -0.01124290277224828)
(0.7913543024716625 0.0242497101002561 0.1351297864437422)
(0.8050125747962913 -0.04748524342955936 0.05374363001501179)
(0.8760767437436212 -0.03437800636621764 0.06142598362130396)
(0.8952486333259373 -0.03072130098983702 0.02518678601077009)
(0.8500943665024505 0.04252664189031861 -0.07708989096106907)
(0.9075222362972868 0.02207588284119082 -0.09848054487390805)
(0.858097155472035 -0.03273409767312539 -0.0791855691464463)
(0.9896655316261336 -0.0779278959405498 -0.01807501300419805)
(1.087576554654762 -0.01539520030264223 -0.02817498973504199)
(1.097908086589546 -0.06057398096411363 -0.0214903968904162)
(1.04878989764054 -0.03077098367029954 -0.02836891687657872)
(1.041407321162793 0.08779441378368222 -0.0209222320145244)
(0.9292076139123502 -0.0206701221585157 -0.06169354096927546)
(1.007497025166026 0.007669908190374638 -0.05358008441514983)
(0.9629726468139164 -0.0155592745180408 -0.01264945662634963)
(0.759364052671418 -0.02201736493013862 0.07950850079406289)
(0.7950306515801393 -0.01345204059305677 -0.03538274327204751)
(0.7354341056672073 -0.008232571134893781 -0.01820432008284827)
(0 0 0)
(0 0 0)
(0 0 0)
(0 0 0)
(0 0 0)
(0 0 0)
(0 0 0)
(0 0 0)
(0 0 0)
(0 0 0)
(0 0 0)
(0 0 0)
(0.7251741019951518 0.01462897383973649 0.0521068384885567)
(0.7764743624229886 0.04155153391145712 0.06525872125672891)
(0.9256799962429291 0.04850370571854324 -0.009874274863613322)
(1.006943729827398 0.02762243385283385 -0.03204466452358935)
(1.053511393549471 0.03021458019308749 -0.07919391571777172)
(1.107771284131399 0.01016582038810886 -0.100718909561946)
(1.047923711731066 -0.05920460935672307 0.03690509738501272)
(0.941859847065909 0.04118599524291762 -0.0375025642025117)
(0.9297908342393072 0.08285965704266476 -0.04288235138528589)
(1.017219840297619 -0.07389913377981799 -0.07002961376542507)
(1.074033096720341 -0.03373287528447093 -0.05835311226675546)
(0.9530601581050375 0.03233181960622807 -0.04237549518661429)
(1.002954318924261 -0.09133699375635533 0.01126166602371722)
(0.7782539251015365 0.1201905417577575 0.04446494959645455)
(0.7748826233188891 0.01778789478901923 0.02121441451482251)
(0.8657683653580536 0.004564787378161477 0.1077723310070793)
(0.9051877633714925 -0.01456546213409521 0.01634668574221681)
(0.9450871325731401 -0.01223693256072731 0.1000601601471878)
(0.9392713623576989 -0.02301983959980357 -0.005441002977982032)
(0.9404454879188755 0.02871882703446177 -0.02605033047546471)
(0.8549489032430136 0.04759504083500017 0.03737504149241952)
(0.9823378958041101 -0.02090460085648052 0.08529123336004799)
(1.060121861899415 -0.007903937999618133 0.04260756506309674)
(1.052124560470629 -0.02663985793380945 0.01222997938989696)
(1.090534652822619 -0.03768534698875337 0.02109394038010196)
(1.065291107682264 0.1164163665398181 -0.008107664641427295)
(1.00908278358208 -0.05859233661172843 -0.01997333295205499)
(1.066418012112494 -0.01414872568136589 -0.07435446069340908)
(1.075171178382364 -0.009082243781224582 -0.03074670363530831)
(0.829143414657907 0.009039946365538062 0.05797438277393875)
(0.7981188266745388 -0.007718532782406607 0.00984675573724755)
(0.7555246830712601 0.01722899767478124 -0.009715288685191101)
(0 0 0)
(0 0 0)
(0 0 0)
(0 0 0)
(0 0 0)
(0 0 0)
(0 0 0)
(0 0 0)
(0 0 0)
(0 0 0)
(0 0 0)
(0 0 0)
(0.8041075688740358 0.0392521881613084 0.0307625063927011)
(0.7712497271368836 0.03733862963924749 0.09767745150362328)
(0.9410403467468212 0.05316934761516159 -0.01089465087973652)
(0.9934636505092523 0.02950696257620562 -0.01140211569131075)
(1.048044014699909 0.02197578495994755 -0.07048844780051317)
(1.131854751992714 0.006486448127702042 -0.122305075356302)
(1.067349597829128 -0.05399567195226758 0.0163469443206211)
(0.9998298313318086 0.03988995529288519 -0.03729331768644616)
(0.9659507752166951 0.09534010388495824 -0.05040352050581171)
(1.072751347606652 -0.08997345017078838 -0.01038469753353327)
(1.099441399172497 -0.02762510502040979 -0.07159007266255808)
(1.028297478292553 0.03753561957376196 -0.03593588110079103)
(1.034059364135716 -0.04731450852443189 -0.008790199298436078)
(0.8186884512776962 0.1175580385822979 0.01674417951058215)
(0.7711356772745533 -0.00419212404408594 -0.03408409939565784)
(0.8592910356326302 0.02585981352035895 0.09980556417858256)
(0.8926612763175394 0.02180413565889882 -0.03762879748140938)
(0.9373851206331568 -0.01643092142242475 0.09219221550857466)
(0.9760179772461064 -0.07394815751801324 0.05421156959481007)
(0.9652180642257121 0.03319624415030539 -0.002324654099310157)
(0.8884240521940144 0.08979410138786639 0.08904835818121633)
(1.013381859483514 0.008921526230606323 0.1259209540249511)
(1.041055222091607 -0.009862475177507924 0.07293181347997596)
(1.024582256397119 0.003544342966943157 0.03117251622214146)
(1.105366520836972 -0.05374403571890896 0.03430166349018982)
(1.055846537368706 0.137670237107206 -0.002302459054845632)
(1.022139800527992 -0.0597820128163218 0.002154421022103298)
(1.066198753570995 -0.024568534462348 -0.06001533944626542)
(1.083778683541047 -0.01231246672773631 -0.03510028655239529)
(0.8859449248360548 0.01771744936737306 0.02530344461604284)
(0.8350814644019522 0.01216939955520026 0.02311759166036794)
(0.8063309345910099 0.02616389447291079 -0.01300041251030119)
(0 0 0)
(0 0 0)
(0 0 0)
(0 0 0)
(0 0 0)
(0 0 0)
(0 0 0)
(0 0 0)
(0 0 0)
(0 0 0)
(0 0 0)
(0 0 0)
(0.8699284123625988 0.04903997518226353 -0.02037737551625594)
(0.8417600590672545 0.05469799129118993 0.1312443437925308)
(0.9529645108009278 0.06467016358775687 -0.01013804239737172)
(0.9117416815289769 0.07312333029348186 0.06419516517620956)
(1.010565689591713 0.02916110394066818 0.003676175505933557)
(1.134879994122642 -0.01174760684280851 -0.1103733956020697)
(1.108177256713608 -0.03569080199620073 -0.02609757068295607)
(1.123277841218914 0.03484296150462222 -0.02357126652712106)
(1.048053727775762 0.09703699227799334 -0.03084833285416478)
(1.156798332033372 -0.1123455763229566 0.000461654856048861)
(1.135131486361497 -0.02518189209464452 -0.07222490681688831)
(1.13255900167426 0.01730620472351973 -0.02003529973787697)
(1.077237228797074 -0.0007106586095505551 -0.008841447826131662)
(0.8987276867194731 0.1252843574512188 -0.05722287276837047)
(0.8718704644693916 -0.05369899209656037 -0.01865165616740929)
(0.8369112743552943 0.05425942135039159 0.03493687906870858)
(0.9055674213571836 0.03755019701005721 -0.09866395154040461)
(0.8927769399486676 -0.02596065839883557 0.04166244961297091)
(1.024371159050484 -0.09204314081299646 0.07513471438668903)
(0.9812029365395357 0.05744215074614041 0.002839110100973808)
(0.9289817541179274 0.09199170718106324 0.08115647814919995)
(1.045079507134659 0.01420753492203744 0.1362784161989011)
(1.033345801994977 -0.01156710831841531 0.1029218931945883)
(0.9985164763135314 0.0506592997200946 0.03574592032249689)
(1.111350240166525 -0.08270441891916604 0.04882285735644179)
(0.9868335882022776 0.1498444232875499 -0.02449232246093069)
(1.04131806524606 -0.05069463888539068 0.01749849035504363)
(1.055975080551832 -0.02967332372962886 -0.004792254172286123)
(1.106107233828847 -0.005732559338448061 -0.01949949198047731)
(1.095521480955507 0.06230202279738457 0.01297298743904588)
(0.874388239172195 0.03101079302197391 0.001779731214037107)
(0.8716087884109245 0.02923872632796178 -0.003484978049846028)
(0 0 0)
(0 0 0)
(0 0 0)
(0 0 0)
(0 0 0)
(0 0 0)
(0 0 0)
(0 0 0)
(0 0 0)
(0 0 0)
(0 0 0)
(0 0 0)
(0.9003939536018266 0.01798227012340885 -0.03949941652816239)
(0.9427281598750924 0.0974394710008389 0.1062788000968714)
(0.9458819988427354 0.08658544219767916 0.006608821133301412)
(0.8683456303091645 0.1326492195316995 0.1214466256360172)
(0.9893240302591322 0.07637500591626152 0.1228574635057791)
(1.109161065603467 -0.01982587974699952 -0.07330522503239259)
(1.140753215953773 -0.01428893719088855 -0.06326641039488137)
(1.174826100264654 0.01840089306254599 -0.03250556502864251)
(1.162577925043786 0.08268935348717935 -0.004297768231765848)
(1.208167185641093 -0.1127514736116103 -0.002028141430525016)
(1.14385202112998 -0.02799200874150451 -0.08620976590067821)
(1.15461357930313 -0.01198615510769418 -0.02599872956824301)
(1.138126721862423 0.02616269912754391 0.007793681852230614)
(1.077086491999358 0.0954296121562449 -0.0668794813985857)
(1.089625083073767 -0.03629981766827723 -0.06457174011897837)
(0.9213734575740669 0.03094647086177254 0.02346481076587739)
(0.9736208759192533 -0.02006237780210866 -0.05661983158675027)
(0.9234156664472193 -0.01132885303694104 -0.0704046905271624)
(0.999807583280827 -0.07501646810953802 0.01174534451907355)
(0.9533324158957885 0.06397251300269347 0.009266563527811252)
(0.9627310298064933 0.04622807009106922 0.02131770855327847)
(1.019755663398723 -0.02377577708916817 0.1141399958232476)
(1.050279935807412 0.0002442411636204187 0.1373650243070273)
(1.01600036864731 0.08645287657823274 0.01543803814331539)
(1.09804193505053 -0.07933818754950366 0.08109759787238104)
(0.9637822216618843 0.1093882588143896 -0.07592298249097303)
(1.058173226457523 -0.04157262120662862 0.02780449278830227)
(1.070100835230803 -0.04060809796736978 0.02449126483560514)
(1.112995069526707 -0.02782836684090257 -0.006183667201704769)
(1.162110187221295 0.07707416336977316 -0.01425954438018386)
(0.9737443923919543 0.03646165343248709 -0.03130760294314391)
(0.9326705800797724 0.0138236238821879 0.01575961339093571)
(0 0 0)
(0 0 0)
(0 0 0)
(0 0 0)
(0 0 0)
(0 0 0)
(0 0 0)
(0 0 0)
(0 0 0)
(0 0 0)
(0 0 0)
(0 0 0)
(0.9644579920974264 -0.04301194816802275 -0.01355914751249452)
(0.9698031018460852 0.1144160982677064 0.06373682272145015)
(0.939016237384018 0.1101311484335507 0.02392485525564416)
(0.8823931994953882 0.1378146694373287 0.1029883427212932)
(0.992851929142721 0.1129442428923562 0.1881872189942342)
(1.082164485598265 -0.01480863835960522 -0.0152920258678253)
(1.166076352647437 -0.02146963826908397 -0.06845636150019355)
(1.194750405168479 0.002425841721276061 -0.04816451184164229)
(1.234679438674227 0.05444459899163262 -0.03068804098229376)
(1.238064554868913 -0.09971249194596883 -0.01961131448046583)
(1.156619343059545 -0.03859430610155822 -0.08675844505799636)
(1.153592712090525 -0.0217820205848976 -0.009076069571731123)
(1.158842030229489 0.02403943742939606 0.004331197731558907)
(1.165702111667614 0.04307921854160172 -0.02641051587493459)
(1.14548525278385 -0.03209764580310075 -0.06686330433689505)
(1.098126894463921 0.01242168776331742 0.04685266548022393)
(1.0891162608234 -0.0416007167292954 -0.006488523929895282)
(1.000910601947691 0.01138185539914687 -0.1011292347361982)
(0.9858208733643961 -0.02261454410014113 -0.01431584135683265)
(0.9533677576951802 0.04179525528367349 0.0536125896567036)
(1.01403381898646 0.02074385275011701 -0.03710938041546776)
(0.9910340646024526 -0.08065310399144685 0.04865979238215106)
(1.0815166353078 0.003882945780667874 0.17757786297256)
(1.057098506662164 0.08069774035143487 0.01272592725109464)
(1.098995453679566 -0.05295492914649202 0.1090838651613268)
(1.038121516339976 0.01269772080677628 -0.03141679694839637)
(1.080767478832988 -0.03750919133573655 0.01766067014988343)
(1.092964889443225 -0.04809284261827381 0.03264235303852386)
(1.132459064486283 -0.05921795524345122 -0.001363673614605248)
(1.111495476970029 0.07515819475325311 -0.01169736616796675)
(1.06349280397249 0.06644769068224428 -0.08684346389117233)
(0.9899594350124971 0.01106167738926871 0.02043170209755663)
(0 0 0)
(0 0 0)
(0 0 0)
(0 0 0)
(0 0 0)