/*--------------------------------*- C++ -*----------------------------------*\
| =========                 |                                                 |
| \\      /  F ield         | OpenFOAM: The Open Source CFD Toolbox           |
|  \\    /   O peration     | Version:  v1812                                 |
|   \\  /    A nd           | Web:      www.OpenFOAM.com                      |
|    \\/     M anipulation  |                                                 |
\*---------------------------------------------------------------------------*/
FoamFile
{
    version     2.0;
    format      ascii;
    class       volScalarField;
    location    "10000";
    object      nuTilda_0;
}
// * * * * * * * * * * * * * * * * * * * * * * * * * * * * * * * * * * * * * //

dimensions      [0 2 -1 0 0 0 0];


internalField   nonuniform List<scalar> 
3770
(
0.0004957436341779523
0.000495743634177961
0.0004957436341779534
0.0004957436341779645
0.0004957436341779535
0.0004957436341779868
0.0004957436341780191
0.0004957436341779538
0.0004957436341778977
0.0004957436341779425
0.0004957436341779563
0.0004957436341779683
0.0004957436341779577
0.0004957436341778984
0.0004957436341778725
0.0004957436341779404
0.0004957436341779554
0.0004957436341779864
0.0004957436341780166
0.0004957436341779769
0.0004957436341779298
0.000495743634178044
0.0004957436341780134
0.0004957436341778606
0.0004957436341778649
0.000495743634177945
0.0004957436341779966
0.0004957436341779301
0.0004957436341778563
0.0004957436341779759
0.0004957436341779919
0.000495743634177979
0.0004957436341779448
0.0004957436341779869
0.0004957436341779869
0.0004957436341779723
0.0004957436341779769
0.000495743634177951
0.0004957436341779389
0.0004957436341779914
0.000495743634178016
0.0004957436341779215
0.0004957436341779038
0.0004957436341779403
0.0004957436341779395
0.0004957436341779136
0.0004957436341779111
0.0004957436341778714
0.0004957436341779457
0.0004957436341780552
0.0004957436341779621
0.0004957436341779431
0.0004957436341779916
0.0004957436341780055
0.000495743634177939
0.0004957436341779182
0.000495743634177951
0.0004957436341779537
0.0003543875037046275
0.0003543875037078222
0.0003543875037064674
0.0003543875037078173
0.0003543875037069517
0.0003543875037083157
0.0003543875037066484
0.0003543875037067336
0.0003543875037052405
0.0003543875037057322
0.0003543875037063807
0.0003543875037082121
0.0003543875037067953
0.000354387503706673
0.0003543875037053269
0.000354387503706641
0.0003543875037069247
0.0003543875037076248
0.0003543875037062481
0.0003543875037070567
0.0003543875037066386
0.0003543875037073237
0.0003543875037068533
0.000354387503705736
0.0003543875037053013
0.0003543875037054649
0.0003543875037067797
0.000354387503706941
0.0003543875037043436
0.0003543875037066615
0.0003543875037057985
0.0003543875037057469
0.0003543875037072243
0.0003543875037060491
0.0003543875037061461
0.0003543875037058426
0.0003543875037063023
0.0003543875037069506
0.0003543875037052549
0.0003543875037062922
0.0003543875037066296
0.000354387503705292
0.0003543875037051507
0.0003543875037057214
0.0003543875037050466
0.0003543875037046436
0.0003543875037046199
0.0003543875037030389
0.0003543875037041831
0.000354387503705902
0.0003543875037046348
0.000354387503703353
0.0003543875037045986
0.0003543875037039859
0.0003543875037030091
0.0003543875037030208
0.0003543875037043222
0.0003543875037038712
0.0005117246664406569
0.0005117246664476685
0.0005117246664432065
0.0005117246664470035
0.0005117246664445413
0.0005117246664489594
0.000511724666444273
0.0005117246664468932
0.000511724666440911
0.0005117246664426209
0.0005117246664450744
0.0005117246664484789
0.0005117246664441438
0.0005117246664446279
0.0005117246664437217
0.0005117246664455785
0.0005117246664438976
0.0005117246664467735
0.0005117246664455762
0.0005117246664461803
0.0005117246664422968
0.0005117246664459546
0.0005117246664451511
0.0005117246664422503
0.0005117246664399839
0.0005117246664421032
0.0005117246664472634
0.0005117246664447314
0.0005117246664376237
0.0005117246664464855
0.0005117246664456276
0.0005117246664429849
0.0005117246664454856
0.0005117246664458792
0.0005117246664455704
0.000511724666445134
0.0005117246664456546
0.0005117246664459226
0.0005117246664438991
0.0005117246664456793
0.0005117246664457492
0.0005117246664436591
0.0005117246664411814
0.0005117246664400053
0.0005117246664426504
0.0005117246664403974
0.0005117246664402002
0.0005117246664377614
0.0005117246664376312
0.0005117246664440087
0.0005117246664377159
0.0005117246664311858
0.0005117246664382948
0.0005117246664414919
0.000511724666440299
0.0005117246664350581
0.0005117246664364035
0.0005117246664386591
0.0007063743167845184
0.0007063743167917786
0.0007063743167847771
0.0007063743167879244
0.0007063743167860777
0.0007063743167932915
0.0007063743167848803
0.0007063743167896138
0.0007063743167871765
0.0007063743167825513
0.0007063743167859457
0.0007063743167928413
0.0007063743167837862
0.0007063743167902974
0.0007063743167913327
0.0007063743167849266
0.0007063743167894408
0.0007063743167940232
0.0007063743167868283
0.0007063743167883024
0.0007063743167831665
0.0007063743167858282
0.0007063743167833517
0.0007063743167860818
0.0007063743167897744
0.0007063743167824997
0.0007063743167886606
0.0007063743167918982
0.0007063743167825884
0.0007063743167910755
0.0007063743167926319
0.0007063743167852783
0.0007063743167898296
0.0007063743167883696
0.0007063743167862584
0.0007063743167845545
0.0007063743167863835
0.0007063743167895434
0.0007063743167818552
0.0007063743167881766
0.0007063743167897606
0.0007063743167836809
0.0007063743167873781
0.0007063743167833594
0.0007063743167816925
0.0007063743167841686
0.0007063743167851974
0.000706374316781652
0.0007063743167771549
0.0007063743167860636
0.0007063743167801018
0.0007063743167687513
0.0007063743167775363
0.0007063743167815018
0.0007063743167805797
0.0007063743167717905
0.0007063743167784866
0.0007063743167854659
0.0009072340625748227
0.0009072340625821182
0.0009072340625733724
0.0009072340625721828
0.00090723406257253
0.0009072340625849929
0.0009072340625701532
0.0009072340625826448
0.0009072340625854449
0.0009072340625699037
0.0009072340625761783
0.0009072340625852105
0.0009072340625694059
0.0009072340625810804
0.0009072340625866423
0.0009072340625699548
0.0009072340625811127
0.0009072340625888764
0.0009072340625756534
0.0009072340625778167
0.0009072340625738716
0.0009072340625743629
0.0009072340625708027
0.0009072340625772458
0.0009072340625851669
0.0009072340625710903
0.0009072340625797189
0.0009072340625861716
0.0009072340625700382
0.0009072340625820164
0.0009072340625876865
0.0009072340625706363
0.0009072340625801366
0.0009072340625830931
0.0009072340625780505
0.0009072340625748681
0.0009072340625774301
0.000907234062581533
0.0009072340625684137
0.0009072340625802354
0.0009072340625865447
0.0009072340625709791
0.0009072340625780758
0.0009072340625783361
0.0009072340625749983
0.0009072340625759603
0.0009072340625762339
0.0009072340625779174
0.0009072340625648125
0.0009072340625752597
0.0009072340625748118
0.0009072340625580164
0.0009072340625657797
0.0009072340625691603
0.0009072340625685568
0.0009072340625555221
0.0009072340625665455
0.0009072340625782722
0.001111327044459938
0.00111132704446443
0.001111327044455904
0.00111132704445145
0.001111327044454618
0.001111327044470059
0.0011113270444475
0.001111327044466336
0.00111132704447721
0.001111327044450219
0.001111327044460595
0.001111327044471725
0.001111327044449122
0.001111327044465878
0.001111327044477072
0.001111327044449104
0.001111327044467571
0.001111327044478781
0.001111327044461357
0.001111327044462796
0.001111327044458696
0.001111327044456931
0.001111327044452011
0.001111327044461775
0.001111327044474444
0.001111327044453518
0.001111327044465699
0.001111327044474905
0.001111327044451284
0.001111327044468408
0.001111327044478556
0.00111132704445124
0.001111327044466133
0.001111327044475626
0.00111132704446647
0.001111327044461367
0.0011113270444642
0.00111132704446774
0.001111327044449001
0.001111327044467591
0.001111327044478686
0.001111327044453817
0.001111327044465154
0.001111327044471218
0.00111132704446298
0.001111327044466574
0.001111327044466498
0.001111327044466854
0.00111132704444718
0.001111327044462212
0.001111327044468093
0.001111327044444312
0.001111327044449053
0.001111327044451391
0.001111327044450782
0.001111327044432264
0.00111132704444798
0.001111327044465912
0.001318589364464194
0.001318589364465787
0.001318589364459589
0.001318589364447685
0.001318589364454277
0.001318589364471289
0.001318589364443024
0.001318589364467555
0.001318589364486333
0.001318589364447052
0.001318589364462261
0.001318589364475014
0.001318589364445737
0.001318589364468095
0.001318589364485187
0.001318589364445367
0.001318589364471621
0.00131858936448612
0.001318589364463513
0.001318589364464223
0.001318589364460967
0.001318589364457206
0.001318589364450271
0.001318589364463322
0.001318589364480654
0.001318589364453521
0.001318589364469605
0.001318589364480801
0.001318589364449387
0.001318589364472778
0.001318589364487432
0.00131858936444937
0.001318589364469858
0.001318589364485133
0.001318589364471184
0.001318589364465337
0.001318589364468097
0.001318589364470625
0.001318589364446538
0.001318589364472911
0.001318589364488851
0.001318589364454517
0.001318589364470677
0.00131858936448564
0.001318589364469989
0.001318589364471883
0.001318589364472939
0.001318589364472503
0.001318589364447044
0.001318589364468476
0.00131858936448079
0.001318589364448933
0.00131858936445018
0.001318589364450923
0.001318589364450162
0.001318589364426303
0.001318589364446942
0.001318589364471706
0.001530487928745523
0.001530487928743324
0.001530487928740652
0.001530487928719045
0.001530487928728981
0.001530487928745953
0.001530487928713674
0.001530487928743941
0.001530487928769563
0.001530487928718601
0.001530487928738829
0.00153048792875227
0.00153048792871706
0.001530487928745449
0.001530487928767541
0.001530487928717199
0.001530487928750929
0.00153048792876728
0.001530487928734088
0.001530487928741664
0.001530487928743795
0.001530487928732984
0.001530487928723885
0.001530487928739835
0.001530487928760751
0.001530487928729511
0.001530487928748876
0.001530487928760703
0.001530487928722659
0.001530487928752627
0.001530487928770673
0.001530487928722685
0.001530487928748592
0.001530487928767994
0.001530487928748639
0.001530487928742818
0.001530487928745714
0.001530487928747597
0.001530487928719159
0.001530487928753499
0.001530487928773401
0.001530487928730185
0.001530487928751632
0.001530487928773124
0.001530487928754612
0.001530487928754547
0.001530487928751857
0.00153048792875157
0.001530487928722392
0.001530487928750697
0.001530487928767075
0.00153048792872783
0.001530487928725515
0.001530487928721654
0.001530487928722705
0.001530487928696418
0.001530487928721649
0.001530487928752755
0.001751467495591328
0.001751467495584771
0.001751467495584986
0.001751467495552588
0.001751467495565083
0.00175146749558062
0.001751467495546111
0.0017514674955822
0.001751467495613008
0.001751467495551917
0.001751467495576931
0.001751467495590131
0.001751467495550132
0.001751467495584599
0.001751467495610265
0.001751467495552245
0.00175146749559239
0.001751467495608809
0.001751467495567931
0.001751467495579944
0.001751467495586079
0.001751467495570815
0.001751467495559932
0.001751467495577991
0.00175146749560085
0.001751467495568758
0.001751467495589919
0.001751467495600754
0.001751467495558446
0.0017514674955946
0.00175146749561437
0.001751467495557892
0.001751467495588709
0.00175146749561063
0.001751467495586246
0.001751467495577578
0.001751467495581598
0.00175146749558606
0.001751467495553866
0.001751467495595705
0.001751467495618294
0.001751467495567262
0.001751467495594299
0.00175146749562041
0.001751467495598775
0.001751467495596789
0.001751467495587924
0.001751467495589153
0.001751467495560281
0.001751467495595042
0.001751467495613466
0.001751467495566583
0.001751467495561647
0.001751467495556321
0.001751467495558997
0.001751467495529767
0.001751467495558588
0.001751467495595522
0.001989559798037492
0.001989559798018656
0.001989559798019067
0.001989559797976514
0.001989559797989865
0.001989559798003103
0.001989559797968134
0.001989559798010032
0.00198955979804437
0.001989559797975185
0.001989559798004482
0.001989559798016654
0.001989559797973111
0.001989559798013302
0.001989559798041135
0.001989559797978347
0.001989559798023559
0.00198955979803846
0.001989559797991294
0.001989559798006947
0.001989559798016599
0.001989559797998237
0.001989559797986664
0.001989559798005262
0.001989559798028203
0.001989559797999336
0.001989559798020343
0.001989559798028496
0.001989559797985266
0.001989559798026683
0.001989559798046324
0.001989559797982879
0.001989559798017775
0.001989559798041618
0.001989559798012223
0.001989559798004603
0.001989559798008857
0.001989559798012532
0.001989559797978715
0.001989559798027177
0.001989559798051162
0.001989559797993376
0.001989559798026282
0.001989559798055715
0.001989559798031673
0.001989559798028632
0.001989559798015225
0.00198955979801738
0.001989559797989094
0.001989559798029268
0.001989559798047913
0.001989559797993809
0.001989559797987215
0.001989559797981716
0.001989559797985522
0.001989559797954375
0.001989559797984846
0.001989559798034599
0.002256066479376248
0.002256066479349892
0.002256066479350383
0.002256066479296704
0.002256066479308386
0.002256066479318807
0.002256066479285466
0.002256066479333004
0.002256066479369418
0.002256066479294334
0.002256066479327341
0.002256066479337921
0.002256066479292165
0.002256066479337268
0.00225606647936604
0.002256066479301265
0.002256066479349932
0.002256066479361934
0.002256066479309251
0.002256066479328576
0.002256066479342023
0.002256066479320973
0.002256066479310275
0.002256066479327361
0.002256066479347682
0.002256066479325571
0.002256066479344892
0.002256066479349444
0.002256066479309224
0.002256066479354719
0.002256066479372482
0.002256066479303764
0.002256066479341361
0.002256066479364943
0.002256066479332199
0.002256066479329574
0.002256066479332977
0.002256066479333166
0.002256066479299901
0.002256066479353707
0.002256066479377711
0.002256066479314119
0.002256066479353188
0.002256066479385027
0.002256066479359155
0.002256066479355736
0.002256066479337985
0.002256066479340756
0.00225606647931539
0.002256066479359364
0.002256066479376229
0.002256066479317531
0.002256066479312902
0.00225606647930685
0.002256066479308562
0.002256066479276388
0.002256066479305446
0.002256066479365915
0.00256420095453226
0.002564200954495775
0.002564200954497095
0.002564200954437602
0.002564200954444069
0.002564200954451494
0.002564200954422976
0.002564200954475759
0.002564200954512934
0.002564200954432776
0.002564200954469381
0.002564200954479144
0.002564200954432768
0.002564200954481357
0.00256420095450993
0.002564200954445775
0.002564200954496082
0.002564200954504035
0.002564200954446317
0.002564200954469847
0.00256420095448873
0.00256420095446418
0.002564200954456597
0.002564200954469711
0.002564200954482535
0.002564200954470407
0.002564200954487317
0.002564200954488209
0.002564200954454435
0.002564200954503072
0.002564200954517982
0.002564200954446377
0.0025642009544842
0.002564200954505089
0.002564200954469457
0.002564200954468386
0.002564200954472481
0.002564200954472196
0.002564200954442204
0.002564200954499964
0.002564200954522644
0.002564200954454217
0.002564200954499636
0.002564200954533432
0.00256420095450574
0.002564200954501557
0.002564200954480352
0.002564200954483386
0.002564200954463827
0.002564200954509919
0.002564200954523491
0.002564200954462788
0.002564200954461883
0.002564200954457983
0.002564200954456243
0.002564200954421652
0.002564200954447212
0.0025642009545157
0.002926434822840443
0.002926434822793229
0.002926434822794609
0.002926434822733347
0.00292643482272906
0.002926434822733933
0.002926434822716213
0.002926434822773537
0.002926434822810269
0.002926434822724322
0.002926434822764779
0.002926434822776153
0.002926434822731292
0.002926434822781203
0.002926434822808125
0.002926434822746583
0.002926434822796951
0.002926434822800271
0.002926434822737924
0.002926434822766222
0.002926434822792051
0.002926434822762619
0.00292643482276483
0.002926434822769937
0.002926434822766292
0.002926434822766776
0.002926434822781533
0.002926434822780234
0.002926434822755137
0.002926434822806433
0.002926434822818608
0.00292643482274829
0.002926434822782423
0.002926434822797861
0.002926434822758895
0.002926434822754195
0.002926434822761168
0.002926434822763419
0.002926434822740463
0.002926434822800996
0.002926434822821023
0.002926434822748991
0.002926434822800591
0.002926434822836227
0.00292643482280696
0.002926434822800745
0.002926434822777475
0.00292643482277969
0.002926434822769448
0.002926434822816118
0.002926434822826675
0.002926434822765113
0.002926434822768244
0.002926434822763659
0.002926434822757647
0.002926434822727629
0.002926434822748043
0.002926434822819349
0.003350917292069243
0.003350917292013277
0.003350917292015134
0.00335091729194705
0.003350917291940587
0.003350917291949215
0.003350917291934958
0.0033509172919958
0.003350917292031128
0.003350917291938147
0.003350917291982485
0.003350917291998788
0.003350917291958192
0.00335091729200673
0.003350917292029671
0.003350917291970918
0.003350917292020905
0.003350917292020478
0.003350917291953972
0.003350917291986851
0.003350917292018883
0.003350917291983656
0.003350917291995178
0.003350917292003739
0.003350917291984979
0.003350917291985216
0.003350917291995933
0.003350917291994952
0.003350917291978912
0.003350917292033101
0.003350917292043958
0.003350917291980073
0.003350917292005871
0.003350917292013095
0.003350917291970437
0.003350917291971442
0.003350917291980953
0.003350917291972989
0.003350917291962244
0.003350917292025777
0.00335091729204165
0.00335091729196776
0.003350917292024755
0.003350917292062253
0.003350917292032349
0.003350917292022865
0.003350917291999646
0.003350917291997728
0.003350917292000152
0.003350917292046779
0.003350917292054527
0.003350917291996541
0.003350917292004256
0.00335091729199441
0.003350917291982886
0.00335091729196671
0.003350917291982104
0.003350917292045928
0.003838112747168076
0.003838112747112054
0.003838112747114662
0.003838112747042766
0.003838112747038024
0.003838112747046863
0.003838112747029963
0.003838112747093192
0.003838112747126685
0.00383811274702809
0.003838112747074882
0.003838112747097493
0.003838112747062475
0.003838112747107688
0.003838112747124213
0.003838112747064505
0.003838112747115843
0.003838112747115529
0.003838112747045463
0.003838112747081652
0.003838112747116178
0.003838112747061884
0.003838112747089532
0.003838112747109085
0.003838112747071969
0.00383811274707286
0.003838112747077747
0.003838112747078273
0.003838112747073929
0.003838112747131943
0.003838112747143592
0.003838112747087144
0.003838112747098353
0.003838112747099313
0.003838112747068882
0.003838112747072432
0.003838112747075192
0.003838112747044442
0.003838112747051732
0.003838112747123559
0.003838112747133823
0.003838112747060734
0.003838112747121631
0.003838112747160491
0.003838112747131095
0.00383811274712045
0.003838112747105713
0.003838112747086815
0.003838112747099989
0.003838112747150759
0.003838112747152706
0.003838112747086637
0.003838112747125032
0.003838112747136005
0.003838112747098348
0.003838112747092175
0.003838112747109029
0.003838112747147307
0.004379178112011968
0.004379178111961362
0.004379178111964837
0.004379178111898482
0.004379178111904051
0.004379178111907136
0.0043791781118792
0.004379178111943731
0.004379178111975438
0.004379178111875149
0.004379178111921966
0.00437917811194951
0.004379178111919528
0.004379178111960804
0.00437917811196893
0.004379178111900246
0.004379178111956498
0.004379178111963192
0.004379178111890464
0.004379178111928095
0.004379178111960182
0.004379178111890673
0.004379178111933143
0.004379178111960556
0.004379178111916828
0.004379178111913603
0.004379178111920073
0.004379178111922949
0.004379178111916667
0.004379178111979426
0.004379178111993332
0.004379178111936742
0.004379178111949173
0.004379178111950214
0.004379178111915724
0.004379178111925279
0.004379178111930782
0.004379178111877711
0.004379178111900153
0.004379178111969438
0.004379178111973402
0.00437917811190569
0.004379178111968383
0.004379178112007227
0.004379178111973532
0.004379178111972964
0.004379178111969848
0.004379178111931684
0.004379178111957362
0.004379178112001268
0.004379178111997823
0.004379178111933271
0.004379178111995449
0.004379178112023302
0.004379178111959437
0.004379178111981942
0.004379178112020408
0.00437917811200746
0.004957168639363168
0.004957168639330812
0.0049571686393316
0.004957168639250505
0.004957168639282329
0.004957168639296908
0.004957168639247845
0.004957168639312897
0.004957168639343393
0.004957168639243925
0.004957168639289323
0.004957168639319805
0.004957168639291176
0.00495716863932982
0.00495716863933054
0.004957168639247635
0.004957168639310375
0.004957168639328652
0.004957168639254435
0.004957168639292389
0.004957168639320367
0.004957168639240237
0.004957168639292323
0.00495716863932251
0.004957168639282924
0.004957168639267913
0.004957168639284385
0.004957168639295607
0.004957168639273894
0.004957168639341352
0.004957168639357745
0.004957168639288713
0.004957168639321182
0.004957168639332281
0.004957168639264997
0.004957168639288656
0.004957168639308759
0.004957168639237961
0.004957168639272753
0.004957168639324833
0.004957168639323347
0.004957168639269132
0.004957168639331115
0.004957168639368367
0.004957168639324371
0.004957168639356424
0.004957168639363835
0.00495716863929654
0.004957168639331993
0.004957168639352698
0.004957168639349742
0.004957168639305761
0.004957168639383802
0.004957168639423303
0.004957168639354991
0.004957168639388002
0.004957168639423847
0.004957168639364368
0.005550807832714279
0.005550807832672772
0.005550807832672242
0.005550807832595801
0.005550807832637988
0.005550807832658202
0.005550807832596678
0.005550807832661541
0.005550807832691643
0.005550807832594303
0.005550807832637858
0.005550807832669129
0.0055508078326355
0.005550807832674073
0.005550807832672488
0.005550807832578572
0.005550807832644378
0.005550807832672399
0.005550807832597339
0.005550807832635792
0.005550807832660765
0.005550807832576085
0.00555080783263046
0.005550807832656462
0.005550807832612485
0.005550807832589879
0.005550807832619438
0.005550807832640778
0.00555080783260963
0.00555080783268037
0.005550807832699454
0.005550807832618731
0.005550807832662965
0.005550807832683734
0.005550807832603694
0.005550807832637281
0.005550807832662837
0.005550807832584763
0.005550807832626283
0.005550807832647645
0.005550807832640763
0.005550807832613785
0.005550807832672054
0.00555080783270705
0.005550807832661575
0.005550807832709928
0.005550807832722411
0.005550807832645291
0.005550807832686023
0.005550807832696195
0.005550807832695248
0.005550807832662754
0.005550807832748197
0.005550807832799412
0.005550807832741141
0.005550807832770579
0.005550807832795749
0.005550807832718877
0.006139117669084974
0.006139117669023385
0.006139117669021483
0.006139117668957597
0.006139117669000065
0.006139117669021885
0.006139117668953537
0.006139117669016348
0.006139117669045749
0.00613911766895109
0.00613911766899289
0.0061391176690235
0.00613911766897985
0.006139117669020179
0.006139117669022028
0.006139117668925861
0.006139117668988314
0.006139117669020026
0.006139117668943752
0.006139117668983278
0.006139117669008035
0.006139117668924143
0.006139117668974401
0.006139117668996144
0.006139117668957581
0.00613911766893455
0.006139117668967279
0.006139117668991344
0.006139117668952104
0.00613911766902366
0.006139117669046011
0.006139117668963357
0.006139117669012327
0.0061391176690364
0.006139117668952455
0.006139117668991645
0.006139117669019264
0.006139117668943284
0.006139117668986997
0.006139117668997892
0.006139117668980479
0.006139117668967423
0.006139117669018319
0.006139117669048861
0.006139117669011334
0.006139117669065307
0.006139117669078237
0.006139117668999337
0.00613911766904423
0.006139117669055754
0.006139117669056152
0.006139117669027143
0.006139117669110209
0.006139117669174853
0.006139117669139962
0.006139117669155389
0.006139117669166473
0.006139117669092537
0.00670495003633
0.006704950036237072
0.006704950036233254
0.006704950036190599
0.00670495003622686
0.006704950036247752
0.006704950036177684
0.006704950036236059
0.006704950036264072
0.006704950036173852
0.006704950036213373
0.006704950036241777
0.006704950036187445
0.006704950036229224
0.006704950036237067
0.006704950036144055
0.006704950036199046
0.006704950036230814
0.006704950036155618
0.006704950036194864
0.006704950036219993
0.006704950036141936
0.006704950036182882
0.006704950036199126
0.006704950036174788
0.006704950036153889
0.006704950036183258
0.00670495003620776
0.006704950036161098
0.006704950036230492
0.00670495003625582
0.00670495003617622
0.006704950036225888
0.006704950036250555
0.006704950036167678
0.006704950036208809
0.006704950036236291
0.006704950036157404
0.00670495003620511
0.006704950036227631
0.006704950036194794
0.00670495003618898
0.006704950036229985
0.006704950036249794
0.006704950036229013
0.006704950036282534
0.006704950036292353
0.006704950036212992
0.006704950036261897
0.006704950036286968
0.00670495003628776
0.006704950036255429
0.00670495003632428
0.00670495003640342
0.006704950036406755
0.006704950036400315
0.006704950036391789
0.006704950036340026
0.007236471803088129
0.007236471802973084
0.007236471802962505
0.007236471802932232
0.007236471802957802
0.007236471802975439
0.007236471802908177
0.007236471802960122
0.007236471802986061
0.007236471802902011
0.007236471802938482
0.007236471802963921
0.007236471802901845
0.007236471802942997
0.007236471802956352
0.007236471802869407
0.007236471802915063
0.007236471802945082
0.007236471802873759
0.007236471802910349
0.00723647180293515
0.00723647180286817
0.00723647180289629
0.007236471802910043
0.00723647180289903
0.007236471802877146
0.007236471802904967
0.00723647180292922
0.0072364718028768
0.007236471802941185
0.007236471802968407
0.007236471802894256
0.00723647180294217
0.007236471802966436
0.007236471802887868
0.007236471802928177
0.007236471802954773
0.007236471802878928
0.007236471802926757
0.007236471802955975
0.007236471802902468
0.007236471802917158
0.007236471802950136
0.007236471802946235
0.007236471802949204
0.00723647180300077
0.007236471803005764
0.007236471802931555
0.007236471802980573
0.007236471803025482
0.007236471803027046
0.007236471802986657
0.007236471803033615
0.007236471803138123
0.00723647180316188
0.007236471803146687
0.007236471803136923
0.007236471803099767
0.007726860811994528
0.007726860811861224
0.007726860811838805
0.007726860811817613
0.007726860811829975
0.007726860811841386
0.007726860811780866
0.007726860811825165
0.007726860811848461
0.007726860811771884
0.007726860811804538
0.007726860811826898
0.007726860811761774
0.007726860811799496
0.007726860811816172
0.007726860811737067
0.007726860811772851
0.007726860811800049
0.00772686081173511
0.007726860811766585
0.007726860811789171
0.007726860811739013
0.00772686081175232
0.007726860811769039
0.007726860811768392
0.007726860811740836
0.007726860811768058
0.007726860811791048
0.00772686081173619
0.007726860811793336
0.00772686081182087
0.007726860811753398
0.007726860811797889
0.007726860811821288
0.007726860811749149
0.007726860811786709
0.007726860811811919
0.00772686081174207
0.007726860811786797
0.007726860811816208
0.007726860811757561
0.007726860811782151
0.007726860811817785
0.007726860811788954
0.007726860811801808
0.007726860811854335
0.00772686081185516
0.007726860811789815
0.007726860811833379
0.007726860811899269
0.00772686081190464
0.007726860811858065
0.007726860811891602
0.007726860812009751
0.00772686081205943
0.007726860812049914
0.007726860812034921
0.007726860812008128
0.008173052311368011
0.008173052311219434
0.008173052311179452
0.008173052311165887
0.00817305231116486
0.008173052311165462
0.008173052311115519
0.008173052311151657
0.00817305231117189
0.008173052311103591
0.008173052311131796
0.008173052311151209
0.0081730523110882
0.008173052311119903
0.008173052311136889
0.008173052311066895
0.008173052311092907
0.008173052311116402
0.008173052311059905
0.00817305231108444
0.008173052311101398
0.008173052311074463
0.008173052311071771
0.008173052311094579
0.008173052311103908
0.008173052311065687
0.008173052311091705
0.008173052311112896
0.008173052311059676
0.008173052311108193
0.008173052311134205
0.008173052311074097
0.00817305231111398
0.008173052311136068
0.008173052311071622
0.008173052311105222
0.008173052311128593
0.008173052311066104
0.008173052311105863
0.008173052311133215
0.008173052311076668
0.008173052311104474
0.008173052311138143
0.008173052311100293
0.008173052311119432
0.008173052311159572
0.00817305231115893
0.008173052311108122
0.008173052311142721
0.008173052311217666
0.008173052311230257
0.00817305231118988
0.008173052311221144
0.008173052311338627
0.008173052311417808
0.00817305231142494
0.008173052311407344
0.008173052311387501
0.008574318568986846
0.008574318568822079
0.00857431856875983
0.00857431856874123
0.008574318568727972
0.008574318568726575
0.008574318568691874
0.008574318568719735
0.00857431856873656
0.008574318568676928
0.008574318568700265
0.008574318568716736
0.008574318568658937
0.008574318568683301
0.008574318568698546
0.008574318568638797
0.008574318568655405
0.008574318568674178
0.008574318568627823
0.008574318568644693
0.008574318568653016
0.008574318568639407
0.008574318568632108
0.008574318568657018
0.008574318568671659
0.008574318568631662
0.008574318568655551
0.008574318568674626
0.008574318568625588
0.008574318568665392
0.008574318568688889
0.008574318568636429
0.008574318568670952
0.008574318568691267
0.008574318568635105
0.008574318568664112
0.008574318568685232
0.008574318568630657
0.00857431856866462
0.008574318568689071
0.008574318568637955
0.008574318568665125
0.008574318568695229
0.008574318568656203
0.008574318568677358
0.008574318568707622
0.008574318568706786