/*--------------------------------*- C++ -*----------------------------------*\
| =========                 |                                                 |
| \\      /  F ield         | OpenFOAM: The Open Source CFD Toolbox           |
|  \\    /   O peration     | Version:  v1812                                 |
|   \\  /    A nd           | Web:      www.OpenFOAM.com                      |
|    \\/     M anipulation  |                                                 |
\*---------------------------------------------------------------------------*/
FoamFile
{
    version     2.0;
    format      ascii;
    class       volVectorField;
    location    "10000";
    object      wallShearStress;
}
// * * * * * * * * * * * * * * * * * * * * * * * * * * * * * * * * * * * * * //

dimensions      [0 2 -2 0 0 0 0];


internalField   uniform (0 0 0);

boundaryField
{
    inlet
    {
        type            cyclic;
    }
    outlet
    {
        type            cyclic;
    }
    bottomWall
    {
        type            calculated;
        value           nonuniform List<vector> 
58
(
(-0.002719425434590041 -5.811539705878815e-16 1.535892718240002e-08)
(-0.002719425434616098 -3.170038161266862e-16 1.53591900874018e-08)
(-0.002719425434577706 9.821241580713656e-16 1.535871055952423e-08)
(-0.002719425434660628 1.238871861753108e-16 1.535919199123231e-08)
(-0.002719425434605121 3.704796878518962e-16 1.535868514995432e-08)
(-0.002719425434673651 1.499833260796427e-17 1.535920060033291e-08)
(-0.00271942543461989 2.736542293237046e-16 1.535866884648171e-08)
(-0.002719425434678418 -1.801831850861231e-16 1.535919195133511e-08)
(-0.002719425434624021 2.570841526549395e-16 1.535867269463893e-08)
(-0.00271942543468426 -4.524752460016415e-17 1.535916645886399e-08)
(-0.002719425434631827 5.626174360811497e-17 1.535869054482966e-08)
(-0.002719425434679196 4.068380533117884e-17 1.535913176135921e-08)
(-0.002719425434638384 7.408590289595691e-17 1.535871470141103e-08)
(-0.002719425434677125 -1.127359127028697e-16 1.535909433040133e-08)
(-0.002719425434639593 1.742530289689156e-16 1.535873973116094e-08)
(-0.002719425434681021 -2.879984856842202e-17 1.535905809390302e-08)
(-0.002719425434643798 -8.526819405575642e-17 1.535876257132962e-08)
(-0.002719425434672343 5.575204160039136e-17 1.535902491714978e-08)
(-0.00271942543464861 4.278398951126126e-17 1.535878180443632e-08)
(-0.002719425434671774 -1.479708883176589e-17 1.535899535197096e-08)
(-0.002719425434650911 6.9418598169588e-17 1.535879696252009e-08)
(-0.002719425434674055 -3.023114810884327e-17 1.5358969218262e-08)
(-0.002719425434652252 -2.424774119226279e-17 1.535880804706485e-08)
(-0.002719425434670657 -7.729032661970241e-17 1.535894597098976e-08)
(-0.002719425434648724 1.556588924486017e-17 1.535881524127217e-08)
(-0.002719425434667677 4.792111988654755e-17 1.535892490678018e-08)
(-0.002719425434653709 2.61914982092123e-17 1.535881875339944e-08)
(-0.002719425434667224 -1.369585995834494e-17 1.53589052707305e-08)
(-0.002719425434653189 -1.135980885444959e-16 1.535881873970104e-08)
(-0.002719425434658257 -1.713218039780008e-16 1.535888630881992e-08)
(-0.002719425434642962 8.980653854042019e-17 1.535881527596873e-08)
(-0.002719425434655375 -1.216752923214472e-16 1.535886729432008e-08)
(-0.002719425434640292 -7.999869068278528e-17 1.535880835860873e-08)
(-0.002719425434647607 9.662084335896711e-17 1.535884754925829e-08)
(-0.002719425434643771 1.621523139534057e-17 1.535879793054931e-08)
(-0.002719425434647232 -8.049113051152303e-17 1.535882647486552e-08)
(-0.002719425434639817 -3.200837770888136e-17 1.535878393282668e-08)
(-0.002719425434643251 -1.108979890027405e-17 1.53588036048536e-08)
(-0.002719425434636067 -6.489944490453682e-17 1.535876638841797e-08)
(-0.002719425434639031 -1.197307000794471e-16 1.535877869378167e-08)
(-0.002719425434627549 9.352219404391204e-18 1.535874552707992e-08)
(-0.002719425434632275 -1.334947717084645e-16 1.535875185176821e-08)
(-0.002719425434620409 -1.9143855566542e-16 1.535872195796831e-08)
(-0.002719425434619983 3.376944878877522e-17 1.535872372602776e-08)
(-0.00271942543461692 -1.903312899948829e-17 1.535869687905287e-08)
(-0.002719425434614885 -1.152044665156649e-16 1.535869570467311e-08)
(-0.002719425434610845 -3.141073979530859e-17 1.535867227750107e-08)
(-0.002719425434607039 -9.646643598202641e-17 1.535867006589418e-08)
(-0.002719425434601818 -1.081803590170914e-16 1.535865100743678e-08)
(-0.002719425434597092 -1.226168969202388e-16 1.535864992094441e-08)
(-0.002719425434594899 9.719518761199551e-17 1.535863655778197e-08)
(-0.002719425434595097 -1.319684292367964e-16 1.535863873027698e-08)
(-0.002719425434587492 -1.804412187628954e-16 1.535863223927202e-08)
(-0.002719425434582719 -1.239429447672596e-16 1.535863908453213e-08)
(-0.002719425434577641 -1.678779488098239e-16 1.535863971174284e-08)
(-0.002719425434573695 -2.413608785417412e-16 1.535864579621542e-08)
(-0.002719425434556532 -6.003593619790457e-16 1.535862852075048e-08)
(-0.002719425434593861 1.86990913534346e-15 1.535865672395364e-08)
)
;
    }
    topWall
    {
        type            calculated;
        value           nonuniform List<vector> 
58
(
(0.002719422091675852 3.637821074861923e-15 1.528961733126692e-08)
(0.002719422091747608 -2.804978102002533e-15 1.528958679563249e-08)
(0.00271942209166644 7.446215676824751e-16 1.528961879771795e-08)
(0.002719422091691005 -6.984945944171706e-16 1.528965523781467e-08)
(0.002719422091665553 3.700545893171329e-17 1.528969716188094e-08)
(0.002719422091670843 -1.285601145375958e-16 1.528972642697534e-08)
(0.002719422091665776 4.393644954373426e-17 1.528976063645339e-08)
(0.002719422091666083 -2.28769997888772e-16 1.528978156922552e-08)
(0.002719422091659424 1.165035952698972e-17 1.52898116300286e-08)
(0.002719422091665183 2.944075760426618e-17 1.528982723502911e-08)
(0.002719422091660207 -7.457083015631393e-17 1.528985567174735e-08)
(0.002719422091663723 5.716444631322588e-17 1.528986677666495e-08)
(0.002719422091662869 -3.732770673257055e-17 1.528989439104711e-08)
(0.002719422091662648 -6.726762926231693e-17 1.52899005168566e-08)
(0.00271942209166011 5.280510827291126e-17 1.528992751956783e-08)
(0.002719422091666511 7.342254661122411e-17 1.528992778602991e-08)
(0.002719422091664921 -2.053391264308796e-17 1.528995448121889e-08)
(0.002719422091667964 1.055779404032746e-16 1.528994799573948e-08)
(0.002719422091668925 7.434108622889389e-18 1.528997503909435e-08)
(0.002719422091670714 -1.148284051573481e-16 1.52899609615409e-08)
(0.00271942209166492 7.207085449623165e-17 1.528998941379619e-08)
(0.002719422091674765 6.61375513388791e-17 1.528996687923511e-08)
(0.00271942209166858 -5.012585773979796e-17 1.528999819105505e-08)
(0.002719422091674126 5.923814511713962e-17 1.528996618864263e-08)
(0.002719422091670388 -1.31073971311589e-17 1.529000218861868e-08)
(0.00271942209167431 -8.403060145576475e-17 1.528995943607996e-08)
(0.002719422091667144 8.091046585762365e-17 1.529000234368695e-08)
(0.002719422091678209 5.172801281140151e-17 1.528994716835247e-08)
(0.002719422091668938 -1.278384955110651e-16 1.528999963825509e-08)
(0.002719422091675482 1.1423647494443e-16 1.52899298632798e-08)
(0.002719422091670807 -1.56549964463265e-17 1.52899950553615e-08)
(0.002719422091677717 -1.168208473757519e-16 1.528990789100562e-08)
(0.002719422091663206 7.990816784519207e-17 1.528998955628219e-08)
(0.002719422091678474 -1.870151181642163e-18 1.528988149949323e-08)
(0.002719422091661504 -1.248280953122397e-16 1.528998406519413e-08)
(0.002719422091676208 1.07672939323037e-16 1.52898508240913e-08)
(0.002719422091658633 -6.812608824518839e-17 1.528997944693407e-08)
(0.002719422091671603 -1.912828477307712e-16 1.528981592793275e-08)
(0.002719422091647783 -9.199105170841692e-17 1.528997645816729e-08)
(0.002719422091670102 7.321232853710605e-17 1.528977688864117e-08)
(0.002719422091647745 -5.084396851684654e-17 1.528997564182675e-08)
(0.002719422091671306 5.237110744572133e-17 1.528973396610768e-08)
(0.002719422091645502 -6.319863442233371e-17 1.528997712088045e-08)
(0.002719422091668748 -1.404872896458054e-16 1.528968789781252e-08)
(0.002719422091633008 -3.451070175026107e-17 1.528998023020376e-08)
(0.002719422091669076 7.165652870660725e-17 1.528964038844218e-08)
(0.002719422091628377 -2.069045230301442e-16 1.528998293373279e-08)
(0.002719422091666767 4.311707356782702e-17 1.528959481877233e-08)
(0.002719422091620197 -2.152003830972954e-16 1.528998105291979e-08)
(0.002719422091664864 2.256379389102846e-16 1.528955703301354e-08)
(0.002719422091618675 -3.017102910202729e-16 1.528996763318914e-08)
(0.002719422091663013 1.228577872730112e-16 1.528953562981357e-08)
(0.002719422091608007 -3.730000403039342e-16 1.528993328246342e-08)
(0.002719422091661893 4.838671681678987e-16 1.528954081900634e-08)
(0.002719422091604691 -9.186805597377316e-16 1.528987248789562e-08)
(0.00271942209164281 9.525669633547166e-16 1.528957814560222e-08)
(0.002719422091610336 -1.976408270668967e-15 1.528974298904461e-08)
(0.002719422091585803 1.889085024109456e-15 1.528974813955088e-08)
)
;
    }
    left
    {
        type            cyclic;
    }
    right
    {
        type            cyclic;
    }
}


// ************************************************************************* //
