/*--------------------------------*- C++ -*----------------------------------*\
| =========                 |                                                 |
| \\      /  F ield         | OpenFOAM: The Open Source CFD Toolbox           |
|  \\    /   O peration     | Version:  v1812                                 |
|   \\  /    A nd           | Web:      www.OpenFOAM.com                      |
|    \\/     M anipulation  |                                                 |
\*---------------------------------------------------------------------------*/
FoamFile
{
    version     2.0;
    format      ascii;
    class       volScalarField;
    location    "0";
    object      nut;
}
// * * * * * * * * * * * * * * * * * * * * * * * * * * * * * * * * * * * * * //

dimensions      [0 2 -1 0 0 0 0];


internalField   nonuniform List<scalar> 
924
(
7.696710985907032e-08
9.021605985832388e-08
4.207445534401493e-08
1.746238917286122e-07
4.211187810487137e-07
3.262275974609438e-08
1.488810235699949e-08
1.539098742140363e-07
3.990892689740894e-08
1.244485917108635e-08
3.086157936072092e-08
5.351136036758246e-08
2.059434696388877e-06
5.530069130960319e-08
1.910770992445815e-07
1.09280782387204e-07
8.99786298784935e-08
1.057276539735864e-06
2.685808881433435e-08
2.924671808247441e-08
9.604998374671628e-08
6.236220712592742e-08
2.392373014603233e-07
2.282896765024976e-07
1.718241385497392e-07
7.689443806338423e-08
7.59527488795985e-09
1.580796422870344e-08
1.619091910082627e-08
8.195520170127758e-08
4.948594120904982e-08
8.436236212449483e-09
0.0001
0.0001
0.0001
0.0001
0.0001
0.0001
0.0001
0.0001
0.0001
0.0001
0.0001
0.0001
6.946034771539416e-07
8.733124285513406e-07
5.316353310266748e-08
2.979318574813297e-07
5.451858764294547e-06
1.910581376321193e-07
1.759773176642251e-07
7.134396874049718e-07
4.132224711381284e-07
3.953483518304158e-07
3.460056405231516e-07
6.330007813742309e-07
1.328101069639212e-05
3.159820096906724e-06
4.566222941495016e-06
3.840547048804062e-06
5.742985767968404e-07
6.934606702591859e-06
1.449907564917346e-07
7.12145639291558e-07
2.064132085855737e-06
1.225978094924978e-06
1.473649724769054e-06
1.821808018441924e-06
1.324410603527927e-06
1.293633555465521e-06
9.719012246676654e-08
2.206775640569552e-07
1.020559725626218e-06
9.481982473781772e-07
2.454415004909392e-07
2.302589695103044e-07
0.0001
0.0001
0.0001
0.0001
0.0001
0.0001
0.0001
0.0001
0.0001
0.0001
0.0001
0.0001
1.578267352505686e-06
4.501628737121762e-06
2.413379144433911e-07
1.154509553781627e-06
2.104000331307651e-06
1.21360858549017e-06
1.227494435243938e-06
1.15811633188542e-06
1.200950169518036e-06
2.356235595544944e-06
5.258291965473888e-06
2.824093885105123e-06
2.308626441091036e-05
2.401449315162441e-05
2.183932396124645e-05
1.69365743403655e-05
5.189618239341248e-06
1.032110678100903e-05
2.298450350290795e-06
6.239908164448546e-06
1.029024195997418e-05
6.762158997834577e-06
9.848069972096798e-06
8.491121811518711e-06
6.82074210797598e-06
2.051669699794096e-06
1.904130989037435e-06
5.864200309386509e-07
1.047010744585675e-05
8.904563902303521e-06
1.033757562482654e-06
1.725574777332778e-06
0.0001
0.0001
0.0001
0.0001
0.0001
0.0001
0.0001
0.0001
0.0001
0.0001
0.0001
0.0001
1.332855190911078e-06
1.156783189716348e-05
1.64584945786576e-06
2.222425338314126e-06
1.529526301015732e-06
9.191936866251873e-06
5.43928055870177e-06
9.431317762653276e-06
5.685800588879107e-06
2.867335012722049e-06
1.774503822560618e-05
7.44881916317344e-06
6.545637136439058e-05
1.897730773447599e-05
6.999378317471334e-06
5.941174220943602e-06
6.357783756372969e-06
1.944334880091755e-05
1.226237306731124e-05
3.039249595811463e-05
1.468565106032424e-05
1.448294023641775e-05
3.336008085357106e-06
2.085402144320248e-05
1.985824631519484e-05
7.004617609854885e-06
1.150722496685049e-05
3.325579473620009e-07
3.00602210139957e-05
5.556928843053777e-05
2.016185761180948e-06
4.721510504983562e-06
0.0001
0.0001
0.0001
0.0001
0.0001
0.0001
0.0001
0.0001
0.0001
0.0001
0.0001
0.0001
4.093987373987176e-05
8.395831016575932e-06
7.898135183145204e-06
4.443999218936774e-06
1.171459401740328e-05
3.825006364672877e-05
7.179563045049209e-06
1.517108655698163e-05
2.983541582014823e-05
4.670508070392508e-06
4.950288102072353e-06
2.39059760961516e-05
0.0001543314738039124
4.242745155259088e-06
2.281381236816198e-05
2.180516338515566e-05
1.014988993576068e-05
5.430724721548297e-06
4.307548677983224e-05
0.0001223706867724486
1.245788401397413e-05
7.393640387648956e-05
3.845723836678382e-05
8.709988008141605e-06
1.896074308468481e-05
9.021105073119749e-06
1.117053364333775e-05
1.083081258434291e-05
7.059713981917606e-06
7.29279760060978e-05
8.727538340816379e-06
1.876317022549423e-05
0.0001
0.0001
0.0001
0.0001
0.0001
0.0001
0.0001
0.0001
0.0001
0.0001
0.0001
0.0001
4.144657328151758e-05
1.23074827615533e-05
1.878510531822636e-06
8.851112264307114e-06
9.275277982341459e-06
7.610320395466726e-05
8.994388417433741e-06
3.46447368521743e-06
2.185211796592875e-05
6.927623579065895e-06
7.457008782948375e-06
5.347142753292663e-05
5.156938870277076e-05
2.696229487453914e-05
6.76957069261839e-05
1.278111046147359e-05
4.935906007444038e-05
1.240511811476387e-05
1.62606497722324e-05
0.0001217644589525364
2.401413867065505e-06
7.244261843018976e-06
0.0001003918385084446
8.618930261598359e-06
4.156058434970388e-05
9.759324784167301e-06
1.115789013792484e-05
1.381463052403471e-05
8.141564133889637e-06
8.070853892739085e-06
2.728689371729147e-05
6.81055843910909e-06
0.0001
0.0001
0.0001
0.0001
0.0001
0.0001
0.0001
0.0001
0.0001
0.0001
0.0001
0.0001
2.166653244998979e-05
3.483581901946539e-05
1.099723981723306e-06
2.145615829437271e-06
9.701623642608903e-06
1.405170295358325e-05
6.12585670263538e-06
7.002793470429364e-06
1.486748938521579e-05
1.57841856980899e-05
4.331836640145036e-06
5.890412513434805e-06
1.037437946424728e-05
1.429583599318223e-05
9.574867576167788e-06
2.859368040554441e-05
7.233704751573736e-06
0.0001111237880629004
2.578493181476799e-05
1.292334105861384e-05
2.510239502226027e-05
1.612218643355887e-05
5.066758843925846e-05
1.259674301598579e-05
3.572920036097193e-05
4.662938076466225e-05
1.158399880541726e-05
7.433051635022851e-06
5.650040354461083e-06
9.020823046712908e-06
1.214293933618382e-05
6.80788429705055e-06
0.0001
0.0001
0.0001
0.0001
0.0001
0.0001
0.0001
0.0001
0.0001
0.0001
0.0001
0.0001
5.462148845414548e-06
4.624020669554304e-05
5.679476674429625e-06
3.714363663916774e-05
2.183775460643979e-05
1.085078260312761e-05
3.762086310513411e-06
6.039970981159963e-06
7.713462636170688e-06
3.657012407123236e-05
2.750003564617459e-06
5.023382392308895e-06
3.879444003116972e-06
9.668533052108495e-06
5.129813514769298e-06
7.411349236286616e-07
4.117627374709025e-06
1.545041496129494e-05
1.096491311337076e-05
2.945087101207361e-05
0.0001023838349183546
6.939665745746814e-05
6.764622495580276e-06
5.098265845166269e-05
3.596279098890138e-05
5.074234859400828e-06
8.202378765722805e-06
4.487956519705285e-06
2.712274408404885e-06
4.446396886584966e-05
9.419529842060836e-06
5.035898282671473e-06
0.0001
0.0001
0.0001
0.0001
0.0001
0.0001
0.0001
0.0001
0.0001
0.0001
0.0001
0.0001
1.012378433560622e-05
2.749559663859473e-05
2.554450876552079e-05
2.159792573648949e-05
9.527000894552748e-06
1.333084203143668e-05
1.632071849335434e-06
2.615664519285074e-06
1.220101715892212e-05
5.539481017688524e-06
1.57276763582325e-05
7.258715204843505e-06
4.051541180248337e-06
3.535226148861596e-06
1.440024451381506e-06
2.816008283706198e-06
2.817500089292811e-06
1.700141789323838e-06
2.855749275434913e-06
1.608852278026272e-06
7.544426767630619e-06
3.523339617608554e-05
2.787678007349005e-05
1.036959854049491e-05
3.923224408357361e-06
1.972364537180994e-06
2.812810165487691e-06
1.557133671036103e-06
8.013418883948386e-06
8.77243885372166e-06
1.373388818548575e-05
1.561955364818616e-05
0.0001
0.0001
0.0001
0.0001
0.0001
0.0001
0.0001
0.0001
0.0001
0.0001
0.0001
0.0001
7.266347148909034e-06
9.123965774447782e-06
7.319477115200195e-05
1.668763644880229e-05
9.375510392380707e-06
5.916026884302183e-06
2.883998729440071e-06
4.500083262878966e-06
4.522600033621483e-06
1.062522730027492e-05
4.601075065774291e-06
9.417019890318776e-06
2.059838568174773e-05
4.635447993415573e-05
3.221366658149067e-06
1.910923542974068e-06
9.039420483420065e-06
1.435161579970007e-05
2.01805726890481e-06
5.013851154438141e-06
3.04263362396369e-06
6.265255237144002e-06
3.894751024817971e-06
1.088818083511422e-05
8.631002040489818e-06
3.884634591618918e-06
8.964133292456761e-06
1.543176147131533e-06
4.130567674172803e-06
6.083687291207646e-06
1.184732287172024e-05
1.310665551249458e-05
0.0001
0.0001
0.0001
0.0001
0.0001
0.0001
0.0001
0.0001
0.0001
0.0001
0.0001
0.0001
5.005187013349668e-06
4.971594940872301e-06
1.728820653081104e-05
3.759831904423752e-06
4.208108287753245e-06
8.442815437228628e-06
5.764217317391068e-06
3.480687267500421e-06
7.214830214842303e-06
4.142734770860085e-06
1.096621220242455e-05
3.467650628228767e-07
3.125525248422548e-06
5.252584996490021e-06
5.019988549852932e-06
3.087072544008869e-06
1.452403592794992e-05
9.844024003749876e-06
5.270531742219786e-06
5.900326786216361e-06
5.039925820245833e-05
2.186117320465077e-05
3.124985465278246e-06
6.802249049090076e-06
2.146311895811249e-05
1.683321989946548e-05
2.71768443894784e-06
3.650715007087882e-06
3.024622521146752e-06
4.515375577255425e-06
3.669288179245426e-05
6.076597689534983e-06
0.0001
0.0001
0.0001
0.0001
0.0001
0.0001
0.0001
0.0001
0.0001
0.0001
0.0001
0.0001
7.04951275201266e-06
4.663941334646322e-06
2.616402117332945e-06
4.646996405929425e-06
2.785082487959811e-06
3.153461987624725e-06
1.085399867577091e-05
1.092193276217802e-05
7.292582603730704e-06
3.245370648930465e-06
8.780794503975016e-06
2.627196285187024e-06
3.854968191116186e-06
1.309522445693307e-05
1.372017485473956e-05
6.288194589372184e-06
2.664675182314055e-06
1.17455077176988e-05
3.775355477803616e-05
1.13387825440987e-05
4.404012348516662e-06
2.571072607859391e-06
1.906789838832718e-05
1.980477898925156e-05
5.734837132386982e-06
5.790125379165423e-06
5.656872702473294e-05
4.224621237268387e-06
4.301500872085036e-06
4.735437205392601e-05
6.312352408493306e-06
1.661089576650258e-05
0.0001
0.0001
0.0001
0.0001
0.0001
0.0001
0.0001
0.0001
0.0001
0.0001
0.0001
0.0001
5.442802699706814e-06
6.473983951198832e-06
3.606066532829769e-06
3.100998697194484e-05
2.695917694470701e-05
2.941301878441432e-06
6.159007212217166e-05
2.063765721179745e-05
2.833994429891362e-06
1.610406651267299e-05
6.61455635304625e-06
1.394675278094654e-06
2.594055923782777e-06
3.904521957949801e-05
7.434576784585072e-06
1.146902104301873e-06
1.610893769089863e-05
3.930860592175708e-06
7.490446074757937e-07
2.021957469782495e-05
4.567490855488238e-06
1.589673111135526e-05
4.635769191725261e-06
3.580021932789663e-06
5.587476186255426e-06
3.377784606433295e-06
4.426881388127584e-06
2.61295866207853e-05
2.781817395660322e-06
2.197708242998624e-05
5.193670003970056e-06
3.232444790144504e-05
0.0001
0.0001
0.0001
0.0001
0.0001
0.0001
0.0001
0.0001
0.0001
0.0001
0.0001
0.0001
6.0092176584634e-06
3.981419060072175e-05
3.817955448849559e-06
4.722305861706843e-06
1.364626134636076e-05
5.206343168542831e-05
3.035489728870566e-05
4.357842837257154e-06
2.980780705939501e-06
3.351555052086692e-05
5.141725412468813e-05
7.357025201167184e-07
3.711367894344663e-06
2.399742843043614e-05
1.642689834533727e-05
7.912930090646568e-06
1.670140690815243e-05
3.327813384084731e-06
4.950906388529436e-06
1.689250732319722e-05
6.207847872868051e-06
1.204212584641279e-05
1.126336124352526e-05
2.983715029745001e-05
8.743167706636675e-06
6.028876517119682e-06
1.033927070494977e-05
2.618375117435497e-06
5.995840561490992e-06
2.675235501078413e-06
1.305229628640197e-05
2.084725494126725e-05
0.0001
0.0001
0.0001
0.0001
0.0001
0.0001
0.0001
0.0001
0.0001
0.0001
0.0001
0.0001
3.99262063369452e-05
6.697138204885073e-05
3.709644822980469e-06
4.315348397797311e-06
1.991843703773403e-06
2.156986497458304e-05
3.316508900108626e-06
3.0585712514859e-06
1.074846048267283e-05
6.14910788975306e-06
7.760409072150718e-05
2.426609305723758e-06
4.70301013263522e-06
3.239341941400747e-06
6.046016563945658e-06
1.02809681958813e-05
7.598610442194554e-06
1.979733456408068e-05
2.098105815913773e-06
3.156306525418816e-06
2.097168867179699e-06
3.1538902983033e-06
2.283062169452443e-05
2.930215412434324e-05
2.08172610840768e-05
5.298575422081121e-06
1.635513826107244e-05
1.371131557357232e-05
4.781382181784633e-06
1.334763588525801e-05
1.799560945658126e-05
2.114679916207684e-05
0.0001
0.0001
0.0001
0.0001
0.0001
0.0001
0.0001
0.0001
0.0001
0.0001
0.0001
0.0001
0.0001049751275392267
2.03371016675398e-05
1.820109938230131e-05
2.687502086246858e-06
2.726556849513641e-06
1.585707342746221e-06
5.512245125749151e-06
8.310975676449396e-05
1.485119279397368e-05
6.097222169104004e-06
1.520981299691966e-05
6.899105600445621e-06
3.312189962033198e-06
6.881524719678041e-06
6.000561284677796e-06
1.815345660057096e-06
9.588578385570287e-06
1.091266049659088e-05
8.104909956951106e-06
2.551460162629202e-05
2.982427591758557e-05
8.532654161332298e-06
1.51995266109982e-05
1.644149330518302e-05
9.893815516887635e-06
3.95231031737382e-06
1.809445559978443e-06
1.171665140284688e-05
8.849475984344802e-06
1.921808947172027e-05
9.482730092384936e-05
0.0001274342300808537
0.0001
0.0001
0.0001
0.0001
0.0001
0.0001
0.0001
0.0001
0.0001
0.0001
0.0001
0.0001
6.426524101395059e-05
1.335336613251223e-05
7.574139121234914e-06
3.843003540181196e-06
2.814495169219546e-06
1.795858048082852e-06
0.0001095681548489726
5.364465513422283e-05
1.441148251346343e-05
4.71099250515374e-06
1.22389274332837e-05
8.579300286043622e-06
5.994106634789344e-06
6.666712017134557e-06
6.29263648357967e-06
4.158033627311139e-06
1.106701338677355e-05
4.094648798627432e-06
1.346144183290896e-05
0.0001369566772575102
6.397434702824037e-05
1.226801686086734e-05
1.893140531696435e-05
2.380153160935258e-05
3.174694574951376e-05
3.378318269971271e-06
2.29531576064007e-06
5.11077587076591e-06
1.021682652646323e-05
7.871142919941902e-05
0.000104746874949152
8.583924789661299e-05
0.0001
0.0001
0.0001
0.0001
0.0001
0.0001
0.0001
0.0001
0.0001
0.0001
0.0001
0.0001
1.002505113990195e-05
1.814066353468746e-06
2.015050005993573e-06
5.869255463024597e-06
9.391060697058809e-05
9.647923162066635e-06
0.0001834174010885824
9.722083207704894e-06
1.359456112869099e-05
5.167579441041748e-06
6.84123964673217e-06
1.015159451220437e-05
9.659124277532172e-06
3.422666076574361e-06
1.994675654876113e-05
5.722845476665167e-06
4.031548979068345e-06
6.62765800785772e-07
7.507765041078166e-05
0.0001053293978451524
6.076315719377463e-05
2.173323673741152e-05
1.103120834039552e-05
1.248990986264395e-05
6.820464968047372e-06
1.580557099682374e-06
1.392656617858426e-06
1.980643688421852e-06
8.071790201509764e-06
3.609780068818865e-05
2.717760207198827e-05
1.583362058483699e-05
0.0001
0.0001
0.0001
0.0001
0.0001
0.0001
0.0001
0.0001
0.0001
0.0001
0.0001
0.0001
1.373359653396939e-06
5.380882712719019e-07
6.15235355767308e-07
3.921996350269728e-06
8.855719450762318e-05
5.939952170033373e-06
9.335653169468057e-05
3.337719912908065e-06
1.276366941964984e-05
7.980632379625505e-06
4.34211048574582e-06
4.158811113383065e-06
4.78864817283898e-06
1.629834201349381e-06
1.74310136961487e-05
3.33286564772894e-06
9.335560943682847e-07
6.533274516437975e-07
5.87793417775939e-05
2.150227926684275e-05
1.25967680532708e-05
1.221573875946022e-05
6.468937111161405e-06
1.89203376535509e-06
3.696922636877953e-07
1.057689729706585e-06
1.971220858533071e-07
6.071852579057249e-07
1.804468577847309e-06
6.090211324826405e-06
4.310831188421299e-06
3.55164088019747e-06
0.0001
0.0001
0.0001
0.0001
0.0001
0.0001
0.0001
0.0001
0.0001
0.0001
0.0001
0.0001
1.898968406619817e-07
8.398829056957294e-07
1.890214837684823e-06
2.579163026995925e-06
1.266831476542063e-05
2.627896302999324e-06
1.393154218486439e-05
5.780390130756033e-07
1.945607048199354e-06
1.17073715820247e-06
1.278036497310355e-06
7.445637541330569e-07
4.297336759002259e-07
3.286767408066351e-06
2.535654268818407e-06
6.412887317001985e-07
6.912118348717071e-08
9.043919183486197e-07
6.690674343797776e-06
1.038730253807446e-06
1.236154607366827e-06
2.256629780603469e-06
6.194686890940159e-07
2.067900799069518e-07
2.99787778034414e-07
1.419527651168798e-07
1.059515245129533e-08
3.813940188883345e-07
1.254798149751245e-07
3.673827188894103e-07
7.942180520023274e-07
4.025333844776306e-07
0.0001
0.0001
0.0001
0.0001
0.0001
0.0001
0.0001
0.0001
0.0001
0.0001
0.0001
0.0001
5.446326465241017e-08
2.547651192450647e-07
2.419300649404948e-07
8.187930757919126e-07
8.6286346298248e-07
5.933602980837082e-07
8.707624241921723e-07
3.768127710997514e-08
1.857631616774505e-07
2.138435233265529e-07
1.965334427102071e-07
2.625384035269641e-08
1.608182237540708e-07
2.769350392543204e-07
1.954305782457577e-07
1.768285616512887e-07
5.126418453475345e-08
3.917576907417175e-07
5.495447760547653e-08
2.512549560479758e-07
7.589645082247e-08
9.436329750306759e-08
2.316952022662313e-08
1.105446797827124e-08
7.585054155304321e-08
1.336606840567849e-08
4.922186003374394e-09
9.607714084455555e-08
1.365716268197165e-08
4.691914103776237e-08
1.821662700409349e-07
9.849674145851855e-08
0.0001
0.0001
0.0001
0.0001
0.0001
0.0001
0.0001
0.0001
0.0001
0.0001
0.0001
0.0001
)
;

boundaryField
{
    inlet
    {
        type            cyclic;
    }
    outlet
    {
        type            cyclic;
    }
    bottomWall
    {
        type            nutLowReWallFunction;
        Cmu             0.09;
        kappa           0.41;
        E               9.800000000000001;
        value           uniform 0.0001;
    }
    topWall
    {
        type            nutLowReWallFunction;
        Cmu             0.09;
        kappa           0.41;
        E               9.800000000000001;
        value           uniform 0.0001;
    }
    left
    {
        type            cyclic;
    }
    right
    {
        type            cyclic;
    }
}


// ************************************************************************* //
