/*--------------------------------*- C++ -*----------------------------------*\
| =========                 |                                                 |
| \\      /  F ield         | OpenFOAM: The Open Source CFD Toolbox           |
|  \\    /   O peration     | Version:  v1812                                 |
|   \\  /    A nd           | Web:      www.OpenFOAM.com                      |
|    \\/     M anipulation  |                                                 |
\*---------------------------------------------------------------------------*/
FoamFile
{
    version     2.0;
    format      ascii;
    class       volScalarField;
    location    "10000";
    object      nut;
}
// * * * * * * * * * * * * * * * * * * * * * * * * * * * * * * * * * * * * * //

dimensions      [0 2 -1 0 0 0 0];


internalField   nonuniform List<scalar> 
3770
(
5.716192339137488e-06
5.716192366301434e-06
5.716192349312664e-06
5.716192332587276e-06
5.716192318843113e-06
5.716192312046653e-06
5.716192296315225e-06
5.716192292608411e-06
5.716192285191667e-06
5.716192274615382e-06
5.71619227249535e-06
5.716192256777247e-06
5.716192249656094e-06
5.716192238238206e-06
5.71619222731884e-06
5.716192215024028e-06
5.716192204611598e-06
5.716192194294112e-06
5.716192191471026e-06
5.716192181640042e-06
5.716192199014792e-06
5.716192214087433e-06
5.716192252004243e-06
5.716192312956504e-06
5.716192386372211e-06
5.71619248773972e-06
5.71619258844982e-06
5.716192695470475e-06
5.71619278453023e-06
5.716192867731745e-06
5.716192921109073e-06
5.716192981621988e-06
5.716192986649757e-06
5.716193005070075e-06
5.716192980727211e-06
5.716192962925447e-06
5.716192879226272e-06
5.716192823874129e-06
5.716192711181555e-06
5.71619262166207e-06
5.716192521155656e-06
5.716192440661517e-06
5.716192382289423e-06
5.716192332067379e-06
5.716192314302791e-06
5.716192302258316e-06
5.71619231765233e-06
5.716192336907623e-06
5.716192389106507e-06
5.716192434810372e-06
5.716192496531804e-06
5.716192539251249e-06
5.716192569204857e-06
5.71619256159495e-06
5.716192539593445e-06
5.716192504091434e-06
5.716192466388757e-06
5.716192434251873e-06
7.47979990687953e-07
7.479802101520202e-07
7.479803446484765e-07
7.479806422422e-07
7.479809712408897e-07
7.47981343564333e-07
7.479817534741818e-07
7.479821931413688e-07
7.479826713553459e-07
7.479831648824042e-07
7.479837152897198e-07
7.479842843594421e-07
7.479849334394966e-07
7.479856355277409e-07
7.479864250188173e-07
7.479873146954216e-07
7.479883145320317e-07
7.479894404905008e-07
7.479907107903967e-07
7.479920845753301e-07
7.479936109665877e-07
7.479951510301983e-07
7.479967465373251e-07
7.479981525376327e-07
7.479994210420531e-07
7.480002515723712e-07
7.480006049089737e-07
7.480005547663649e-07
7.479999766369421e-07
7.479990263727013e-07
7.479976284968325e-07
7.47995994423819e-07
7.47994047822529e-07
7.479919231440819e-07
7.479896919398997e-07
7.47987429749525e-07
7.479852812963796e-07
7.479833569466984e-07
7.47981781126958e-07
7.479806260194956e-07
7.4797995242073e-07
7.479796794934244e-07
7.47979725262427e-07
7.479800628789665e-07
7.479806302974447e-07
7.479813091481138e-07
7.479820037518631e-07
7.479826595905307e-07
7.47983096963777e-07
7.479833483391655e-07
7.479831774545059e-07
7.479828586225334e-07
7.479821756923665e-07
7.479815799235486e-07
7.479809604802534e-07
7.479805088360325e-07
7.47980181584797e-07
7.479800098533539e-07
1.092279152704637e-06
1.09228050120704e-06
1.092281362626847e-06
1.092282984732723e-06
1.092284746082687e-06
1.09228670411131e-06
1.092288859702328e-06
1.092291143357732e-06
1.092293628490936e-06
1.092296190205928e-06
1.092299033445146e-06
1.092301984773824e-06
1.09230532134028e-06
1.092308919118395e-06
1.092312938872375e-06
1.092317433619441e-06
1.092322439796557e-06
1.092328020006871e-06
1.092334234159182e-06
1.092340892877916e-06
1.092348146124982e-06
1.0923553747713e-06
1.092362684838957e-06
1.092368951023643e-06
1.092374351156369e-06
1.092377541091028e-06
1.092378623131448e-06
1.092377517332869e-06
1.092374060413819e-06
1.092368867268373e-06
1.092361650264105e-06
1.09235338565976e-06
1.09234378474954e-06
1.092333326462793e-06
1.092322645007547e-06
1.092311869890235e-06
1.092301887361806e-06
1.092292985166046e-06
1.0922860230479e-06
1.092281006122117e-06
1.092278331679451e-06
1.092277357763617e-06
1.092277976934054e-06
1.092279902991462e-06
1.092282676289454e-06
1.092285949329473e-06
1.092289115999413e-06
1.092292002224832e-06
1.09229370057809e-06
1.092294703552687e-06
1.092293489758857e-06
1.092291784163939e-06
1.0922884463163e-06
1.092285665160188e-06
1.092282864516188e-06
1.092280931629238e-06
1.092279627743816e-06
1.092279025492369e-06
3.319450524852298e-06
3.319456876726042e-06
3.319462860175246e-06
3.31947064198084e-06
3.319478962636276e-06
3.319487931464455e-06
3.319497567301733e-06
3.31950768185593e-06
3.31951858942376e-06
3.319529796405412e-06
3.319541978440047e-06
3.319554573623843e-06
3.319568362107785e-06
3.319582857877708e-06
3.319598554452076e-06
3.319615329511504e-06
3.319633252992087e-06
3.319652223770544e-06
3.319672204869878e-06
3.319692295970771e-06
3.319712501156867e-06
3.3197310801064e-06
3.319747673363733e-06
3.319759506275679e-06
3.319766247781293e-06
3.319766319384108e-06
3.319759827056898e-06
3.319746592520376e-06
3.319727308175199e-06
3.319703815595067e-06
3.319675391985854e-06
3.31964542750299e-06
3.319613270069812e-06
3.319579115721437e-06
3.319547483187434e-06
3.319516579257982e-06
3.319490556402428e-06
3.319468110413004e-06
3.319453264117871e-06
3.31944384935217e-06
3.319440938741485e-06
3.319441512327688e-06
3.319446025294251e-06
3.31945397807298e-06
3.319461691194532e-06
3.319470744000558e-06
3.319477803339562e-06
3.319482729848249e-06
3.319483649188167e-06
3.319483412879391e-06
3.3194765746872e-06
3.319470089203353e-06
3.319460266052529e-06
3.319453689317403e-06
3.319448002196119e-06
3.319445456660809e-06
3.31944491125268e-06
3.31944646614009e-06
8.915436006450496e-06
8.915455602976019e-06
8.915476464102754e-06
8.915500715391259e-06
8.915526915505807e-06
8.915554869366838e-06
8.915584651058408e-06
8.915615958515537e-06
8.915649234191529e-06
8.915683524313506e-06
8.915719974072741e-06
8.915757395936177e-06
8.915797271700199e-06
8.915838205183914e-06
8.915881242453481e-06
8.915925572954306e-06
8.915971242389658e-06
8.916017508926835e-06
8.916064172671563e-06
8.916108491741065e-06
8.916150296645777e-06
8.916185828755667e-06
8.916213554395944e-06
8.916226548092127e-06
8.916228581383939e-06
8.91621247036493e-06
8.916181665104732e-06
8.916136063874288e-06
8.916077487788708e-06
8.916011342906402e-06
8.91593530097386e-06
8.91585880257341e-06
8.915780005964612e-06
8.915697168532846e-06
8.915625176824362e-06
8.915555367812412e-06
8.915500627650905e-06
8.915452873384157e-06
8.915425400069891e-06
8.915409206911349e-06
8.915406623460218e-06
8.915410963575607e-06
8.915421920786961e-06
8.915441588497016e-06
8.915455860294168e-06
8.915474362898456e-06
8.915485806107124e-06
8.915491730136144e-06
8.915488616775477e-06
8.915483899635773e-06
8.915465420196364e-06
8.915449311477168e-06
8.915428356559626e-06
8.91541579530195e-06
8.915407859301115e-06
8.915406348925084e-06
8.915410975991511e-06
8.915420332442523e-06
2.031055297161169e-05
2.03105980429894e-05
2.031064934010282e-05
2.031070684474214e-05
2.031076992063587e-05
2.031083724085774e-05
2.031090887176915e-05
2.031098448940494e-05
2.03110636516101e-05
2.031114605972707e-05
2.031123132671969e-05
2.031131890082088e-05
2.031140966978161e-05
2.031150121075654e-05
2.031159487487388e-05
2.031168870898315e-05
2.031178243806413e-05
2.031187439717196e-05
2.031196468613504e-05
2.031204741143249e-05
2.031212247616597e-05
2.03121839291288e-05
2.03122270812791e-05
2.031224145172255e-05
2.031223366111808e-05
2.031218914978431e-05
2.031211597610579e-05
2.031201521307116e-05
2.031188786879972e-05
2.03117485931233e-05
2.031158962278577e-05
2.031143236767105e-05
2.031127380798858e-05
2.03111042168642e-05
2.031096073752304e-05
2.031081787349369e-05
2.03107095280746e-05
2.031060852760482e-05
2.031055195602802e-05
2.031051494896523e-05
2.03105057035055e-05
2.031050980969578e-05
2.031052451789888e-05
2.031056035517039e-05
2.031058070143947e-05
2.031061376591638e-05
2.031063162166612e-05
2.031064073119253e-05
2.031063172791151e-05
2.031062200700625e-05
2.031058654660463e-05
2.031055350177631e-05
2.03105143270017e-05
2.031048885439092e-05
2.031047740522848e-05
2.031047636306073e-05
2.03104909549252e-05
2.031051466412409e-05
4.087638424449839e-05
4.087646908261859e-05
4.087657050815768e-05
4.087668426664665e-05
4.087681096878404e-05
4.08769475513558e-05
4.087709291792106e-05
4.087724806397556e-05
4.087740810293249e-05
4.087757696929529e-05
4.087774759954466e-05
4.087792328968472e-05
4.087810117632371e-05
4.087827838346408e-05
4.087845543066372e-05
4.087862949285842e-05
4.08787992878946e-05
4.087896295342262e-05
4.087912249428769e-05
4.087926730929999e-05
4.087940013865261e-05
4.087951037951681e-05
4.08795944702467e-05
4.087963018280746e-05
4.087962487186043e-05
4.087955752612807e-05
4.087943688548425e-05
4.08792688418609e-05
4.087904498351348e-05
4.087880225959941e-05
4.087851791538588e-05
4.087823624699677e-05
4.087795065933648e-05
4.08776343935655e-05
4.087736487136824e-05
4.087708442465997e-05
4.087686713526547e-05
4.087664956823294e-05
4.087651797012134e-05
4.087641954680954e-05
4.087637448184059e-05
4.087635907262172e-05
4.087636425631191e-05
4.087641684105859e-05
4.087644068179164e-05
4.087649853676962e-05
4.087653230722509e-05
4.087655547785416e-05
4.087654703982545e-05
4.087653780201581e-05
4.087648232417987e-05
4.087641774963749e-05
4.087634585502687e-05
4.087628556866312e-05
4.087626041111718e-05
4.087624953466342e-05
4.08762726225732e-05
4.08763126939438e-05
7.544570856473491e-05
7.544584359229748e-05
7.544601660227665e-05
7.544621480423738e-05
7.544643949232708e-05
7.54466859091065e-05
7.544694963130974e-05
7.544723427798065e-05
7.544752453759526e-05
7.544783691934676e-05
7.544814506072985e-05
7.544846606956768e-05
7.544878386094185e-05
7.54490990234963e-05
7.544940807617883e-05
7.544970919381697e-05
7.544999844268038e-05
7.545027645673842e-05
7.54505505845356e-05
7.545080520162241e-05
7.545104877680346e-05
7.545126519746881e-05
7.545145377725649e-05
7.54515799371199e-05
7.545162643901197e-05
7.54515784810377e-05
7.545143575354151e-05
7.545121236139485e-05
7.545087336468388e-05
7.54505008184056e-05
7.54500412702107e-05
7.544957454325164e-05
7.544909371548516e-05
7.544853392040223e-05
7.54480425731815e-05
7.544750508845659e-05
7.544707184023326e-05
7.544661306812456e-05
7.544630730511879e-05
7.544606642863758e-05
7.544591687349986e-05
7.544583742101812e-05
7.544580698629919e-05
7.544586798616381e-05
7.54458914002026e-05
7.544599277536712e-05
7.544606379191263e-05
7.54461290348338e-05
7.544613830374507e-05
7.54461426706378e-05
7.544606524676923e-05
7.544593901939277e-05
7.544580366571145e-05
7.544565628235272e-05
7.544558924075014e-05
7.544553542206631e-05
7.544555093502127e-05
7.544559776994045e-05
0.0001315351423722568
0.0001315353336049869
0.0001315356001462388
0.0001315359164572066
0.0001315362824077661
0.0001315366938416786
0.0001315371360320123
0.0001315376221428556
0.0001315381141471379
0.0001315386548251738
0.0001315391796156209
0.0001315397333803202
0.0001315402735963833
0.0001315408109297585
0.0001315413313745972
0.0001315418387394943
0.0001315423232283272
0.0001315427931606153
0.0001315432667897771
0.0001315437219159103
0.0001315441821862269
0.0001315446206318598
0.0001315450381729959
0.0001315453892927204
0.0001315456054287338
0.0001315456601260513
0.0001315455600411469
0.0001315453239001482
0.00013154485652267
0.0001315443268462679
0.0001315436233584127
0.0001315428851501902
0.0001315420992961279
0.0001315411410683644
0.0001315402685317821
0.000131539278543078
0.0001315384454346489
0.0001315375388010585
0.0001315368882240575
0.0001315363671078824
0.0001315359960785947
0.00013153577369472
0.0001315356649078205
0.0001315357171672038
0.0001315357344115708
0.0001315359077359075
0.0001315360512455091
0.0001315362021288522
0.0001315362596870134
0.0001315362897702094
0.0001315361807013125
0.000131535931551929
0.0001315356720182383
0.0001315353365527532
0.0001315351710084138
0.0001315350028960398
0.0001315349731530043
0.0001315349985048253
0.0002216840262059594
0.0002216842696825184
0.0002216846556728776
0.0002216851331145759
0.0002216856987984166
0.0002216863521147181
0.0002216870622050102
0.0002216878545213059
0.0002216886557973562
0.0002216895561573251
0.0002216904205606146
0.0002216913500223686
0.0002216922478485205
0.0002216931493834157
0.0002216940192373248
0.0002216948740880182
0.0002216956919790052
0.0002216964971086076
0.0002216973242655385
0.0002216981459794368
0.0002216990077012876
0.0002216998647751567
0.0002217007178936952
0.0002217014884453379
0.0002217020690192888
0.0002217023426594487
0.0002217023678455348
0.0002217021695045436
0.0002217015412049899
0.0002217007984149105
0.0002216997378345414
0.0002216985819053197
0.0002216973145703872
0.0002216957231427657
0.0002216942240201343
0.0002216924902171322
0.0002216909839801592
0.000221689335375072
0.0002216880968262098
0.0002216871086785039
0.0002216863561088554
0.0002216858897448296
0.0002216856514084844
0.0002216856691468483
0.0002216856746935989
0.0002216859535793018
0.0002216862117297274
0.0002216864913384906
0.0002216866114249515
0.0002216866640329287
0.0002216864732142376
0.0002216859829568191
0.0002216854872803241
0.0002216847988937259
0.0002216844414197158
0.0002216840404594988
0.0002216839030398203
0.0002216838613492408
0.0003666985124694062
0.0003666988164148315
0.0003666993668567161
0.000366700068409422
0.0003667009211503595
0.000366701928751303
0.0003667030351793635
0.000366704290618224
0.0003667055685069451
0.0003667070272037666
0.0003667084303175208
0.000366709961148857
0.0003667114407250792
0.0003667129465705557
0.0003667144040461539
0.000366715853441467
0.0003667172495954206
0.000366718642098767
0.0003667200827104049
0.0003667215331375179
0.0003667230768953678
0.0003667246265561965
0.0003667261731141757
0.0003667275904574925
0.0003667286934520376
0.0003667292908698986
0.0003667294494646823
0.0003667292599215544
0.000366728338920697
0.0003667272372227778
0.0003667256000183954
0.0003667237867923775
0.0003667217554988646
0.0003667192066207579
0.0003667167513226653
0.0003667139179880334
0.0003667114191896968
0.0003667087155259046
0.0003667066533665604
0.0003667050256001912
0.0003667037549070637
0.0003667029699196294
0.0003667025626988409
0.0003667025274241484
0.0003667025159827051
0.0003667029135366876
0.0003667032977649112
0.0003667036849598249
0.0003667038146762422
0.0003667038055261867
0.0003667033747984899
0.0003667024324845976
0.0003667015134638825
0.0003667002510467791
0.0003666995785313268
0.0003666988128919379
0.0003666984930632525
0.0003666983385957409
0.0005970945556873777
0.0005970949592027285
0.0005970957589058715
0.0005970967804050005
0.0005970980488226729
0.0005970995632537673
0.0005971012519705662
0.0005971031833549308
0.0005971051759606274
0.000597107469465512
0.0005971097003017052
0.0005971121620554948
0.0005971145588785137
0.0005971170287017071
0.0005971194393398659
0.000597121860320865
0.0005971242067065862
0.0005971265567864617
0.0005971289637901098
0.0005971313728093396
0.0005971339035634785
0.0005971363871796562
0.0005971387919952109
0.000597140915426639
0.0005971424802427062
0.0005971432481524323
0.0005971433311366154
0.0005971428412218103
0.0005971412829954866
0.0005971394823757384
0.0005971368977496566
0.0005971340769740025
0.0005971309149870495
0.0005971270861818547
0.0005971233750177419
0.0005971192004603418
0.0005971155228119021
0.0005971116641208471
0.0005971087450218013
0.0005971065056928536
0.0005971047431604503
0.0005971037019954641
0.00059710315485171
0.0005971030753689798
0.0005971030240441211
0.0005971034634214815
0.0005971038502560401
0.0005971041595634055
0.0005971040802997945
0.0005971037010583359
0.0005971027017865896
0.0005971010003605206
0.000597099414661982
0.0005970973853568918
0.0005970962984716081
0.0005970951076577054
0.0005970945895736069
0.0005970943167347909
0.000946262812939627
0.0009462634308369518
0.0009462646147056429
0.0009462660805780607
0.000946267923784477
0.0009462701137990267
0.0009462725871814506
0.0009462754241833861
0.0009462784060283639
0.0009462818297634552
0.0009462852298411817
0.0009462889879892427
0.0009462926969148721
0.0009462965499756805
0.0009463003419764357
0.0009463041643798476
0.0009463078722011322
0.0009463115569018584
0.0009463152351630807
0.000946318812437333
0.0009463224332568264
0.0009463258075471813
0.0009463288498887266
0.0009463312790820992
0.0009463327034730098
0.0009463331248948053
0.0009463324273610874
0.0009463309526556014
0.0009463281565672313
0.0009463251330947526
0.0009463211472589733
0.0009463169884093257
0.0009463124291279936
0.0009463072306914475
0.0009463022687857857
0.0009462969324768984
0.0009462923582270328
0.0009462877788879969
0.0009462844662208052
0.0009462820320942723
0.000946280147896365
0.0009462791201331293
0.0009462785466974565
0.0009462784296530586
0.0009462782468560447
0.0009462784495246919
0.0009462784395490181
0.0009462783081464132
0.0009462774506296607
0.0009462762014925674
0.00094627414828737
0.0009462714036075847
0.0009462689639189722
0.0009462661846575519
0.0009462647114116411
0.0009462632517839009
0.0009462626628100187
0.0009462623606929558
0.001432401269047199
0.001432402236389859
0.001432403928482618
0.001432405934905153
0.001432408467502188
0.001432411435805965
0.001432414835601593
0.001432418718653356
0.00143242288442599
0.001432427627026311
0.001432432447396686
0.001432437754387141
0.001432443067692189
0.001432448596632519
0.001432454069995251
0.001432459565396931
0.001432464863878795
0.001432470029208666
0.001432474992000813
0.001432479592495082
0.001432483973126757
0.001432487716925589
0.001432490661629912
0.001432492375622833
0.001432492841857324
0.001432491886988342
0.001432489422024721
0.001432486135756916
0.001432481493743019
0.001432476779507742
0.001432471142565128
0.001432465597786191
0.001432459760708646
0.0014324535996132
0.001432447935043734
0.001432442243972605
0.001432437619151658
0.001432433336167749
0.001432430528795986
0.001432428641584808
0.00143242722908144
0.001432426565855868
0.001432426110391138
0.001432425890429226
0.001432425269945048
0.001432424891440994
0.001432423885962274
0.001432422666701292
0.001432420409727232
0.001432417773076611
0.001432414271866522
0.001432410425471191
0.001432407168817638
0.001432403970922407
0.001432402315161114
0.001432400948784587
0.001432400537336663
0.001432400394179555
0.002043047927381156
0.002043049319011434
0.002043051545127743
0.002043054091043289
0.002043057304893441
0.002043061022210282
0.002043065335586311
0.002043070235349998
0.00204307559848729
0.002043081644016316
0.00204308792616019
0.00204309479493848
0.002043101762656988
0.002043108993653943
0.00204311617146753
0.00204312331180967
0.002043130118814125
0.002043136581518199
0.002043142509601378
0.002043147649247117
0.002043152128465922
0.002043155466845401
0.002043157232849883
0.002043157494649739
0.002043156069359334
0.002043152706140283
0.002043147824236249
0.00204314220147692
0.002043135452879395
0.002043128952944014
0.002043121824113616
0.002043115241436905
0.002043108688198821
0.002043102345536987
0.00204309688202196
0.002043091909258404
0.002043088284806516
0.002043085408464677
0.002043084014941085
0.002043083355676976
0.002043082904484175
0.002043082785817091
0.002043082562900106
0.002043082022065443
0.00204308065980404
0.002043079213330798
0.002043076717526188
0.002043073892093273
0.002043069820256821
0.002043065552024556
0.002043060515788589
0.002043055779770078
0.002043051953642431
0.002043048821606684
0.002043047265097341
0.002043046327789433
0.002043046313557177
0.002043046542606505
0.002740923454202904
0.002740925223706038
0.00274092788337786
0.002740930857012397
0.002740934614310038
0.002740938931591628
0.002740944006958572
0.002740949756231082
0.002740956165976974
0.002740963341192169
0.002740970940570788
0.002740979202044463
0.0027409876775044
0.002740996436338342
0.002741005142429114
0.002741013709969795
0.002741021773119639
0.002741029216117635
0.002741035719265648
0.002741040905159352
0.002741044891795552
0.002741046984533433
0.002741047478539611
0.00274104552013954
0.002741041653455845
0.00274103553772663
0.00274102807851691
0.002741020078249112
0.002741011360183455
0.002741003327636628
0.002740995132186518
0.002740988041437102
0.002740981442137819
0.002740975669182401
0.002740971205555519
0.002740967800287084
0.002740965917168931
0.002740965163940459
0.002740965680413858
0.002740966631454375
0.002740967334201104
0.002740967700172533
0.002740967715202999
0.002740966667855526
0.002740964316801322
0.002740961505462237
0.002740957265687685
0.002740952615620909
0.002740946630020574
0.002740940765726633
0.00274093433252609
0.002740928974279158
0.002740924840523072
0.002740922126200238
0.002740920903935254
0.002740920352396412
0.002740920968240385
0.002740921614289983
0.003484043569458213
0.003484045568841614
0.003484048473876272
0.003484051689747984
0.003484055775512924
0.00348406047992744
0.003484066089356322
0.003484072457619366
0.003484079682377939
0.003484087755341184
0.00348409644747705
0.003484105877557185
0.003484115651474422
0.003484125727417986
0.003484135764739428
0.003484145560482538
0.003484154687076183
0.003484162919381727
0.003484169819431514
0.003484174847055169
0.003484177866682622
0.003484179001708518
0.00348417797437344
0.003484173669993866
0.003484167413649017
0.003484158666515676
0.003484148833358072
0.003484138717942929
0.003484128343037798
0.003484119134054493
0.003484110272450487
0.003484103087318449
0.003484096912068247
0.003484092140700131
0.003484089087193414
0.003484087727388523
0.003484087866447266
0.003484089251428507
0.003484092007920649
0.003484094623921491
0.003484096456649979
0.003484097314081674
0.003484097452406427
0.003484095846736277
0.003484092391428826
0.003484088133078018
0.00348408210829072
0.003484075626977745
0.003484067789219756
0.003484060438265468
0.003484052738212047
0.003484046877101507
0.00348404259349677
0.00348404033548499
0.003484039494855169
0.003484039274468357
0.003484040452388605
0.003484041435152194
0.004238462959758989
0.004238464974678881
0.004238467882801918
0.004238471106115659
0.004238475256207537
0.004238480092676826
0.004238485960062899
0.004238492680101535
0.004238500442689142
0.004238509153093566
0.004238518678031494
0.004238529042258216
0.004238539900232944
0.004238551110742268
0.004238562335792087
0.004238573261321787
0.004238583404803736
0.004238592444222379
0.004238599851687647
0.004238604735072796
0.004238607044842104
0.004238607638495989
0.004238605138948426
0.004238598926577867
0.004238590633030309
0.004238579649230864
0.004238567812692385
0.004238555954359517
0.004238544245702762
0.004238534161476802
0.004238524881947047
0.004238517800732898
0.004238512236824385
0.004238508670717215
0.004238507184600024
0.00423850738586244
0.004238509850375921
0.004238513369435906
0.004238518277569447
0.004238522526918885
0.004238525458735156
0.004238526785185193
0.004238527031233081
0.004238524936472485
0.004238520396991731
0.004238514758827285
0.004238507025100209
0.004238498782772529
0.004238489167826237
0.004238480376768362
0.004238471428947586
0.004238464987761485
0.004238460620152206
0.004238458630431013
0.00423845805220233
0.004238458093288973
0.004238459603466084
0.004238460752535268
0.004979604118314556
0.004979605894049286
0.004979608523873908
0.004979611483076287
0.004979615394718162
0.004979620067252332
0.004979625872227752
0.004979632631103608
0.004979640604133566
0.004979649646458657
0.004979659696975335
0.004979670727646451
0.004979682428913055
0.004979694590398563
0.004979706882253802
0.004979718900005065
0.004979730112285963
0.004979740118487702
0.00497974833077635
0.004979753465514209
0.004979755625306605
0.004979755987564332
0.00497975265343298
0.004979745168693486
0.004979735398243278
0.004979722739099863
0.004979709368636866
0.004979696195654368
0.004979683471702831
0.004979672750503055
0.004979663177388112
0.004979656214848639
0.004979651346921804
0.00497964893476949
0.004979648273933566
0.004979650336394778
0.004979654767790694
0.004979660261568833
0.004979667162203287
0.004979672979048071
0.004979677015011797
0.004979678831349794
0.00497967921246013
0.004979676824475488
0.004979671335651364
0.004979664483786787
0.004979655192872181
0.004979645291892143
0.004979633961702057
0.004979623717725616
0.004979613469366693
0.004979606311012157
0.004979601708308364
0.004979599761202947
0.004979599264290722
0.004979599453880676
0.004979601000636716
0.004979602096845995
0.005690353944106146
0.005690355215322512
0.005690357266670282
0.005690359673013
0.005690363022176148
0.005690367207214134
0.005690372596786499
0.005690379041978277
0.005690386853201684
0.005690395870068466
0.005690406084520749
0.005690417457969574
0.005690429708932679
0.005690442593654426
0.005690455800402598
0.005690468863011543
0.005690481210432829
0.005690492378378515
0.005690501696322644
0.005690507840931509
0.005690510476200551
0.005690510959609118
0.005690507671616565
0.005690499706068437
0.005690489163544391
0.005690475509873619
0.005690461163410593
0.005690447164726398
0.005690433774380466
0.005690422641985399
0.00569041285300752
0.005690405901438098
0.005690401709666532
0.005690400007140959
0.005690399907118584
0.005690403515283706
0.0056904095266506
0.005690416715067539
0.005690425383789007
0.005690432661850888
0.005690437825773029
0.005690440180843249
0.005690440749022201
0.005690438341595086
0.005690432139925208
0.005690424317329659
0.005690413697155182
0.005690402285611875
0.005690389322844259
0.005690377603555331
0.005690365984057952
0.005690357952080141
0.005690352847456387
0.005690350716320462
0.005690350162119208
0.005690350292674114
0.005690351579980818
0.005690352382991974
0.006359808488468883
0.006359809005154544
0.006359810182506685
0.006359811754204132
0.006359814221466759
0.00635981759274867
0.006359822207664432
0.006359827969030514
0.006359835223026013
0.006359843821383133
0.006359853795519751
0.006359865134213266
0.006359877581421329
0.006359890894578077
0.006359904796672462
0.006359918791813315
0.006359932285217724
0.006359944769176215
0.006359955459401832
0.006359963337900673
0.006359967211646564
0.0063599682459869
0.006359965870245631
0.006359958331067884
0.006359947815182286
0.006359933934157456
0.006359919251282265
0.006359904981331719
0.006359891334180682
0.00635988005061386
0.00635987015307343
0.006359863177443825
0.006359859331983219
0.006359857920322849
0.006359858247850749
0.006359862811044642
0.006359869979644162
0.006359878488589263
0.006359888635006671
0.006359897213000717
0.00635990351067334
0.006359906461493104
0.006359907273805087
0.006359905136819913
0.006359898541705301
0.006359890052251274
0.006359878408873129
0.00635986569982721
0.006359851237671544
0.006359838051285838
0.006359825006223244
0.006359815954606693
0.006359810084557363
0.006359807547929849
0.006359806747771019
0.006359806646565935
0.006359807383622376
0.006359807655906064
0.006982165558360964
0.006982165107338941
0.006982165139893489
0.006982165621365484
0.006982166913108758
0.006982169164643582
0.006982172662471278
0.006982177376728243
0.00698218367925893
0.006982191452537924
0.006982200758688458
0.006982211644308003
0.006982223881098304
0.006982237256137374
0.006982251549565032
0.006982266268267629
0.006982280817829036
0.006982294682733329
0.006982307016114375
0.00698231688741207
0.006982322968860983
0.006982325157979081
0.006982324341707763
0.006982318202583234
0.006982308566623665
0.006982295276379413
0.006982280960516923
0.006982267033850045
0.00698225361324237
0.006982242505019241
0.006982232671457357
0.006982225657792705
0.006982221816115968
0.006982220444602034
0.006982220912078587
0.006982225813397769
0.006982233663649533
0.006982243049063536
0.006982254318231899
0.006982263973995364
0.00698227134793002
0.006982274952939118
0.006982276062172436
0.006982274446371262
0.006982267837024109
0.006982259032208319
0.006982246744326303
0.006982233028642144
0.006982217270661904
0.006982202679587964
0.006982188184444996
0.006982177984550353
0.006982171133033282
0.006982168001804145
0.006982166715504691
0.006982166185892309
0.006982166234536651
0.006982165700415399
0.007555280062947314
0.007555278285035596
0.007555277033999952
0.007555276206057462
0.007555276067041616
0.007555276928466408
0.007555279000720629
0.007555282329318571
0.007555287305983681
0.007555293854651763
0.007555302059990859
0.007555312050829315
0.007555323630146875
0.007555336635296069
0.007555350929879036
0.007555366054414049
0.00755538144391396
0.007555396614828893
0.007555410689888551
0.007555422642507439
0.007555431644964097
0.007555436043024003
0.007555437043094161
0.007555433269538967
0.007555425399717983
0.00755541355091869
0.007555400358152141
0.007555387444948079
0.007555374813966662
0.007555364291564125
0.007555354788425357
0.007555347805770372
0.007555343703169176
0.007555342195317423
0.007555342488721671
0.007555347135686377
0.007555355145342817
0.007555364911364468
0.007555376888292537
0.007555387352392432
0.007555395610538455
0.0075553999396924
0.007555401392849964
0.007555400460178854
0.007555394246198099
0.007555385510719534
0.00755537301890863
0.007555358669398654
0.007555341900510998
0.007555326037965292
0.007555310110027615
0.007555298651709488
0.007555290644197433
0.007555286765093925
0.007555284915388318
0.007555283576434016
0.007555282881064434
0.00755528126640605
0.008079173664698649
0.008079170458743751
0.008079167802134796
0.008079165310213503
0.008079163580891273
0.008079162853047975
0.008079163234326944
0.008079164875191365
0.0080791681839781
0.008079173130747132
0.008079179812230643
0.008079188458676818
0.00807919890808222
0.008079211058834909
0.008079224885987895
0.008079239991602523
0.00807925587131407
0.008079272116583058
0.008079287865776125
0.008079302037845633
0.008079313942414346
0.008079321753691346
0.008079325078163221
0.008079324328463864
0.008079319132552351