/*--------------------------------*- C++ -*----------------------------------*\
| =========                 |                                                 |
| \\      /  F ield         | OpenFOAM: The Open Source CFD Toolbox           |
|  \\    /   O peration     | Version:  v1812                                 |
|   \\  /    A nd           | Web:      www.OpenFOAM.com                      |
|    \\/     M anipulation  |                                                 |
\*---------------------------------------------------------------------------*/
FoamFile
{
    version     2.0;
    format      ascii;
    class       volScalarField;
    location    "10000";
    object      nuTilda;
}
// * * * * * * * * * * * * * * * * * * * * * * * * * * * * * * * * * * * * * //

dimensions      [0 2 -1 0 0 0 0];


internalField   nonuniform List<scalar> 
3770
(
0.000495536682868415
0.0004955366813576075
0.0004955366808348348
0.0004955366804254079
0.0004955366802047455
0.0004955366798240846
0.0004955366799136463
0.0004955366796356905
0.0004955366793963718
0.0004955366793517818
0.0004955366789610061
0.0004955366789608011
0.0004955366786750107
0.0004955366784353431
0.0004955366781710455
0.0004955366779258851
0.0004955366776637679
0.0004955366774399238
0.0004955366771166157
0.0004955366775192777
0.0004955366773339403
0.0004955366779695327
0.0004955366787844478
0.0004955366799493703
0.0004955366817388525
0.0004955366837058394
0.000495536686187274
0.0004955366882768579
0.0004955366905291412
0.0004955366920268051
0.0004955366938136415
0.0004955366939294233
0.0004955366950529376
0.0004955366952332373
0.0004955366950901601
0.0004955366934838276
0.0004955366933195476
0.0004955366908180552
0.0004955366888023073
0.0004955366867257843
0.0004955366844631953
0.0004955366830807324
0.0004955366814567354
0.0004955366804747483
0.0004955366800429764
0.0004955366798172263
0.0004955366800121362
0.0004955366807544527
0.0004955366816279472
0.0004955366827224544
0.0004955366840350148
0.0004955366850171348
0.0004955366855924091
0.0004955366855442578
0.000495536685002633
0.0004955366842267595
0.0004955366833019446
0.0004955366823916358
0.0002973618901319058
0.0002973619224520732
0.0002973619328279792
0.0002973619631647681
0.0002973619959061766
0.0002973620324654932
0.000297362074098832
0.0002973621177470609
0.000297362165012183
0.0002973622145696491
0.0002973622689720628
0.0002973623259676959
0.000297362390649681
0.000297362460453525
0.0002973625391279697
0.0002973626277091585
0.0002973627271651999
0.0002973628392310187
0.000297362964861955
0.0002973631029622194
0.0002973632540878404
0.0002973634076446034
0.0002973635666278033
0.0002973637065196585
0.0002973638331413123
0.0002973639151189791
0.0002973639506132457
0.0002973639452920998
0.0002973638882520019
0.0002973637928736085
0.0002973636553690619
0.0002973634901493823
0.0002973632974456836
0.0002973630867873033
0.0002973628654954097
0.0002973626380435297
0.0002973624262745186
0.0002973622329861079
0.0002973620757103869
0.0002973619618204865
0.0002973618938439071
0.0002973618679821618
0.0002973618716187026
0.0002973619054501452
0.0002973619624934217
0.0002973620292768459
0.0002973620986325344
0.0002973621642145001
0.0002973622079214967
0.0002973622324317167
0.0002973622158772658
0.0002973621838316022
0.0002973621159039356
0.0002973620566198962
0.0002973619949388147
0.000297361949873321
0.0002973619163495153
0.0002973618979163601
0.0003269535697951205
0.0003269536879751525
0.0003269537439458838
0.0003269538682333271
0.0003269540000273789
0.0003269541457299748
0.0003269543097393727
0.0003269544806390487
0.0003269546659639548
0.0003269548592600837
0.0003269550718656488
0.0003269552938938062
0.0003269555444008585
0.0003269558139598954
0.0003269561157120409
0.0003269564527921273
0.0003269568279245403
0.0003269572463109641
0.0003269577103069164
0.0003269582125066708
0.0003269587557436846
0.0003269592974095491
0.0003269598462835095
0.0003269603160041993
0.0003269607219733865
0.0003269609595355836
0.0003269610412076855
0.0003269609577195788
0.0003269606996897903
0.0003269603083027518
0.0003269597711192871
0.0003269591462490485
0.0003269584265960206
0.0003269576464646204
0.0003269568461835353
0.0003269560331609026
0.0003269552877126268
0.0003269546177811551
0.0003269540929136281
0.0003269537211533762
0.0003269535173114794
0.0003269534481013773
0.0003269534925571365
0.0003269536363852131
0.0003269538470214246
0.0003269540891665806
0.0003269543278627615
0.0003269545447542367
0.0003269546730121648
0.000326954746519039
0.000326954656802842
0.0003269545281332505
0.0003269542779921065
0.000326954069420875
0.000326953859257793
0.0003269537139055809
0.0003269536140128668
0.0003269535645846313
0.0004321585273452148
0.0004321587392403343
0.0004321589292386936
0.0004321591863843479
0.0004321594585570882
0.0004321597506139344
0.0004321600691251733
0.0004321603996652191
0.0004321607552046827
0.0004321611231752827
0.0004321615214793338
0.0004321619345546402
0.0004321623855462627
0.0004321628598846559
0.0004321633735386214
0.0004321639226082859
0.0004321645086483564
0.0004321651296939733
0.000432165780990706
0.0004321664413259506
0.0004321671029323817
0.0004321677100766535
0.0004321682538064859
0.0004321686404544474
0.0004321688621832885
0.0004321688627727279
0.000432168651244391
0.0004321682173584045
0.000432167588153118
0.0004321668166831028
0.0004321658928846858
0.0004321649077086689
0.0004321638516039049
0.0004321627387360569
0.000432161706759987
0.0004321606883573068
0.0004321598365674081
0.0004321591029095559
0.0004321586139541235
0.0004321583098244304
0.0004321582111058585
0.0004321582325535373
0.0004321583841455414
0.0004321586387338232
0.0004321588952032878
0.0004321591888409027
0.0004321594196792329
0.0004321595816127554
0.0004321596120242617
0.0004321596042660045
0.0004321593795988684
0.0004321591678977746
0.0004321588459613032
0.0004321586315187421
0.0004321584451711861
0.0004321583617650045
0.0004321583413567214
0.0004321583900918335
0.0005544152212251072
0.0005544155237572168
0.0005544158496912095
0.0005544162327305381
0.0005544166452502485
0.0005544170834147577
0.0005544175552556333
0.0005544180473182842
0.000554418569600699
0.0005544191103614011
0.0005544196826390425
0.00055442027301548
0.000554420899447394
0.0005544215437523846
0.00055442222041013
0.0005544229179363974
0.00055442363581187
0.0005544243641874092
0.0005544250957567467
0.0005544257957922765
0.0005544264528963024
0.0005544270120098953
0.0005544274493381851
0.000554427652452112
0.0005544276850401106
0.0005544274295895206
0.0005544269463698915
0.0005544262285361573
0.0005544253092142979
0.0005544242656845876
0.0005544230767095394
0.0005544218696768271
0.0005544206259136513
0.0005544193245321295
0.0005544181979527687
0.0005544170898180834
0.000554416229286186
0.0005544154786334141
0.000554415045797358
0.0005544147929754345
0.0005544147494377249
0.0005544148176421241
0.0005544149993723711
0.0005544152998114409
0.0005544155276060336
0.0005544158185606988
0.0005544159967037399
0.0005544160906590044
0.0005544160402268446
0.0005544159691411031
0.0005544156750443569
0.0005544154236519713
0.0005544150926275266
0.0005544148965582884
0.0005544147713625522
0.0005544147475100423
0.0005544148180842131
0.0005544149652267649
0.0006835101570469276
0.0006835105380687115
0.0006835109789081156
0.0006835114745829292
0.0006835120179248093
0.0006835125954722657
0.0006835132148304676
0.0006835138650499147
0.0006835145453144323
0.0006835152549936217
0.0006835159879076011
0.0006835167427452293
0.0006835175223607941
0.0006835183103906306
0.0006835191154616521
0.0006835199227199877
0.0006835207284584834
0.0006835215207110042
0.000683522294892841
0.0006835230080191853
0.0006835236546439318
0.0006835241833150863
0.0006835245561293746
0.0006835246779942279
0.0006835246106116084
0.0006835242258808261
0.000683523598208252
0.0006835227315966658
0.0006835216379365252
0.0006835204362548036
0.000683519077459691
0.0006835177248836505
0.0006835163520041771
0.0006835148925191448
0.0006835136679499148
0.000683512429966838
0.0006835114919511861
0.0006835106267398882
0.0006835101410717415
0.0006835098234015637
0.0006835097403382039
0.0006835097721846589
0.0006835099157571656
0.0006835102115144052
0.0006835103884629832
0.0006835106762517867
0.000683510825811592
0.0006835109043722167
0.0006835108250777263
0.0006835107468081899
0.0006835104363614495
0.0006835101549622819
0.0006835098162205821
0.000683509599182985
0.0006835095000749395
0.000683509491088082
0.0006835096144065266
0.0006835098194219853
0.0008184090479661658
0.0008184094774322851
0.0008184100062135141
0.0008184105979754846
0.0008184112578240643
0.0008184119663132795
0.0008184127263834795
0.0008184135310077219
0.0008184143632515967
0.0008184152418882474
0.0008184161275721119
0.0008184170438742422
0.0008184179660890566
0.0008184188882668446
0.0008184198077286768
0.0008184207124811112
0.0008184215945040019
0.00081842244651501
0.0008184232736129505
0.0008184240284632416
0.0008184247184819092
0.0008184252929840456
0.0008184257315008886
0.0008184259139528639
0.0008184258861167062
0.0008184255337461657
0.0008184249097545615
0.0008184240366990017
0.0008184228749621401
0.0008184216096040532
0.0008184201414085969
0.0008184186776893463
0.0008184171855266377
0.0008184155373437744
0.0008184141476592187
0.0008184126784937995
0.0008184115429811426
0.0008184104131580191
0.0008184097350697399
0.0008184092215855935
0.0008184089815774497
0.0008184088981885339
0.000818408948446353
0.0008184092042355103
0.0008184093289224859
0.0008184096362116417
0.0008184098066102615
0.0008184099254634678
0.0008184098809849908
0.0008184098391537486
0.000818409544158512
0.0008184092126261888
0.0008184088363916039
0.0008184085257375714
0.0008184083934723549
0.0008184083362199827
0.0008184084551556201
0.0008184086656826593
0.0009612202726778272
0.0009612207207214268
0.0009612213087855679
0.0009612219800271297
0.0009612227411103852
0.0009612235746223255
0.0009612244697491865
0.0009612254304974866
0.0009612264143273553
0.0009612274705132188
0.0009612285141240649
0.000961229601780882
0.0009612306740797928
0.0009612317416059626
0.0009612327861365648
0.0009612338045146075
0.000961234782645782
0.0009612357250178793
0.0009612366507550707
0.00096123751095849
0.0009612383384507004
0.0009612390707921679
0.0009612397106612029
0.000961240133465377
0.0009612402901243672
0.0009612401257157993
0.0009612396457003165
0.0009612388924106727
0.0009612377452765434
0.0009612364822438584
0.0009612349381565673
0.0009612333679858097
0.0009612317239221505
0.0009612298249305687
0.000961228176649831
0.0009612263528559331
0.000961224866408321
0.00096122332235574
0.000961222296918149
0.0009612214765681935
0.0009612209651262611
0.000961220688228425
0.0009612206154760339
0.0009612208023762147
0.0009612208804949436
0.0009612212343429068
0.0009612214681953841
0.000961221682185011
0.0009612217220481978
0.0009612217378534881
0.0009612214698570766
0.0009612210468086625
0.0009612205865281056
0.0009612200902090536
0.0009612198612808458
0.0009612196787646682
0.0009612197306021105
0.0009612198923155687
0.001116625840961237
0.00111662626841035
0.001116626893425268
0.001116627629871059
0.001116628482503766
0.001116629439761418
0.001116630474477605
0.001116631600970518
0.001116632748848379
0.001116634007035163
0.001116635227265524
0.001116636520569517
0.001116637773119142
0.00111663902497482
0.001116640234688223
0.00111664141482382
0.001116642541086358
0.001116643636983428
0.001116644737568463
0.001116645797208008
0.00111664686826262
0.001116647891550915
0.001116648864524216
0.001116649675017993
0.001116650178630256
0.001116650303266739
0.001116650076008255
0.001116649528328065
0.001116648441605439
0.001116647205087049
0.001116645580907228
0.001116643869828798
0.00111664202949035
0.001116639788932926
0.001116637774393689
0.001116635462446595
0.00111663350490788
0.001116631397768043
0.001116629898161865
0.001116628677020284
0.001116627808927829
0.001116627280994769
0.001116627062358249
0.001116627161556667
0.001116627199185534
0.00111662761647005
0.0011166279432352
0.001116628288191179
0.001116628427365625
0.001116628503115558
0.001116628240251653
0.00111662766627243
0.001116627059254325
0.001116626281264639
0.001116625891915862
0.001116625500448165
0.001116625431748529
0.001116625495657393
0.001292418890902598
0.00129241928259133
0.001292419935626832
0.001292420734900808
0.001292421680707522
0.001292422775442631
0.001292423963247289
0.001292425285659913
0.001292426630612601
0.001292428133864348
0.001292429581838514
0.001292431136938749
0.001292432635073792
0.001292434144016494
0.001292435597169328
0.001292437025649292
0.001292438392357105
0.001292439742744643
0.00129244112584278
0.001292442493337573
0.001292443939640291
0.001292445374250337
0.00129244680224656
0.001292448086397074
0.001292449052847057
0.001292449512591836
0.001292449556686505
0.001292449230516212
0.001292448175852189
0.001292446932081623
0.001292445169072637
0.001292443257194341
0.001292441113131951
0.001292438439766418
0.001292435950962631
0.001292433055304001
0.001292430498705801
0.001292427756661194
0.001292425700243232
0.001292424038276672
0.001292422772509562
0.001292421977076994
0.001292421619483664
0.001292421628646944
0.001292421630002651
0.001292422115314928
0.001292422540148046
0.001292422997001533
0.001292423206075432
0.001292423300927307
0.001292422971481001
0.001292422155948653
0.001292421325276506
0.001292420175486273
0.001292419572926139
0.00129241890280496
0.001292418676073234
0.001292418611474437
0.001499878072148066
0.001499878427563948
0.001499879124700339
0.001499880002837254
0.001499881070474248
0.001499882333116683
0.001499883724688988
0.001499885289493873
0.001499886895200398
0.001499888719828158
0.001499890475706574
0.001499892397749064
0.001499894244066722
0.001499896130421153
0.001499897952810714
0.001499899765679561
0.00149990151129661
0.001499903257808999
0.001499905060054418
0.001499906874672957
0.001499908806786219
0.001499910751172151
0.0014999126887305
0.001499914452850688
0.001499915832787386
0.001499916581147062
0.001499916787278138
0.001499916552158669
0.001499915398944314
0.001499914015844119
0.001499911981384463
0.001499909723889095
0.001499907167564343
0.001499903962344242
0.001499900908033986
0.001499897357363132
0.001499894199151518
0.001499890821060124
0.001499888258030308
0.001499886209983452
0.001499884607173013
0.001499883614987284
0.001499883142982511
0.001499883083577778
0.001499883054925011
0.00149988357380037
0.001499884048642682
0.00149988452632933
0.00149988468600734
0.001499884688822963
0.001499884137794763
0.001499882964911031
0.001499881811887843
0.001499880233963957
0.001499879384257122
0.001499878426293913
0.001499878028906515
0.001499877842971391
0.001752939677541349
0.001752940057066762
0.001752940855294918
0.001752941862341069
0.001752943111643024
0.001752944607611989
0.001752946272369147
0.00175294817197484
0.001752950144338101
0.001752952400736892
0.001752954603644042
0.00175295703048292
0.001752959389196129
0.001752961824888089
0.001752964198935881
0.001752966583033878
0.001752968894356657
0.001752971214498308
0.00175297358686714
0.00175297595349652
0.001752978453414354
0.001752980903059439
0.001752983275306735
0.001752985360495747
0.001752986899312549
0.00175298765900839
0.001752987743491244
0.001752987265635243
0.001752985724172638
0.001752983949193496
0.001752981412737005
0.001752978657416323
0.001752975513896362
0.001752971729527697
0.001752968089962694
0.001752963982250478
0.001752960311845938
0.001752956529914886
0.001752953668130747
0.001752951452117447
0.00175294969669323
0.001752948662471807
0.001752948159932725
0.001752948069690823
0.001752948004598619
0.001752948457786164
0.001752948834842613
0.001752949130542464
0.001752949051464982
0.001752948691362563
0.001752947695960204
0.001752946022082399
0.001752944458887808
0.001752942458658056
0.001752941380207445
0.001752940208497867
0.001752939701280623
0.00175293943845209
0.002065668349178837
0.002065668841148216
0.002065669832316652
0.002065671050051014
0.002065672582248132
0.002065674403762967
0.002065676467355541
0.00206567881840449
0.002065681304673827
0.002065684148364494
0.002065686975596427
0.0020656901045268
0.002065693182277922
0.00206569638600302
0.002065699535434813
0.002065702710555193
0.002065705789891408
0.002065708855311586
0.002065711910604731
0.002065714884069571
0.002065717893645558
0.002065720702920644
0.002065723233140774
0.002065725241523048
0.002065726427141673
0.002065726774552434
0.002065726203496327
0.002065724978736845
0.002065722653911227
0.002065720137882618
0.00206571683974869
0.002065713392971498
0.002065709591552397
0.002065705260895051
0.002065701154069675
0.002065696714181166
0.002065692882403632
0.002065689084957877
0.002065686346588255
0.002065684315518596
0.002065682727769234
0.002065681876297697
0.002065681426609402
0.002065681318253407
0.002065681156567523
0.002065681338907971
0.002065681327948947
0.002065681213215768
0.002065680494567712
0.002065679470589458
0.002065677754387008
0.002065675478082694
0.002065673449595958
0.002065671139765341
0.002065669907334176
0.002065668695608378
0.002065668206997745
0.002065667962706224
0.002449110767552545
0.002449111489840189
0.002449112783920872
0.002449114311378928
0.002449116239622384
0.002449118500620498
0.002449121094054923
0.002449124045871864
0.002449127224940852
0.00244913083339683
0.002449134506073572
0.002449138548856684
0.002449142591012427
0.0024491468012561
0.002449150966153946
0.002449155148159799
0.002449159179932204
0.002449163115334087
0.002449166891475041
0.002449170392393302
0.002449173729792609
0.002449176583874777
0.002449178827705802
0.002449180126914103
0.002449180479397195
0.002449179749952113
0.002449177878381911
0.002449175378166069
0.002449171841277503
0.002449168250387423
0.00244916397086714
0.002449159760666658
0.002449155302532639
0.002449150604551887
0.002449146307355929
0.002449141972661459
0.002449138422803868
0.002449135174682119
0.002449133047599921
0.002449131606253285
0.002449130509107156
0.002449130009229153
0.00244912968437108
0.002449129507676071
0.002449129025579273
0.002449128750368024
0.002449127983757038
0.0024491270496983
0.002449125328568479
0.002449123331528318
0.002449120658694077
0.002449117731985128
0.002449115253385502
0.002449112817214147
0.002449111551891384
0.002449110513300301
0.002449110198615132
0.002449110094851166
0.002908695649232302
0.002908696684150816
0.002908698360338973
0.002908700274769882
0.002908702692443852
0.00290870548776896
0.002908708739841729
0.002908712420096522
0.002908716458843632
0.002908721004820619
0.002908725730116737
0.00290873089985157
0.002908736136850351
0.002908741575205639
0.002908746970963736
0.002908752339282391
0.002908757455807797
0.00290876231783513
0.002908766772956406
0.002908770641034645
0.002908774009020408
0.002908776525084373
0.002908777853912695
0.002908778045423847
0.002908776971926627
0.002908774439019662
0.00290877077334132
0.002908766544605957
0.002908761469581737
0.002908756578170204
0.002908751229068861
0.002908746280441078
0.002908741347833401
0.002908736572052109
0.002908732476850045
0.002908728727764975
0.002908725989663609
0.002908723829100899
0.002908722788842724
0.002908722289710754
0.002908721934161289
0.002908721852777892
0.00290872169675661
0.002908721284741982
0.002908720252661455
0.00290871917347273
0.002908717295818683
0.002908715167938525
0.002908712101359392
0.002908708899186033
0.002908705106615273
0.002908701547232907
0.002908698670690021
0.002908696314035934
0.002908695140896894
0.002908694435989097
0.002908694420535225
0.002908694599219042
0.003441856080581217
0.00344185745296542
0.003441859526221397
0.003441861844172156
0.003441864773366573
0.00344186813789431
0.003441872100244594
0.003441876578474291
0.003441881578134097
0.003441887170529819
0.00344189309429127
0.003441899536203501
0.003441906140026782
0.003441912966761376
0.003441919750445801
0.003441926426875878
0.003441932709264281
0.003441938511843739
0.003441943577853016
0.003441947622629193
0.003441950729989394
0.003441952365975312
0.003441952751654695
0.003441951222416133
0.003441948206955619
0.00344194343643097
0.003441937625636546
0.003441931389905211
0.003441924594959993
0.00344191833147391
0.00344191195327073
0.003441906427086397
0.003441901280641763
0.003441896776046849
0.003441893308797949
0.003441890643734106
0.003441889174181596
0.003441888583648475
0.003441888992455644
0.003441889731843778
0.00344189026938588
0.003441890563862937
0.003441890575632911
0.003441889759947959
0.003441887921863144
0.00344188573602673
0.003441882431481114
0.003441878805280269
0.00344187413714288
0.003441869571041427
0.003441864553646231
0.003441860377707724
0.003441857156680574
0.003441855040602166
0.003441854086189921
0.003441853655747164
0.003441854131695965
0.003441854639805961
0.00403643522864899
0.00403643686655249
0.004036439251249428
0.004036441892641013
0.004036445248882057
0.004036449111966905
0.004036453724681833
0.004036458952944754
0.00403646488865974
0.004036471519288025
0.004036478657994318
0.004036486405170637
0.004036494430642961
0.004036502705441892
0.004036510947193052
0.004036518991228962
0.004036526484885419
0.004036533246686581
0.004036538911313527
0.004036543044523905
0.004036545524289207
0.004036546458923147
0.004036545617053436
0.004036542079747595
0.00403653694060213
0.004036529753083881
0.004036521679287946
0.004036513371168388
0.004036504851263786
0.004036497285639213
0.004036490015080716
0.004036484112259449
0.00403647904059875
0.004036475117683128
0.004036472620443632
0.004036471494892292
0.004036471607608417
0.004036472740857873
0.004036475009773371
0.004036477157292793
0.004036478655652865
0.004036479366541776
0.004036479480035392
0.004036478161824927
0.004036475320258036
0.004036471825672616
0.004036466877625584
0.004036461553912447
0.004036455114340672
0.004036449079727151
0.004036442753976126
0.004036437940734344
0.004036434423171859
0.004036432569393063
0.004036431877440719
0.004036431695676602
0.00403643265945099
0.004036433469895785
0.004671868196064684
0.004671869931293443
0.004671872437340197
0.004671875216901617
0.004671878795778218
0.004671882965527148
0.004671888028714846
0.004671893821976894
0.004671900516300756
0.004671908027168895
0.004671916239741155
0.00467192517766768
0.00467193453854435
0.00467194420408446
0.004671953881316521
0.004671963300836027
0.004671972045572532
0.004671979840158836
0.004671986225094814
0.004671990440633389
0.004671992431453085
0.004671992945039985
0.004671990791941001
0.004671985434465249
0.00467197828285745
0.004671968809029022
0.004671958603878278
0.004671948378652774
0.004671938283709706
0.004671929586916327
0.004671921591055996
0.004671915483570479
0.004671910686733853
0.004671907609573719
0.004671906333990952
0.00467190650166165
0.00467190862631488
0.004671911656694402
0.00467191589228449
0.004671919556279263
0.004671922079831531
0.004671923227774212
0.00467192343961938
0.004671921634208913
0.004671917717783573
0.00467191285773588
0.004671906189467638
0.004671899082534627
0.004671890790546809
0.004671883211854701
0.004671875495663365
0.004671869941766264
0.004671866175363864
0.004671864461103817
0.004671863961521245
0.004671863996337022
0.004671865295551035
0.004671866288572179
0.005323721326852898
0.005323722915845597
0.005323725269225653
0.005323727919189374
0.005323731422186014
0.005323735605811788
0.005323740806785821
0.005323746858368237
0.005323753998182993
0.005323762095361196
0.005323771094602118
0.005323780972811129
0.005323791449477276
0.005323802338596103
0.005323813343941812
0.005323824104260973
0.005323834143098104
0.005323843103228517
0.005323850455438844
0.005323855057421167
0.005323856990809052
0.005323857316463151
0.005323854332790226
0.005323847630229001
0.005323838881179575
0.005323827543316178
0.005323815571233044
0.005323803775166376
0.005323792382446171
0.00532378278109224
0.005323774212827239
0.005323767976465937
0.005323763618866664
0.005323761457168972
0.00532376086941176
0.005323762711682192
0.005323766680244459
0.005323771596154926
0.00532377777772908
0.005323782986732964
0.005323786597826784
0.005323788226997306
0.005323788567775596
0.005323786430158152
0.005323781513863734
0.005323775379090828
0.005323767059621895
0.005323758194132003
0.005323748047524206
0.005323738875300482
0.005323729698032647
0.005323723288135795
0.0053237191663406
0.00532371742401868
0.005323716978405157
0.005323717147794193
0.005323718530409
0.005323719513577621
0.005969303583219081
0.005969304752318729
0.005969306638370031
0.005969308852401718
0.005969311933973427
0.005969315784082503
0.005969320744663338
0.005969326674091116
0.005969333860766022
0.005969342156696221
0.005969351553848147
0.005969362018164421
0.005969373288419491
0.00596938514191979
0.005969397291378234
0.005969409308542096
0.00596942066768897
0.00596943094262277
0.005969439514455511
0.005969445170932644
0.005969447595283468
0.005969448041079021
0.00596944501760598
0.005969437689224416
0.005969427989816165
0.005969415426219672
0.00596940222710265
0.005969389347483094
0.00596937702863193
0.005969366785766829
0.005969357782509826
0.005969351385354876
0.00596934753010819
0.005969345962370807
0.005969345873134542
0.005969349189288426
0.005969354720444522
0.005969361331283151
0.005969369308373589
0.005969376004950127
0.005969380753996435
0.005969382922562269
0.005969383444878274
0.005969381230539135
0.00596937552404927
0.005969368327437319
0.005969358556545954
0.005969348058026025
0.005969336131326017
0.005969325349584247
0.005969314659066734
0.005969307269110013
0.005969302572359615
0.005969300612675766
0.005969300102369381
0.005969300222404232
0.005969301404775722
0.0059693021447166
0.00659137391583992
0.006591374400117667
0.006591375502941763
0.006591376976612392
0.006591379290060202
0.006591382450767371
0.006591386779110336
0.006591392180693328
0.006591398981923655
0.006591407043696555
0.006591416394893024
0.00659142702606947
0.006591438695540243
0.006591451176972356
0.006591464210389002
0.006591477331288049
0.006591489981853309
0.006591501686697308
0.006591511709070729
0.006591519098427735
0.006591522730577178
0.006591523701228906
0.006591521474958423
0.00659151440664745
0.006591504547192532
0.006591491531218176
0.006591477764709965
0.006591464385011856
0.006591451590178128
0.006591441010394285
0.006591431732772693
0.006591425191190958
0.006591421586810291
0.006591420262720258
0.00659142057165752
0.006591424847273127
0.006591431568952331
0.006591439544763012
0.006591449058976117
0.006591457102096461
0.00659146300538589
0.006591465773325779
0.006591466534552593
0.006591464531320251
0.006591458347361957
0.00659145038799562
0.006591439471237524
0.006591427555818205
0.006591413995917206
0.006591401632715778
0.006591389401744633
0.006591380914866095
0.00659137541092267
0.006591373033482296
0.006591372282903143
0.006591372188132479
0.006591372877452059
0.006591373133644772
0.007178939169674474
0.007178938741199508
0.007178938771278023
0.007178939228757915
0.007178940456117035
0.007178942595091762
0.007178945919272184
0.007178950397951919
0.00717895638563612
0.007178963770673646
0.00717897261164834
0.007178982953576237
0.007178994578427355
0.007179007284680712
0.007179020863325417
0.007179034846194247
0.007179048668539422
0.007179061841037807
0.007179073558145175
0.007179082938133055
0.007179088716473744
0.007179090797122529
0.007179090022486054
0.007179084190535266
0.007179075035988674
0.007179062408453074
0.007179048807469066
0.007179035575988368
0.007179022826061846
0.007179012272321958
0.00717900293162262
0.007178996267168239
0.007178992618227719
0.007178991314842021
0.007178991760383587
0.007178996414684716
0.007179003873153015
0.007179012788262986
0.007179023495295726
0.007179032669325626
0.007179039674028592
0.007179043099959383
0.007179044153495969
0.007179042618654364
0.007179036339140499
0.007179027974265655
0.007179016300004795
0.007179003269760964
0.007178988298644861
0.007178974436435769
0.007178960665201639
0.007178950974408097
0.007178944464765309
0.007178941490730429
0.00717894026837937
0.007178939765323543
0.007178939810437996
0.007178939303396828
0.00772609578524066
0.007726094080275666
0.007726092879830503
0.007726092085865197
0.007726091952642056
0.007726092778677145
0.007726094766774579
0.007726097958803112
0.00772610273133146
0.007726109011449457
0.007726116880012122
0.007726126461105639
0.00772613756494477
0.007726150036115266
0.007726163743766873
0.007726178247487143
0.007726193005514932
0.007726207554458226
0.007726221052257983
0.007726232516135927
0.007726241150197679
0.007726245368968058
0.007726246328489264
0.007726242710236382
0.007726235163236543
0.007726223799446781
0.007726211147502614
0.007726198763441197
0.007726186650680997
0.007726176559514418
0.007726167447436805
0.007726160750203265
0.007726156816565727
0.007726155370207085
0.007726155652806055
0.007726160107395201
0.007726167788835905
0.007726177153263829
0.007726188639589853
0.007726198675078929
0.007726206593904588
0.00772621074631352
0.007726212139648533
0.007726211245356863
0.007726205285989465
0.00772619690881525
0.007726184929075041
0.007726171168268505
0.00772615508682727
0.007726139874752779
0.007726124599897008
0.007726113611142836
0.007726105931759165
0.007726102212326121
0.00772610043827247
0.007726099154320345
0.007726098486469766
0.007726096938457144
0.008230279334205341
0.008230276238862032
0.00823027367325907
0.00823027126726331
0.008230269597678296
0.008230268894868898
0.00823026926363277
0.008230270847850579
0.008230274042464446
0.00823027881860092
0.008230285269404069
0.008230293617556585
0.008230303706021692
0.00823031543710896
0.008230328786742288
0.008230343370867088
0.008230358702634498
0.008230374387851723
0.008230389593943531
0.008230403278544608
0.008230414773367285
0.008230422316356052
0.008230425526650655
0.008230424803365987
0.008230419786772747
0.008230410577052278
0.008230399694535057
0.008230388898650392
0.008230378085364325
0.008230368978168224
0.008230360490655696
0.008230353977614341
0.008230349638431831
0.008230347858855432
0.008230347777763341
0.008230351486209738
0.008230358832491697
0.008230368106949519
0.008230379891057208