/*--------------------------------*- C++ -*----------------------------------*\
| =========                 |                                                 |
| \\      /  F ield         | OpenFOAM: The Open Source CFD Toolbox           |
|  \\    /   O peration     | Version:  v1812                                 |
|   \\  /    A nd           | Web:      www.OpenFOAM.com                      |
|    \\/     M anipulation  |                                                 |
\*---------------------------------------------------------------------------*/
FoamFile
{
    version     2.0;
    format      ascii;
    class       volScalarField;
    location    "10000";
    object      nuTilda_0;
}
// * * * * * * * * * * * * * * * * * * * * * * * * * * * * * * * * * * * * * //

dimensions      [0 2 -1 0 0 0 0];


internalField   nonuniform List<scalar> 
3770
(
0.0004955366796626185
0.0004955366809662058
0.0004955366806458491
0.0004955366802949693
0.0004955366799675864
0.0004955366798972673
0.0004955366794071742
0.0004955366793925427
0.0004955366792564264
0.0004955366789622772
0.0004955366790320791
0.0004955366785726469
0.0004955366784608432
0.0004955366782078754
0.0004955366779777872
0.0004955366777010359
0.000495536677485032
0.0004955366772588973
0.0004955366772853945
0.0004955366768622096
0.0004955366774326412
0.0004955366776589365
0.000495536678492584
0.0004955366798816165
0.0004955366814243879
0.0004955366837244404
0.0004955366858317905
0.0004955366882557638
0.0004955366900998041
0.0004955366920270605
0.0004955366929849243
0.0004955366947149077
0.0004955366944830136
0.0004955366949607098
0.0004955366942973223
0.0004955366943186004
0.0004955366919271473
0.0004955366911525506
0.0004955366885378659
0.0004955366866211154
0.0004955366844459201
0.0004955366825589622
0.0004955366814001686
0.0004955366802631319
0.0004955366798894076
0.0004955366796134289
0.0004955366799977276
0.0004955366803103083
0.0004955366815417219
0.0004955366825087302
0.0004955366838704617
0.0004955366847881232
0.0004955366854697877
0.0004955366852635583
0.0004955366848030173
0.0004955366840267982
0.0004955366832364715
0.0004955366826039628
0.0002973619072847102
0.0002973619256403764
0.0002973619400411288
0.0002973619694392478
0.0002973620022060004
0.0002973620394526632
0.0002973620799971197
0.0002973621238215414
0.0002973621715582683
0.0002973622205632892
0.000297362275505847
0.0002973623320611045
0.0002973623966772161
0.0002973624666238812
0.0002973625452177186
0.0002973626338106424
0.0002973627334042179
0.0002973628455391779
0.0002973629723166947
0.000297363108675095
0.0002973632609542812
0.0002973634142371046
0.0002973635730718944
0.0002973637131102872
0.0002973638393167339
0.000297363922257307
0.0002973639573365413
0.0002973639524533239
0.0002973638947105809
0.0002973638003415712
0.0002973636605848937
0.0002973634987108891
0.0002973633045015754
0.0002973630926341338
0.0002973628701675231
0.0002973626456422127
0.0002973624309855486
0.0002973622399250189
0.0002973620831322984
0.0002973619677332553
0.0002973619009603814
0.0002973618733437747
0.00029736187820904
0.0002973619117564697
0.0002973619680767114
0.0002973620359459707
0.0002973621050484081
0.0002973621702618588
0.0002973622137618355
0.0002973622389667585
0.0002973622217965405
0.0002973621901480487
0.0002973621221193372
0.000297362062781625
0.0002973620010996976
0.0002973619561576454
0.0002973619238844819
0.0002973619072295092
0.0003269536089058927
0.0003269537043812143
0.0003269537718998026
0.0003269538927231131
0.0003269540249755531
0.0003269541722657796
0.0003269543332111848
0.0003269545046724434
0.0003269546914788897
0.0003269548832855706
0.0003269550968172167
0.0003269553180177601
0.000326955568259018
0.0003269558382773591
0.0003269561397715282
0.0003269564770002314
0.0003269568526995132
0.0003269572713962345
0.0003269577382992743
0.0003269582369267773
0.0003269587813427075
0.000326959323817813
0.0003269598720293438
0.0003269603422117108
0.0003269607470169202
0.0003269609868924939
0.0003269610678947027
0.00032696098512155
0.0003269607253648663
0.0003269603364031035
0.000326959793600976
0.0003269591752505943
0.000326958454821918
0.0003269576687838038
0.0003269568671361769
0.0003269560603657015
0.0003269553103331356
0.0003269546431899792
0.0003269541217482099
0.0003269537438325516
0.000326953544264888
0.0003269534699118631
0.00032695351702983
0.0003269536617472099
0.0003269538689387671
0.000326954115621375
0.0003269543528079518
0.0003269545692109313
0.000326954696338302
0.0003269547721622674
0.0003269546806542723
0.00032695455293959
0.0003269543024445988
0.0003269540937768183
0.0003269538836899441
0.0003269537387989873
0.000326953641674177
0.000326953597913116
0.0004321585677394843
0.0004321587743442291
0.0004321589721919119
0.0004321592261298582
0.0004321594985845163
0.0004321597927051407
0.0004321601071082642
0.0004321604384050636
0.0004321607959831677
0.0004321611624782038
0.0004321615614232365
0.0004321619734725786
0.0004321624249684005
0.000432162899550338
0.0004321634134360391
0.0004321639625858337
0.0004321645495352983
0.0004321651705216755
0.0004321658255244425
0.0004321664822975197
0.0004321671436285707
0.0004321677521352757
0.0004321682951068652
0.0004321686826743621
0.0004321689029949595
0.0004321689059281084
0.0004321686930774695
0.0004321682600854196
0.0004321676281453279
0.0004321668599640995
0.0004321659273113433
0.000432164947884919
0.0004321638963759194
0.0004321627765966925
0.000432161739916292
0.0004321607305298329
0.0004321598786263348
0.0004321591434588231
0.0004321586584413016
0.0004321583488710661
0.000432158254743428
0.000432158272623279
0.0004321584190651267
0.0004321586813404923
0.0004321589325025394
0.0004321592297662263
0.0004321594609454758
0.000432159621996967
0.0004321596519860781
0.0004321596442578823
0.0004321594206772823
0.000432159208165509
0.000432158886718698
0.0004321586711361389
0.0004321584850207352
0.0004321584017152577
0.0004321583847185814
0.0004321584363470003
0.0005544152649006424
0.0005544155752568596
0.000554415904326119
0.0005544162854700828
0.0005544166976821039
0.0005544171381515512
0.0005544176057179662
0.0005544180985755848
0.0005544186226582229
0.000554419161850183
0.0005544197358597232
0.0005544203242146236
0.0005544209520480432
0.0005544215961063398
0.000554422273520976
0.0005544229711064975
0.0005544236900013479
0.0005544244179141423
0.0005544251531089207
0.0005544258495893977
0.0005544265076469436
0.0005544270667552272
0.0005544275026681391
0.0005544277075831913
0.0005544277393764493
0.0005544274865223201
0.0005544270012807631
0.0005544262838253457
0.0005544253612942887
0.0005544243213889623
0.0005544231222532812
0.0005544219196088433
0.0005544206809817963
0.0005544193767359703
0.0005544182417467096
0.0005544171464830967
0.0005544162847885094
0.0005544155330385133
0.0005544151008828176
0.0005544148453851112
0.0005544148057080251
0.0005544148740370094
0.00055441504331105
0.0005544153558765066
0.0005544155793739802
0.000554415870605687
0.0005544160513324749
0.000554416144305814
0.0005544160958010181
0.000554416020505858
0.0005544157308269607
0.0005544154766250031
0.0005544151473033717
0.0005544149490940207
0.0005544148243163791
0.0005544148005773194
0.0005544148741488098
0.0005544150214165379
0.000683510212840955
0.0006835106030226318
0.0006835110446303222
0.0006835115391647007
0.0006835120817319477
0.0006835126616155135
0.0006835132769695573
0.0006835139278099399
0.0006835146093049305
0.0006835153182179832
0.000683516052197322
0.0006835168053141633
0.000683517586850838
0.0006835183744185516
0.0006835191806735867
0.0006835199881387859
0.0006835207949082698
0.0006835215858450757
0.0006835223636785246
0.0006835230750433853
0.0006835237206912041
0.0006835242494995681
0.0006835246202831982
0.0006835247445470314
0.0006835246776325101
0.0006835242952299467
0.0006835236649349679
0.0006835227977742318
0.0006835217013139228
0.0006835205040214616
0.0006835191330106889
0.0006835177796823489
0.0006835164182368782
0.0006835149589995132
0.0006835137209260054
0.0006835124945658664
0.000683511564220337
0.0006835106937748459
0.0006835102065877371
0.0006835098878745364
0.0006835098095215419
0.0006835098460534985
0.0006835099667749714
0.000683510279491853
0.000683510453929666
0.000683510737326457
0.0006835108923797095
0.0006835109707075526
0.0006835108938601431
0.0006835108083640125
0.0006835105050515632
0.0006835102196864541
0.0006835098831508517
0.0006835096632179648
0.0006835095648993853
0.0006835095559380085
0.000683509682272784
0.0006835098859485792
0.0008184091101461042
0.0008184095554276654
0.0008184100823843873
0.0008184106738775709
0.0008184113324052199
0.0008184120432715116
0.0008184127977422204
0.0008184136052753004
0.0008184144374855044
0.0008184153154240302
0.0008184162032770049
0.0008184171159270978
0.0008184180419282223
0.0008184189631653427
0.0008184198842280412
0.0008184207894798278
0.0008184216727284404
0.0008184225234473229
0.0008184233539306798
0.0008184241063198717
0.0008184247972617768
0.0008184253700623896
0.0008184258068861038
0.0008184259937278443
0.0008184259661885984
0.0008184256167624371
0.0008184249882746315
0.0008184241141955529
0.0008184229493349724
0.0008184216883049687
0.0008184202060750875
0.0008184187410611099
0.0008184172584860344
0.0008184156151416625
0.000818414209443689
0.0008184127548826874
0.0008184116269059869
0.0008184104949769796
0.000818409808453636
0.000818409297218938
0.0008184090648592096
0.0008184089858714685
0.0008184090046520878
0.0008184092842992328
0.0008184094080260404
0.0008184097066253254
0.0008184098840668935
0.0008184100051329122
0.0008184099614639652
0.0008184099112479916
0.0008184096250342824
0.0008184092877378029
0.0008184089147035297
0.000818408600203943
0.0008184084698853138
0.0008184084135686041
0.0008184085340254219
0.0008184087416507424
0.0009612203511732894
0.0009612208113893072
0.000961221396000073
0.000961222066620901
0.0009612228268046664
0.0009612236609245081
0.0009612245525066265
0.0009612255167796022
0.0009612264985672462
0.0009612275561279867
0.00096122859869169
0.0009612296846180434
0.0009612307612678923
0.0009612318275251666
0.0009612328739394719
0.0009612338932418651
0.0009612348724027213
0.0009612358127206994
0.0009612367411433512
0.0009612376033556173
0.0009612384265126171
0.0009612391589482027
0.0009612397965313094
0.0009612402249791584
0.0009612403826077288
0.0009612402210722712
0.0009612397369699549
0.000961238979986399
0.0009612378327169522
0.0009612365727570886
0.0009612350135167928
0.0009612334306199422
0.0009612318094602193
0.0009612299165870861
0.0009612282484530323
0.0009612264311716106
0.0009612249722276979
0.0009612234164852198
0.0009612223782888184
0.0009612215649368458
0.0009612210607035324
0.0009612207947020542
0.0009612206807578003
0.000961220894273599
0.0009612209739213431
0.0009612213131199841
0.0009612215558139886
0.000961221779084579
0.0009612218073813963
0.0009612218217893114
0.0009612215619177107
0.0009612211332178227
0.0009612206759258177
0.0009612201762293442
0.0009612199500717441
0.0009612197680645077
0.0009612198208063704
0.000961219978153184
0.001116625921078485
0.001116626372962283
0.001116626991753666
0.00111662772807989
0.001116628579725784
0.001116629537727755
0.001116630565112323
0.001116631698693043
0.001116632843093185
0.001116634101931862
0.001116635324147878
0.001116636611684012
0.001116637871156887
0.001116639121641131
0.001116640333874401
0.001116641515325653
0.001116642643754357
0.001116643736963301
0.001116644840254913
0.001116645899666647
0.001116646971261564
0.001116647990900323
0.00111664896249781
0.001116649782443726
0.001116650285393426
0.001116650413736826
0.001116650178592043
0.001116649628128765
0.001116648539666665
0.00111664730798125
0.001116645665277525
0.00111664394403616
0.001116642118803951
0.0011166398918975
0.001116637854430645
0.001116635552596841
0.001116633620033347
0.001116631508150099
0.001116629988014724
0.001116628777909204
0.001116627915814842
0.00111662740198098
0.001116627135650471
0.001116627265794303
0.001116627306888887
0.001116627705169285
0.001116628042018823
0.001116628395646439
0.001116628527681301
0.001116628595553198
0.001116628345030037
0.001116627762743109
0.001116627159630368
0.001116626377560549
0.001116625993678151
0.001116625602358777
0.001116625532913451
0.001116625590083795
0.001292418989263765
0.001292419402787461
0.001292420045450302
0.001292420843788744
0.001292421790155829
0.001292422882156599
0.001292424069881023
0.001292425396317181
0.001292426734696843
0.001292428241797142
0.001292429686791525
0.001292431241282697
0.001292432744482693
0.001292434252028387
0.001292435707704252
0.001292437138110575
0.001292438506673082
0.001292439851864556
0.001292441235558096
0.001292442612758085
0.001292444052087662
0.001292445485214773
0.001292446911720686
0.00129244820243141
0.001292449175359002
0.00129244963222298
0.001292449673557204
0.001292449339569113
0.001292448290190862
0.001292447048350491
0.001292445270017888
0.001292443327925972
0.001292441217931333
0.001292438560696043
0.001292436045698693
0.00129243314391109
0.00129243063947188
0.001292427875686354
0.001292425797875018
0.001292424148704319
0.001292422892705629
0.001292422118809931
0.00129242170362784
0.0012924217415494
0.001292421754014791
0.001292422212924935
0.001292422647530103
0.00129242311958565
0.001292423317148142
0.001292423402385497
0.001292423087340304
0.001292422265486036
0.001292421437010294
0.001292420284893556
0.001292419688812683
0.001292419017909155
0.001292418786791015
0.001292418714989253
0.001499878168096518
0.001499878559788985
0.001499879245542878
0.001499880124133606
0.001499881191950014
0.001499882453188187
0.001499883835882747
0.001499885411047567
0.001499887008675143
0.001499888835993905
0.001499890593335111
0.001499892507835694
0.001499894363246327
0.001499896248391591
0.001499898074465583
0.001499899890153118
0.001499901639429502
0.001499903381717953
0.001499905186225701
0.001499907002981412
0.001499908936312127
0.001499910874873943
0.001499912810842554
0.001499914590154123
0.001499915971711289
0.001499916719591282
0.001499916914834494
0.001499916676533794
0.001499915523361165
0.001499914145538543
0.001499912088752386
0.001499909812724456
0.001499907275018874
0.001499904089586883
0.001499901006426713
0.001499897460053213
0.00149989434420082
0.001499890955646632
0.001499888365118078
0.001499886331269259
0.001499884745347221
0.001499883766515785
0.0014998832398953
0.00149988320244811
0.001499883194442545
0.001499883682939007
0.001499884166814885
0.001499884654789124
0.001499884818424556
0.001499884800670149
0.001499884266495357
0.001499883083476291
0.001499881933727266
0.001499880351748372
0.00149987951301539
0.001499878553991887
0.001499878152154217
0.001499877955435587
0.001752939795608931
0.001752940202614234
0.001752940985944039
0.001752941992881658
0.00175294324380745
0.001752944735147087
0.001752946399817121
0.001752948305907653
0.001752950266072341
0.001752952529211863
0.001752954726380198
0.001752957153044949
0.001752959517778802
0.001752961951930882
0.001752964329403002
0.001752966717137896
0.001752969030950234
0.001752971345780813
0.001752973718682852
0.001752976097471441
0.001752978589536835
0.001752981037053254
0.001752983406743755
0.001752985503949881
0.001752987048333247
0.001752987803917342
0.001752987884363137
0.001752987398864987
0.00175298586559955
0.001752984090650922
0.001752981537121864
0.001752978743762709
0.001752975640255429
0.001752971871088045
0.001752968203292241
0.001752964084423394
0.001752960481927223
0.001752956667109668
0.001752953781571405
0.001752951578422133
0.00175294985004597
0.001752948827668716
0.001752948269693225
0.001752948197351728
0.001752948154085821
0.001752948577072316
0.001752948960565681
0.001752949270127923
0.001752949192467744
0.001752948811672716
0.001752947831844493
0.001752946152925823
0.001752944589803756
0.001752942589247606
0.001752941521366702
0.001752940346386816
0.001752939833899378
0.001752939561840377
0.002065668463448875
0.002065668990526408
0.002065669970509513
0.002065671189794344
0.002065672722320434
0.002065674542564802
0.002065676594398956
0.002065678957668139
0.002065681432248194
0.002065684280323671
0.002065687106752022
0.002065690228399359
0.002065693315428027
0.002065696518501148
0.002065699672975907
0.002065702852466537
0.002065705937013781
0.002065708999070008
0.002065712058703244
0.002065715033064463
0.002065718043678081
0.002065720846468215
0.002065723375182005
0.002065725401581613
0.002065726584881375
0.002065726937045056
0.002065726351701466
0.002065725124918036
0.002065722800520915
0.002065720288413214
0.002065716965174941
0.002065713501048499
0.002065709717380368
0.002065705401017835
0.002065701264564615
0.002065696830240448
0.002065693045108793
0.002065689232016664
0.002065686468303038
0.002065684449187298
0.002065682895801166
0.002065682039509179
0.002065681546129453
0.002065681455617618
0.00206568130961942
0.002065681469595642
0.002065681462941705
0.002065681357072861
0.00206568064767961
0.002065679600244497
0.002065677898929651
0.002065675613649707
0.002065673585463256
0.002065671274364658
0.002065670054219152
0.002065668839622704
0.002065668349316586
0.002065668093909509
0.002449110895376467
0.002449111643463012
0.002449112927424394
0.002449114455532658
0.002449116384204941
0.002449118643864599
0.002449121228980223
0.00244912418978408
0.002449127356255731
0.002449130969863854
0.002449134638672061
0.0024491386783706
0.002449142727238881
0.002449146937178239
0.002449151107223407
0.002449155293784953
0.002449159330626726
0.002449163262044873
0.002449167043279975
0.0024491705481133
0.002449173882398262
0.002449176730470434
0.002449178971487994
0.002449180281381158
0.002449180638435005
0.002449179913230614
0.002449178031928859
0.002449175527851892
0.002449171994903422
0.002449168406162114
0.002449164103592525
0.002449159871888173
0.002449155437969747
0.002449150751795649
0.002449146425475367
0.002449142092877701
0.002449138593923353
0.002449135321987578
0.002449133175747643
0.002449131742164781
0.002449130683922386
0.002449130174770814
0.002449129810317246
0.002449129650213497
0.002449129185463392
0.002449128886803695
0.002449128121952975
0.002449127198057066
0.002449125481484333
0.002449123465202657
0.002449120804612359
0.002449117873970983
0.00244911539316406
0.002449112958956367
0.002449111701782634
0.002449110659845532
0.002449110347652481
0.002449110234431899
0.00290869577271116
0.00290869683266805
0.002908698505056774
0.002908700420559305
0.002908702837504881
0.002908705634299572
0.002908708870001142
0.002908712561182589
0.002908716589739603
0.002908721138329507
0.002908725863384983
0.00290873102610683
0.002908736271263816
0.002908741710722365
0.002908747113086921
0.002908752486434444
0.002908757610258089
0.002908762470105502
0.002908766933192321
0.002908770796538762
0.002908774166884135
0.002908776672217984
0.002908777999972643
0.002908778202942627
0.002908777132514413
0.002908774606435647
0.002908770927390015
0.002908766697614329
0.002908761620440849
0.002908756734135775
0.002908751357618616
0.002908746403461168
0.002908741478305839
0.002908736713287882
0.002908732587892572
0.002908728857392341
0.002908726144583869
0.002908723977853648
0.00290872292085605
0.002908722428634097
0.002908722107387159
0.002908722009311767
0.002908721828595655
0.002908721427647777
0.002908720411342525
0.002908719313514886
0.002908717436725587
0.002908715314571054
0.00290871225626913
0.002908709036663851
0.00290870525366182
0.002908701688210124
0.002908698808872641
0.002908696454045114
0.002908695285983135
0.002908694580867981
0.00290869457548207
0.002908694740593242
0.003441856204055055
0.003441857594730859
0.003441859667851925
0.003441861985769246
0.003441864913927564
0.003441868280512923
0.003441872226737244
0.003441876713705474
0.003441881704725293
0.003441887298891998
0.00344189322250435
0.003441899658874587
0.003441906270062517
0.003441913098841924
0.003441919889688903
0.00344192657132596
0.003441932861221025
0.003441938661821819
0.003441943736289132
0.003441947774841937
0.003441950882816106
0.003441952506432034
0.00344195289052874
0.003441951368305329
0.003441948356459014
0.003441943594635011
0.003441937774152167
0.003441931537129099
0.003441924740082973
0.003441918482161553
0.003441912077188063
0.003441906548224868
0.003441901407829464
0.003441896915313626
0.003441893416044451
0.003441890779093237
0.003441889313929991
0.003441888732342735
0.003441889124756884
0.003441889869277772
0.003441890433842121
0.003441890704052795
0.003441890715681047
0.003441889898095124
0.003441888074358856
0.003441885873761921
0.003441882568290898
0.003441878946001273
0.003441874284128517
0.00344186970457866
0.003441864694393464
0.003441860516352065
0.003441857292104786
0.003441855176748231
0.003441854226716548
0.003441853797645832
0.00344185428440343
0.003441854780603575
0.004036435341033763
0.004036436993630503
0.004036439382911161
0.004036442024110393
0.004036445378896851
0.004036449244929585
0.004036453838946218
0.004036459075029195
0.004036465004920111
0.004036471635767743
0.004036478776345396
0.004036486517292967
0.004036494550687906
0.004036502829106348
0.004036511079051435
0.004036519128879289
0.004036526631005337
0.004036533392124546
0.004036539066133895
0.004036543186395447
0.004036545667563297
0.004036546594022026
0.004036545745510951
0.004036542214734202
0.004036537077284492
0.004036529900279112
0.004036521817331912
0.004036513508641557
0.004036504983559756
0.004036497424278819
0.004036490126591282
0.004036484228359772
0.004036479155465267
0.004036475246192771
0.004036472712033117
0.004036471616309011
0.004036471734176011
0.004036472882196128
0.004036475134338249
0.004036477285714594
0.004036478807934552
0.004036479496007726
0.004036479609909886
0.004036478289635537
0.004036475460312309
0.004036471955441809
0.0040364670060704
0.004036461683448497
0.00403645525098812
0.004036449205890252
0.004036442884807307
0.004036438069010486
0.004036434548879899
0.004036432692271523
0.004036432005496562
0.00403643182631253
0.004036432802806536
0.004036433602055181
0.004671868294534578
0.004671870039825578
0.004671872553045788
0.004671875331823578
0.004671878909115002
0.004671883081764729
0.004671888127181756
0.00467189392633463
0.004671900616942722
0.004671908127501764
0.004671916342776024
0.004671925275837475
0.004671934644732013
0.004671944315196603
0.004671954001268283
0.00467196342709126
0.004671972180163144
0.004671979974539412
0.004671986370505762
0.004671990564578691
0.004671992559339962
0.004671993065171176
0.004671990901867139
0.004671985547365226
0.004671978396752545
0.004671968935244064
0.004671958724161445
0.004671948498924274
0.00467193839840015
0.004671929707841633
0.004671921685813689
0.004671915585198552
0.004671910784646072
0.004671907717494455
0.0046719064149703
0.004671906609620376
0.004671908736322359
0.004671911785231118
0.004671916005177774
0.004671919669789517
0.004671922213987739
0.004671923342772187
0.004671923556073826
0.004671921746711706
0.004671917840030012
0.004671912972504362
0.004671906302553272
0.004671899194452636
0.00467189090808918
0.004671883321837879
0.004671875608789296
0.004671870054009715
0.004671866289044002
0.004671864568212438
0.004671864073173996
0.004671864110802093
0.004671865423689335
0.004671866406581628
0.005323721404657798
0.005323723000481702
0.005323725363263808
0.005323728012543454
0.005323731513875662
0.005323735700280602
0.005323740883784487
0.005323746939908743
0.005323754078105207
0.005323762174610982
0.005323771177732519
0.005323781051996904
0.00532379153729234
0.005323802432963664
0.005323813448067091
0.005323824215568493
0.005323834262917729
0.005323843223603171
0.005323850585811156
0.00532385516321186
0.005323857100515514
0.005323857418386419
0.005323854422810112
0.005323847721616488
0.005323838972164048
0.005323827646768486
0.005323815670305665
0.005323803874954323
0.005323792475263787
0.005323782879454631
0.005323774285851102
0.005323768059708685
0.005323763693172334
0.005323761541964228
0.005323760929596871
0.005323762800115235
0.005323766766158164
0.005323771704037797
0.005323777871419002
0.005323783079019384
0.005323786708385925
0.005323788320905214
0.005323788664715774
0.005323786522554858
0.005323781613946643
0.005323775474090743
0.005323767153339865
0.00532375828492555
0.005323748143504631
0.00532373896590461
0.00532372979018029
0.005323723379446277
0.005323719259196322
0.005323717509265487
0.005323717067640547
0.005323717239378069
0.005323718637049555
0.005323719610641276
0.00596930363849006
0.005969304811407258
0.005969306707782691
0.005969308920988885
0.00596931200085868
0.005969315853340434
0.005969320797981252
0.005969326730712364
0.005969333917097515
0.00596934221263476
0.005969351614341041
0.00596936207640685
0.005969373355917495
0.00596938521740308
0.005969397377488452
0.005969409402721879
0.005969420770089798
0.005969431045508337
0.005969439626141678
0.005969445256854027
0.005969447682933368
0.005969448120283021
0.005969445083595926
0.005969437753006143
0.005969428052194341
0.005969415501857666
0.005969402300772842
0.005969389423088414
0.005969377097502581
0.005969366859512435
0.005969357831806456
0.005969351446252412
0.005969347579992193
0.005969346023190386
0.005969345911275551
0.005969349255936248
0.005969354783409201
0.005969361417022528
0.005969369381843187
0.005969376074701026
0.005969380839831626
0.005969382993735661
0.00596938351956879
0.00596938130039365
0.005969375599554447
0.005969368398869477
0.005969358627106122
0.005969348123975922
0.005969336200758032
0.005969325415153443
0.005969314725588291
0.005969307337417367
0.00596930264307213
0.005969300674890759
0.005969300167996295
0.005969300288688118
0.005969301487335083
0.005969302218011536
0.006591373946035652
0.006591374432025963
0.006591375545898765
0.00659137701896636
0.006591379330751016
0.006591382493396756
0.006591386806767524
0.006591392210842445
0.006591399012820376
0.006591407074545609
0.006591416430951038
0.006591427061289627
0.006591438740895225
0.006591451231953691
0.006591464277144682
0.006591477407321683
0.006591490066242886
0.006591501771812378
0.006591511802002819
0.006591519165117234
0.006591522795826453
0.006591523757485326
0.006591521518447337
0.00659151444596031
0.006591504584367042
0.006591491580729975
0.006591477813203392
0.006591464436169438
0.006591451634288421
0.006591441058354129
0.006591431757015134
0.006591425228740134
0.006591421612799586
0.006591420294216725
0.006591420583761925
0.006591424888849264
0.00659143160592761
0.006591439604101887
0.006591449108010287
0.006591457146580105
0.006591463064339297
0.00659146581901668
0.006591466584368639
0.006591464576988553
0.006591458397318111
0.006591450434745313
0.006591439517822968
0.006591427596994265
0.006591414039860728
0.006591401673757111
0.006591389442792533
0.006591380957390334
0.006591375455793322
0.006591373069074263
0.00659137232222464
0.006591372226210689
0.006591372933775405
0.006591373180514646
0.007178939175403533
0.007178938746629347
0.007178938787897927
0.007178939244681461
0.00717894047037843
0.007178942610894873
0.007178945921439178
0.007178950402028359
0.007178956390973805
0.007178963776565041
0.007178972623144689
0.007178982965925235
0.007178994601798388
0.007179007319149205
0.007179020910692727
0.007179034904047327
0.007179048734679565
0.007179061907357992
0.007179073629285474
0.007179082987640832
0.007179088758260058
0.007179090827714408
0.007179090041600522
0.00717908420176844
0.00717907504442982
0.007179062429827522
0.007179048829288912
0.007179035601674456
0.00717902284556268
0.007179012295143035
0.007179002931006381
0.007178996280354179
0.007178992619773662
0.007178991321187752
0.007178991748163523
0.007178996432052509
0.007179003887175673
0.007179012823378073
0.007179023522023891
0.007179032689928027
0.007179039707608355
0.007179043121018662
0.007179044178544114
0.007179042640167819
0.007179036363673057
0.007179027995664772
0.007179016321726453
0.007179003285054646
0.00717898831502758
0.007178974450332434
0.007178960678835559
0.007178950991791049
0.007178944486013224
0.007178941501200143
0.007178940282667907
0.007178939778198712
0.007178939837797726
0.00717893932541658
0.007726095765217359
0.007726094059373898
0.007726092870188796
0.007726092075699639
0.00772609194097768
0.007726092768176216
0.007726094743364075
0.007726097937020624
0.00772610271116171
0.007726108992311726
0.007726116866827159
0.007726126450128538
0.007726137565986445
0.007726150049915181
0.007726163771790611
0.007726178287487863
0.007726193054240266
0.007726207603292958
0.007726221104708472
0.007726232548035336
0.007726241171232559
0.007726245373670613
0.007726246325949526
0.007726242698056983
0.007726235148082817
0.007726223796398458
0.007726211145108321
0.00772619876525184
0.007726186646299915
0.007726176557638064
0.007726167422162982
0.007726160738617907
0.007726156792663796
0.007726155351538811
0.007726155614464713
0.007726160098961211
0.007726167777799778
0.007726177161687414
0.007726188641239621
0.007726198670476988
0.007726206601519566
0.00772621074206971
0.007726212139382484
0.00772621124279653
0.007726205285706761
0.007726196905728703
0.007726184926954952
0.007726171159568265
0.007726155078766996
0.007726139864451833
0.007726124588541075
0.0077261136031354
0.007726105926445312
0.007726102196839652
0.007726100425734696
0.00772609914006436
0.00772609848813328
0.007726096932935583
0.008230279289923993
0.008230276193057561
0.008230273638685719
0.008230271232476896
0.008230269560688435
0.008230268859030443
0.008230269215719758
0.008230270801358819
0.008230273997797093
0.008230278775507312
0.008230285232486534
0.008230293584284542
0.008230303685727124
0.008230315431123762
0.008230328796204821
0.008230343393777506
0.008230358734567039
0.008230374419371689
0.008230389628021497
0.008230403291087575
0.008230414773055115
0.008230422296708482
0.00823042549866416
0.008230424764488998
0.008230419744314927
0.008230410548120473
0.008230399667193329
0.008230388876465839
0.008230378057851526
0.008230368952929218
0.008230360441735429
0.008230353941495948
0.008230349588920266
0.008230347820292493
0.008230347716780589
0.008230351454235986
0.008230358800131666
0.008230368092499905