/*--------------------------------*- C++ -*----------------------------------*\
| =========                 |                                                 |
| \\      /  F ield         | OpenFOAM: The Open Source CFD Toolbox           |
|  \\    /   O peration     | Version:  v1812                                 |
|   \\  /    A nd           | Web:      www.OpenFOAM.com                      |
|    \\/     M anipulation  |                                                 |
\*---------------------------------------------------------------------------*/
FoamFile
{
    version     2.0;
    format      ascii;
    class       volScalarField;
    location    "10000";
    object      p;
}
// * * * * * * * * * * * * * * * * * * * * * * * * * * * * * * * * * * * * * //

dimensions      [0 2 -2 0 0 0 0];


internalField   nonuniform List<scalar> 
3770
(
-6.096669835492254e-10
-5.549637888662962e-08
-4.368247722269887e-08
1.423069889275042e-08
1.186153537795955e-07
2.475514168348016e-07
4.0311431153526e-07
5.774363354698528e-07
7.681410440711335e-07
9.737420066755122e-07
1.193890888990356e-06
1.426011046611611e-06
1.679122754661042e-06
1.955129800156865e-06
2.255026086725249e-06
2.591780368230307e-06
2.968750520244534e-06
3.391397670012572e-06
3.879939604363857e-06
4.420524998247918e-06
5.049599455061701e-06
5.729997935725367e-06
6.498957383774016e-06
7.278371262782345e-06
8.064531671033077e-06
8.78651699757508e-06
9.332991029653181e-06
9.701275789344382e-06
9.810109992889663e-06
9.71491141184424e-06
9.382925739709192e-06
8.870114045538527e-06
8.183692009092933e-06
7.338672474147155e-06
6.398386957152775e-06
5.328062781221997e-06
4.2396303343837e-06
3.11940218485094e-06
2.085811383808376e-06
1.201338068106972e-06
5.190272829761338e-07
6.981257225438088e-08
-1.831979664491681e-07
-2.18605899022638e-07
-1.147007512307168e-07
1.347190318399541e-07
4.421648976065583e-07
8.320143772477993e-07
1.177945635822979e-06
1.518861161919227e-06
1.708086896310538e-06
1.753800392663791e-06
1.607615592770142e-06
1.312104791228504e-06
9.797722706581883e-07
6.252709846065017e-07
3.53162657331608e-07
1.267043565620495e-07
-6.538836889265004e-10
-5.573923320455518e-08
-4.368283842019203e-08
1.422557876058502e-08
1.185799111449393e-07
2.475254163621905e-07
4.030983315379214e-07
5.774239936013195e-07
7.681155526280101e-07
9.73723882433642e-07
1.193873776782968e-06
1.425993957122755e-06
1.679101541829776e-06
1.955089668296536e-06
2.25497690825601e-06
2.591707101521181e-06
2.968650654607799e-06
3.391247513567547e-06
3.879742540935358e-06
4.420266594710536e-06
5.049274442192386e-06
5.729584481984235e-06
6.4984950775186e-06
7.277866578196476e-06
8.06402207918182e-06
8.786111174098983e-06
9.332704767983512e-06
9.701114279384169e-06
9.810054392527813e-06
9.714941217806882e-06
9.383086310607383e-06
8.870319245218114e-06
8.183947670098818e-06
7.339091498848547e-06
6.398903015213215e-06
5.3286306162276e-06
4.240204366128965e-06
3.1199688817044e-06
2.086218672257523e-06
1.201656497126773e-06
5.191656748181817e-07
6.98201870424573e-08
-1.832083587232221e-07
-2.18717993932961e-07
-1.148990828341532e-07
1.345206375067601e-07
4.418769237134368e-07
8.317727199653112e-07
1.177738623397897e-06
1.518684992109228e-06
1.708089888031056e-06
1.753923937492541e-06
1.607883067642262e-06
1.312360592357025e-06
9.799963223333506e-07
6.254072273702525e-07
3.532790083529462e-07
1.270558242936637e-07
-5.611466340872758e-10
-5.610222608875085e-08
-4.376971158089857e-08
1.416421597864378e-08
1.184834192915821e-07
2.474610832604607e-07
4.030525115940905e-07
5.773907129258442e-07
7.680592309252939e-07
9.73682609114392e-07
1.193833245593023e-06
1.425945351378767e-06
1.679044499766125e-06
1.954994966707877e-06
2.254867131901708e-06
2.591555219583811e-06
2.96845768656753e-06
3.390980113542317e-06
3.879410485436364e-06
4.419856325321679e-06
5.048800457751827e-06
5.729013332329019e-06
6.497915857689982e-06
7.277299142412338e-06
8.063528145402458e-06
8.785854554226701e-06
9.332660936803918e-06
9.701251728766113e-06
9.810312347645726e-06
9.715275277432125e-06
9.383574516628744e-06
8.870804292601791e-06
8.184422878977947e-06
7.339793836608929e-06
6.399659824378216e-06
5.329386580254434e-06
4.240842280909071e-06
3.120546513149735e-06
2.086436793814926e-06
1.201748717403956e-06
5.189696175723386e-07
6.949607486359574e-08
-1.834627519244611e-07
-2.190913372860986e-07
-1.153028007382091e-07
1.341777445698681e-07
4.414695810986661e-07
8.315127068476529e-07
1.177591912314038e-06
1.518617724423754e-06
1.708328918620644e-06
1.754296836138245e-06
1.608400192894486e-06
1.312745814967248e-06
9.802527546217301e-07
6.25483320426847e-07
3.533053988089312e-07
1.273628992316691e-07
-4.970765437810616e-10
-5.654885308597542e-08
-4.39684725108615e-08
1.402741128912951e-08
1.183118774601794e-07
2.473365377609063e-07
4.029730656128566e-07
5.773312389462183e-07
7.679668759493247e-07
9.736133824324088e-07
1.193759446585855e-06
1.425864332093186e-06
1.678953268546227e-06
1.954845323700485e-06
2.254694979771983e-06
2.591327225476616e-06
2.968173903446874e-06
3.390599935892414e-06
3.87895464952327e-06
4.419330219011003e-06
5.048211824331436e-06
5.728349509682198e-06
6.497310926982986e-06
7.276773449595059e-06
8.063191469238831e-06
8.78588379418468e-06
9.332998525431432e-06
9.701807692207769e-06
9.8109814345685e-06
9.71596366178918e-06
9.38440049866711e-06
8.871538382107215e-06
8.18509397837041e-06
7.340712888040824e-06
6.400571684017516e-06
5.330235471268236e-06
4.241469299365583e-06
3.120986536401968e-06
2.086335535416054e-06
1.201477864566971e-06
5.18326979077656e-07
6.87321551562557e-08
-1.840692516844701e-07
-2.197501371552907e-07
-1.159433073059556e-07
1.337056341377313e-07
4.409840516082341e-07
8.31296451802696e-07
1.177592803149652e-06
1.518744031646871e-06
1.708877372498811e-06
1.754960862108162e-06
1.609168578978717e-06
1.313233776965625e-06
9.804990661142012e-07
6.254377719883863e-07
3.531714974046003e-07
1.2750355656208e-07
-6.016091786875299e-10
-5.706014908285908e-08
-4.425826180539626e-08
1.38193135782655e-08
1.180820726020441e-07
2.471678478577588e-07
4.028568654879177e-07
5.77247329723621e-07
7.678448170673504e-07
9.735169471000202e-07
1.193658229110321e-06
1.425746193796766e-06
1.678822841047637e-06
1.95464094520367e-06
2.254457921296247e-06
2.591019474710254e-06
2.967798539545118e-06
3.390109317007681e-06
3.878376474039146e-06
4.418671616619803e-06
5.047507725185927e-06
5.72757670227494e-06
6.496656140894428e-06
7.27626999392427e-06
8.062972241409022e-06
8.786165412174829e-06
9.333666915934887e-06
9.702745803358354e-06
9.812029801830285e-06
9.717003463152867e-06
9.385570466702592e-06
8.872567649723722e-06
8.185996346847083e-06
7.341862470965548e-06
6.401665396743926e-06
5.331199860066113e-06
4.242084781900527e-06
3.121327719359135e-06
2.085959068793213e-06
1.200881201445876e-06
5.172868294068626e-07
6.75932676938746e-08
-1.849843783479948e-07
-2.206807410047825e-07
-1.167928220344212e-07
1.331009719520662e-07
4.404188502277878e-07
8.311016212872488e-07
1.177696779751157e-06
1.519044175780224e-06
1.709699269293108e-06
1.755894425509678e-06
1.610169599084614e-06
1.313819435132483e-06
9.807476246754878e-07
6.253080882665817e-07
3.529156421824982e-07
1.274842277359391e-07
-7.816658063032215e-10
-5.763164499447961e-08
-4.46346321307305e-08
1.353964031054557e-08
1.1778748090051e-07
2.469360149236756e-07
4.027041394932109e-07
5.771328579714089e-07
7.67688439983847e-07
9.733881844538487e-07
1.19351908730532e-06
1.425593110195087e-06
1.678656487857897e-06
1.954385061189471e-06
2.254157464457232e-06
2.590634169009017e-06
2.967329831255037e-06
3.389500680073905e-06
3.877662754088904e-06
4.41788105906155e-06
5.046662219444372e-06
5.726677030470294e-06
6.495921762856636e-06
7.275740206400504e-06
8.062826870967597e-06
8.786632030108891e-06
9.33461370945504e-06
9.704009873869382e-06
9.813420856702897e-06
9.718337724545806e-06
9.387028812019345e-06
8.873833846948025e-06
8.187108373345818e-06
7.343217716185658e-06
6.402943153758069e-06
5.33231251142428e-06
4.24278731073126e-06
3.121629517722916e-06
2.085398903593875e-06
1.200028409150807e-06
5.159099819684242e-07
6.610185239914447e-08
-1.862188733237109e-07
-2.218558815128427e-07
-1.178690974610256e-07
1.323578478538189e-07
4.397671017740279e-07
8.309062051042601e-07
1.177899821473757e-06
1.519495792333083e-06
1.710779682253537e-06
1.757084036275793e-06
1.611402663006228e-06
1.314519437751292e-06
9.810191801859812e-07
6.251091877411612e-07
3.525396178361732e-07
1.273193309933053e-07
-1.114567917036365e-09
-5.826483244014582e-08
-4.508838230864551e-08
1.31894116094941e-08
1.174393623299281e-07
2.46657923469278e-07
4.025064595346295e-07
5.769871643302959e-07
7.675002605065367e-07
9.732236736120447e-07
1.193344583586967e-06
1.425392800051114e-06
1.678440188459018e-06
1.954067353473878e-06
2.253779396739582e-06
2.590154923775135e-06
2.966753616124982e-06
3.388763802355967e-06
3.876804861467186e-06
4.416928232412194e-06
5.045667621581018e-06
5.725632175326811e-06
6.495090678782355e-06
7.275184295963237e-06
8.062741742623835e-06
8.787292017779638e-06
9.335832511716494e-06
9.705611018296267e-06
9.815165191563648e-06
9.720011726923338e-06
9.388826585467062e-06
8.875424810389206e-06
8.188495541008013e-06
7.344820363704939e-06
6.404443951879454e-06
5.333600593691013e-06
4.243554531635758e-06
3.121905989914891e-06
2.084654383664702e-06
1.198913239715085e-06
5.142042861543125e-07
6.42878746132501e-08
-1.877487782148016e-07
-2.232870245034711e-07
-1.191516848775425e-07
1.314680537032638e-07
4.390277568678867e-07
8.306973886910409e-07
1.178171799112554e-06
1.520099291503911e-06
1.712103462933111e-06
1.758526416806485e-06
1.612859132132777e-06
1.315327756612445e-06
9.81316104410394e-07
6.248637005749087e-07
3.520688661735915e-07
1.270173706281519e-07
-1.515589003118776e-09
-5.896907650604006e-08
-4.563353312055528e-08
1.275494007264405e-08
1.170155412826458e-07
2.462971913792909e-07
4.022568056520564e-07
5.767915972879016e-07
7.672638868560087e-07
9.730088356670577e-07
1.193110526451593e-06
1.425137579142446e-06
1.67816462733193e-06
1.95367691500713e-06
2.253310611479711e-06
2.589565550494846e-06
2.966046195313495e-06
3.387865257457419e-06
3.875759645104668e-06
4.415789028205902e-06
5.044465662643332e-06
5.724399579024066e-06
6.494116024236124e-06
7.27454169231367e-06
8.062680932779772e-06
8.788102551661007e-06
9.337314704970273e-06
9.707543033798021e-06
9.817283563671511e-06
9.72202274409553e-06
9.390960054281623e-06
8.877311882529564e-06
8.190179308323758e-06
7.34669438329542e-06
6.406205588894883e-06
5.335119728069884e-06
4.244521126885052e-06
3.122222747207804e-06
2.083808122145019e-06
1.197586984908499e-06
5.121853605439493e-07
6.213230030313352e-08
-1.896330450992275e-07
-2.249914876684382e-07
-1.206952508380011e-07
1.303941568908319e-07
4.381769522459607e-07
8.304513289739785e-07
1.178518752470968e-06
1.520852861446974e-06
1.713694578695627e-06
1.760248165320551e-06
1.614575065034904e-06
1.316280009109066e-06
9.816616485046712e-07
6.245745495852956e-07
3.514844704332085e-07
1.265694545949288e-07
-2.095337791380393e-09
-5.977791124491119e-08
-4.628949692591814e-08
1.221689394118316e-08
1.165063269306815e-07
2.458585214893196e-07
4.01929866713837e-07
5.765333064187351e-07
7.66966531564027e-07
9.727258468995788e-07
1.192806265872662e-06
1.424796268953533e-06
1.677794396675129e-06
1.9531771400419e-06
2.252706761080354e-06
2.588815419391606e-06
2.965154850014561e-06
3.386751060684227e-06
3.874472762794727e-06
4.414379043914676e-06
5.043000592668803e-06
5.722911479131677e-06
6.492945449826603e-06
7.273797913164038e-06
8.062634107513456e-06
8.789118814613294e-06
9.339127264138892e-06
9.709912120173632e-06
9.819887926468903e-06
9.72452770206242e-06
9.393596032477664e-06
8.879697105415506e-06
8.192327040976869e-06
7.3489869344483e-06
6.408357983122472e-06
5.336971125064547e-06
4.245691934310071e-06
3.12260545472046e-06
2.0828185333302e-06
1.195985114101873e-06
5.097827350188191e-07
5.9582885832614e-08
-1.919102716385375e-07
-2.270498189550508e-07
-1.225327045004366e-07
1.290866464369652e-07
4.371772309483428e-07
8.301451407290754e-07
1.178914815097124e-06
1.521781886945443e-06
1.715589692992079e-06
1.762306237725821e-06
1.616600433759505e-06
1.317401040159671e-06
9.820662617931047e-07
6.242468415065006e-07
3.507883689408963e-07
1.259653226277945e-07
-2.822350411825107e-09
-6.074423611723962e-08
-4.711619398462432e-08
1.152081332779563e-08
1.158503690242914e-07
2.452687871277851e-07
4.014919452873539e-07
5.761646839861637e-07
7.665611404890638e-07
9.723342368866992e-07
1.192378082725712e-06
1.424333804468134e-06
1.677287619118896e-06
1.952520811562353e-06
2.251913446844678e-06
2.587839735935059e-06
2.9639980824284e-06
3.385318662222527e-06
3.872820382683336e-06
4.412593067836305e-06
5.041125960224559e-06
5.721037062924226e-06
6.491458222452081e-06
7.272839652946259e-06
8.062555879058455e-06
8.790337869063982e-06
9.341360460050601e-06
9.712837588824744e-06
9.823152247990247e-06
9.727671775898328e-06
9.396883730498056e-06
8.882690861897029e-06
8.195109432574758e-06
7.35187226263732e-06
6.411075638742931e-06
5.339322355716767e-06
4.247292906927888e-06
3.123177181758251e-06
2.081752854076996e-06
1.194120451518076e-06
5.069112905650424e-07
5.651084116616563e-08
-1.947518702668657e-07
-2.295987757757939e-07
-1.248176355557562e-07
1.274176676388367e-07
4.359381888174998e-07
8.297258935360482e-07
1.179365168905959e-06
1.522922227557287e-06
1.717900682472206e-06
1.764833407956059e-06
1.619074709474834e-06
1.318789046703771e-06
9.825748324916417e-07
6.23866983378249e-07
3.499210969946738e-07
1.251496882342243e-07
-3.871899293906207e-09
-6.196873138944744e-08
-4.819711172035708e-08
1.059063742739728e-08
1.149870906403872e-07
2.444877592257014e-07
4.008736739432242e-07
5.756370043584166e-07
7.659974104208346e-07
9.717783168510784e-07
1.191777568262282e-06
1.423675318192592e-06
1.676561529521024e-06
1.951614925821563e-06
2.250819910916364e-06
2.586508880670661e-06
2.962432940283381e-06
3.383405040635614e-06
3.870626356794474e-06
4.410205166953487e-06
5.038637167778256e-06
5.718553821889223e-06
6.489464657447666e-06
7.271556703388637e-06
8.062389656001831e-06
8.791870821408667e-06
9.344208405708981e-06
9.716619831994651e-06
9.827414776669868e-06
9.731862529256408e-06
9.401262341397258e-06
8.886760978615396e-06
8.198953761454104e-06
7.355762720299121e-06
6.414747551304031e-06
5.342505398654266e-06
4.249495541639039e-06
3.124061711419944e-06
2.080556928081154e-06
1.191838860513913e-06
5.033562296015144e-07
5.268990140013027e-08
-1.983695953769502e-07
-2.32890478326646e-07
-1.277419446193486e-07
1.252044812970085e-07
4.343030874105465e-07
8.29099373145771e-07
1.179827319353128e-06
1.524339288640537e-06
1.720783203333519e-06
1.768041696491745e-06
1.622208881990348e-06
1.320568975558236e-06
9.832425331443895e-07
6.234268262742834e-07
3.488407763329685e-07
1.240583164959933e-07
-5.309013307582569e-09
-6.358429331411091e-08
-4.967655482696153e-08
9.293913638172236e-09
1.13786806195143e-07
2.433751141262606e-07
3.999832630432957e-07
5.748497639448532e-07
7.6517520173745e-07
9.709682903636567e-07
1.190899307920966e-06
1.422732682261828e-06
1.67551541107781e-06
1.95034623763824e-06
2.249293598376208e-06
2.584661705343663e-06
2.960263365598083e-06
3.380762179365986e-06
3.867593553919654e-06
4.406907680051797e-06
5.035158878874815e-06
5.715081127917927e-06
6.486606387328196e-06
7.26963617336265e-06
8.061969152944928e-06
8.793737239974317e-06
9.347889522065295e-06
9.721598434823977e-06
9.833130912079809e-06
9.737551268867101e-06
9.407216025627499e-06
8.892345007500917e-06
8.204378527006887e-06
7.361189528811932e-06
6.419908017395826e-06
5.347019617351527e-06
4.252813707810972e-06
3.125590430329823e-06
2.079352920041098e-06
1.189106239023447e-06
4.988774708802191e-07
4.778538498849538e-08
-2.031734033028665e-07
-2.373159318686312e-07
-1.316943605300496e-07
1.220951413203883e-07
4.319887512684739e-07
8.280861050162374e-07
1.180250716866696e-06
1.526112875368099e-06
1.724518881029194e-06
1.772302834752639e-06
1.626393375089243e-06
1.323006532840514e-06
9.842003659430551e-07
6.229197821703459e-07
3.474364261803848e-07
1.225571609694518e-07
-7.407991971691904e-09
-6.57880562766476e-08
-5.17319418887381e-08
7.47592024677477e-09
1.121206174629414e-07
2.418309378374848e-07
3.98699018796227e-07
5.737127083708885e-07
7.640015078878351e-07
9.698077002008307e-07
1.189654952901263e-06
1.421384350450092e-06
1.67401271250529e-06
1.948559149665467e-06
2.247140493161992e-06
2.582064436560549e-06
2.957215638501266e-06
3.377054150710921e-06
3.863334669895245e-06
4.402214905855366e-06
5.030190489582667e-06
5.710072774894069e-06
6.482387239016132e-06
7.266713008490527e-06
8.061095306921216e-06
8.796093089670275e-06
9.352771675060541e-06
9.728365713107315e-06
9.841004961211851e-06
9.745535235145132e-06
9.415601172027848e-06
8.900336553791566e-06
8.212258038740942e-06
7.369001076072929e-06
6.427395468335161e-06
5.353605621603889e-06
4.257751365312065e-06
3.12808720474106e-06
2.078086623229208e-06
1.185622323303049e-06
4.930039206573073e-07
4.1245503853519e-08
-2.097217644298275e-07
-2.434575225372968e-07
-1.371857202998584e-07
1.176216058355499e-07
4.285990714428667e-07
8.264429393640858e-07
1.180544226286861e-06
1.528401265607583e-06
1.729524413768901e-06
1.778173351077227e-06
1.632185773585221e-06
1.326452619433097e-06
9.856108421148309e-07
6.223400647964443e-07
3.455916850682207e-07
1.204834321391862e-07
-1.041262687019791e-08
-6.883325948675675e-08
-5.460689734785783e-08
4.933766250022088e-09
1.098133711062595e-07
2.396853662577236e-07
3.968990124754124e-07
5.721120320432571e-07
7.623616388792609e-07
9.681959274595226e-07
1.187931662374204e-06
1.419520615533276e-06
1.671924078012769e-06
1.94610489856289e-06
2.244170644484037e-06
2.578478185866355e-06
2.952990243362751e-06
3.371888163439609e-06
3.857375992779359e-06
4.395586229304652e-06
5.023111513430613e-06
5.702877325947226e-06
6.476221496945529e-06
7.262350375942785e-06
8.059625679511818e-06
8.799193849048365e-06
9.35943166645077e-06
9.737726980079673e-06
9.851968921353064e-06
9.75672623462098e-06
9.427331243843962e-06
8.911577015141007e-06
8.223487899959033e-06
7.380046568700754e-06
6.438039111095731e-06
5.362969834650079e-06
4.264917115679917e-06
3.131839658279188e-06
2.076613846412098e-06
1.180952014276689e-06
4.850253585329027e-07
3.224233242907995e-08
-2.188876702066478e-07
-2.521249263992663e-07
-1.449415503553721e-07
1.111674454924584e-07
4.236688722217753e-07
8.239455296118087e-07
1.180725862799775e-06
1.531551859860922e-06
1.73650529441236e-06
1.786513549780591e-06
1.640396590757852e-06
1.331393686652876e-06
9.876631064346347e-07
6.216156034888537e-07
3.43059386107817e-07
1.175418061949811e-07
-1.478855685207429e-08
-7.306421393646941e-08
-5.857802351107243e-08
1.459849897900661e-09
1.067179819693645e-07
2.368366052195082e-07
3.944807186606407e-07
5.699845057576874e-07
7.601909351691308e-07
9.660668459955905e-07
1.185668851965178e-06
1.417038866340434e-06
1.669123870683989e-06
1.94283150289029e-06
2.240175381968974e-06
2.573642214465599e-06
2.947273155657673e-06
3.364865350388459e-06
3.84926532991659e-06
4.38646681780525e-06
5.013376873762455e-06
5.692939866522935e-06
6.46772635682712e-06
7.256449109055811e-06
8.057773182280466e-06
8.803790698244249e-06
9.368930063349741e-06
9.750979984897832e-06
9.867339831383583e-06
9.772414963688227e-06
9.443626861533001e-06
8.927201501410012e-06
8.23909051372029e-06
7.395178946974785e-06
6.452600966531299e-06
5.375598453112902e-06
4.274447226946514e-06
3.136583287747341e-06
2.074132662725317e-06
1.173956366220578e-06
4.736575284379533e-07
1.950741939186186e-08
-2.31823237791345e-07
-2.64317766814991e-07
-1.557519796640972e-07
1.021625152222894e-07
4.168163081231051e-07
8.205496363389001e-07
1.181038613865615e-06
1.536225388470633e-06
1.746464343660939e-06
1.798429544648008e-06
1.651957596503219e-06
1.338277944475617e-06
9.904182768168761e-07
6.205027984694058e-07
3.394545879024357e-07
1.1330961005745e-07
-2.104135949177391e-08
-7.889677021440471e-08
-6.397742771734633e-08
-3.186197156303805e-09
1.026678542401913e-07
2.331495485364677e-07
3.913537987359739e-07
5.672628527181406e-07
7.574218634041026e-07
9.633649501350847e-07
1.182804444212941e-06
1.413859042316914e-06
1.665509268175717e-06
1.938616309812236e-06
2.234983740369079e-06
2.567344629815696e-06
2.939808178460403e-06
3.35565547668072e-06
3.838643229948518e-06
4.374457531442119e-06
5.000600151812414e-06
5.679933984320764e-06
6.45680884010927e-06
7.249178329544951e-06
8.056109896359291e-06
8.811032183368711e-06
9.38273071820487e-06
9.769735630602133e-06
9.888654229741117e-06
9.793948330422275e-06
9.46562822154579e-06
8.948121263078858e-06
8.259830343302767e-06
7.414917439645372e-06
6.471444950926047e-06
5.391516955745513e-06
4.286117838128762e-06
3.141624025546954e-06
2.069444430604037e-06
1.163145881051191e-06
4.572953532604219e-07
1.519315022611021e-09
-2.498845151642109e-07
-2.81114484062337e-07
-1.704318623243004e-07
9.011145522570822e-08
4.078056691289215e-07
8.164256070835795e-07
1.181957947496233e-06
1.543333794653625e-06
1.76064415083752e-06
1.815219081215758e-06
1.667877311849194e-06
1.347501797004958e-06
9.937985972549432e-07
6.185678031866889e-07
3.342173917842917e-07
1.071941678838421e-07
-2.973650728785586e-08
-8.675825093198745e-08
-7.1117122275882e-08
-9.221131077995208e-09
9.753020125131779e-08
2.285394049387714e-07
3.874485653531174e-07
5.639116308673749e-07
7.540179876404315e-07
9.600525705718411e-07
1.179306974775615e-06
1.409908307730794e-06
1.660987825123011e-06
1.933350223208179e-06
2.228441073389351e-06
2.559403656485198e-06
2.930395079583247e-06
3.344016148181478e-06
3.825277337221441e-06
4.359282753782693e-06
4.984601948583081e-06
5.663770782828764e-06
6.443612048974742e-06
7.240963359332429e-06
8.055453127764755e-06
8.822303527248672e-06
9.402453912153142e-06
9.795721641951454e-06
9.91748605414428e-06
9.822705606791149e-06
9.494468754527196e-06
8.975248943990315e-06
8.286381664476882e-06
7.439639565199968e-06
6.494777883224203e-06
5.410529657757353e-06
4.299371531359863e-06
3.145947608574967e-06
2.061048913515715e-06
1.146752791936875e-06
4.341835410151706e-07
-2.32943388398936e-08
-2.743825527725985e-07
-3.034853901472207e-07
-1.896680169324174e-07
7.46812886460114e-08
3.965257564303941e-07
8.118590328148874e-07
1.184025767248294e-06
1.553827583314185e-06
1.780268362754621e-06
1.838116874833925e-06
1.689050708325686e-06
1.359312043900302e-06
9.975863409555544e-07
6.152637607516704e-07
3.267297156812838e-07
9.857365929988098e-08
-4.131838087037018e-08
-9.700990168528047e-08
-8.026190294512913e-08
-1.683078908561478e-08
9.119247568050785e-08
2.229182319223675e-07
3.827064275205302e-07
5.598905898790833e-07
7.49936322478603e-07
9.560946387479497e-07
1.175147075950651e-06
1.405137918115331e-06
1.65550186777853e-06
1.926974184431532e-06
2.220464107390329e-06
2.549729508460534e-06
2.918945961187769e-06
3.329836440418823e-06
3.809075789273824e-06
4.340844402481253e-06
4.965374889053763e-06
5.644455835975976e-06
6.428305530911528e-06
7.232185582372952e-06
8.056493667000628e-06
8.838778285443422e-06
9.429473694972183e-06
9.830352602026635e-06
9.955076016045769e-06
9.859687821549874e-06
9.53089216216314e-06
9.009100748592628e-06
8.319082710829745e-06
7.469460749969296e-06
6.522564882968939e-06
5.432311420549047e-06
4.313718096841513e-06
3.148707975083591e-06
2.047729182334497e-06
1.12337248618595e-06
4.029540945736231e-07
-5.613790010466325e-08
-3.063172065990329e-07
-3.321292368984547e-07
-2.13952931696685e-07
5.566590739089497e-08
3.829170007564494e-07
8.070996325430301e-07
1.187655385472145e-06
1.568450761944204e-06
1.8063396464956e-06
1.868180147409299e-06
1.716234287356859e-06
1.373863193843469e-06
1.001545853285895e-06
6.100730941047247e-07
3.164269694701127e-07
8.689735907402022e-08
-5.607812463015348e-08
-1.098688237258611e-07
-9.154956198974542e-08
-2.610344412450752e-08
8.362028915500817e-08
2.162681901996553e-07
3.77117859629591e-07
5.552061229483724e-07
7.451769073877221e-07
9.51490623261747e-07
1.170337768587024e-06
1.399538194709427e-06
1.649042034939288e-06
1.919486262447124e-06
2.211039831703213e-06
2.538316630697576e-06
2.905477860847848e-06
3.313132261305815e-06
3.790082484870484e-06
4.319190163627125e-06
4.943017014620741e-06
5.6220658755654e-06
6.411092226422666e-06
7.223154307669265e-06
8.05971537494312e-06
8.861289045555623e-06
9.46473815835055e-06
9.874563813934029e-06
1.000218790983904e-05
9.905475404398141e-06
9.57528735715855e-06
9.049934535337014e-06
8.35806034105708e-06
7.504344732769927e-06
6.554715583033857e-06
5.456591273385681e-06
4.328765051328223e-06
3.149267763076084e-06
2.028547446028177e-06
1.091964569353717e-06
3.626469537489725e-07
-9.778054427106312e-08
-3.462659183489063e-07
-3.673909043862817e-07
-2.435110008103161e-07
3.302165401225275e-08
3.669689830338399e-07
8.023207021795298e-07
1.193079086388775e-06
1.587658852621168e-06
1.839527774321284e-06
1.906132639438742e-06
1.74992094079169e-06
1.39116521804174e-06
1.005404849406382e-06
6.025514495305925e-07
3.028761892480296e-07
7.178751812764035e-08
-7.412599297240933e-08
-1.254143184938894e-07
-1.050161171629876e-07
-3.705240656920359e-08
7.48343340470933e-08
2.08605511056745e-07
3.707084989367915e-07
5.498883358069713e-07
7.397590920548647e-07
9.462657188898063e-07
1.164919673667533e-06
1.393145086305971e-06
1.641655318346198e-06
1.910954312159681e-06
2.20024288232799e-06
2.525262278840394e-06
2.890122998662934e-06
3.294043255531307e-06
3.768479085527644e-06
4.294513343587723e-06
4.917700238032584e-06
5.596725129396472e-06
6.392133872415345e-06
7.213984881373782e-06
8.065302309078597e-06
8.890265935397155e-06
9.508744757309977e-06
9.928779213814085e-06
1.005907576222007e-05
9.960135288640228e-06
9.627565461200761e-06
9.097572298682292e-06
8.403077579954179e-06
7.544005215087676e-06
6.591004673580107e-06
5.48309102625109e-06
4.344260192170016e-06
3.14730802321286e-06
2.003002141334537e-06
1.052013809256558e-06
3.128479794292484e-07
-1.484746158178126e-07
-3.943528636414869e-07
-4.092594379024434e-07
-2.783042060774986e-07
6.842972877369626e-09
3.487167899301488e-07
7.976097467858852e-07
1.200334333523478e-06
1.611609848401471e-06
1.88018882166188e-06
1.952429590990589e-06
1.790414711854637e-06
1.411149965271176e-06
1.008897674978377e-06
5.923547294173395e-07
2.857964094446321e-07
5.303537096551471e-08
-9.543946904528803e-08
-1.435929096449076e-07
-1.205867649106751e-07
-4.960307930678087e-08
6.492347285098705e-08
2.000050865936193e-07
3.635496176015183e-07
5.440123235125333e-07
7.337424892180375e-07
9.404786336262915e-07
1.158968295853631e-06
1.386026629888889e-06
1.633423764828906e-06
1.901484509690104e-06
2.188188980528169e-06
2.510708062191104e-06
2.873063738336363e-06
3.272763813810658e-06
3.744503839604095e-06
4.26705825790912e-06
4.889621797387484e-06
5.568569576432949e-06
6.371562716723884e-06
7.204703659412914e-06
8.073261137370141e-06
8.925866404542221e-06
9.561662541615546e-06
9.993051013669406e-06
1.012563235550492e-05
1.002342359220739e-05
9.68739327673413e-06
9.151655120032993e-06
8.453760152968845e-06
7.588123637304021e-06
6.631219255354063e-06
5.511597453152905e-06
4.360073100877725e-06
3.142692954849796e-06
1.97080287065768e-06
1.003260648307444e-06
2.534220195078102e-07
-2.081803597552598e-07
-4.504205527423175e-07
-4.574925185230831e-07
-3.181103120376922e-07
-2.26776223492515e-08
3.282275500975074e-07
7.930000240398607e-07
1.209342407901003e-06
1.640271275430423e-06
1.928468594563549e-06
2.007305387317459e-06
1.837836611368643e-06
1.433647132344268e-06
1.011725132962702e-06
5.791947593315521e-07
2.650080001107442e-07
3.057166333980222e-08
-1.19919898444199e-07
-1.642925820827579e-07
-1.381516068864031e-07
-6.365710264446236e-08
5.399082398845543e-08
1.905459490403015e-07
3.557189162326151e-07
5.376572289412574e-07
7.271866684319265e-07
9.341924522390485e-07
1.152564682420027e-06
1.37826370713827e-06
1.624445107434514e-06
1.891203863840247e-06
2.175016707511907e-06
2.494820980664078e-06
2.854508213812651e-06
3.249510886179357e-06
3.718395368655308e-06
4.2370820676554e-06
4.858985734767839e-06
5.537689093075657e-06
6.349412928923551e-06
7.195179793543919e-06
8.083397824755684e-06
8.968064679441183e-06
9.623489391607238e-06
1.006724858873031e-05
1.020157139638403e-05
1.009490203910222e-05
9.754259581859024e-06
9.211645346488287e-06
8.509602574917244e-06
7.636319967108004e-06
6.675118181672673e-06
5.541948461498153e-06
4.376217953216802e-06
3.135488917077695e-06
1.93187881386078e-06
9.456787465883052e-07
1.844736554389635e-07
-2.766382809983776e-07
-5.141235100770273e-07
-5.117107963545612e-07
-3.62603020144842e-07
-5.530845871649077e-08
3.055721270094843e-07
7.884717900507922e-07
1.219920409146537e-06
1.673476937871122e-06
1.984411230960412e-06
2.070958392542532e-06
1.892303000840985e-06
1.45847371956148e-06
1.013595768038899e-06
5.628339829443269e-07
2.403976225254852e-07
4.399495826374916e-09
-1.474441112042225e-07
-1.873603086313256e-07
-1.575594387967069e-07
-7.90842548573773e-08
4.216484668262442e-08
1.803266118617017e-07
3.47306627956347e-07
5.309194462964466e-07
7.201646052171131e-07
9.274779391621549e-07
1.145796466144524e-06
1.369934574740062e-06
1.614810825254538e-06
1.880230968212755e-06
2.160846842221051e-06
2.477744165260505e-06
2.834637640709744e-06
3.224469408464618e-06
3.690336207977024e-06
4.204779496159562e-06
4.825960489648913e-06
5.504111403180478e-06
6.325651479944289e-06
7.185243479972227e-06
8.095471680350297e-06
9.016800573347815e-06
9.694191071756598e-06
1.015119636501577e-05
1.028656459765086e-05
1.017411958628002e-05
9.82767682515948e-06
9.277067973213566e-06
8.570184257742401e-06
7.6882938844246e-06
6.722566010343872e-06
5.574098892041567e-06
4.392803472052147e-06
3.125833244649211e-06
1.886155406186329e-06
8.792141569027183e-07
1.060791485869401e-07
-3.536013878190203e-07
-5.851216180012048e-07
-5.715401875835593e-07
-4.114512920647986e-07
-9.083069210965504e-08
2.807986273145174e-07
7.839815179500768e-07