/*--------------------------------*- C++ -*----------------------------------*\
| =========                 |                                                 |
| \\      /  F ield         | OpenFOAM: The Open Source CFD Toolbox           |
|  \\    /   O peration     | Version:  v1812                                 |
|   \\  /    A nd           | Web:      www.OpenFOAM.com                      |
|    \\/     M anipulation  |                                                 |
\*---------------------------------------------------------------------------*/
FoamFile
{
    version     2.0;
    format      ascii;
    class       surfaceScalarField;
    location    "10000";
    object      phi;
}
// * * * * * * * * * * * * * * * * * * * * * * * * * * * * * * * * * * * * * //

dimensions      [0 3 -1 0 0 0 0];
oriented        oriented;


internalField   nonuniform List<scalar> 
7417
(
-0.0009345941603502197
3.579418330360054e-11
-0.000934594262938472
9.755561788101269e-11
-0.0009345942893757776
2.477286960350472e-11
-0.0009345943177298985
3.045615113294863e-11
-0.0009345943340115425
1.39305806503514e-11
-0.0009345943385571908
1.333885647065334e-11
-0.0009345943500083678
1.72433136872464e-13
-0.0009345943571855109
4.087989784870749e-12
-0.0009345943589723452
3.106667339149225e-12
-0.0009345943657887362
-3.163258788404596e-13
-0.0009345943649175911
7.851184007516885e-12
-0.0009345943721017013
1.742174576822928e-12
-0.0009345943786649946
6.290131562279001e-12
-0.0009345943846571118
6.007883023208495e-12
-0.0009345943911673565
7.304492817516317e-12
-0.0009345943949681676
3.847605485552146e-12
-0.0009345943939383167
5.241593331757882e-13
-0.00093459438924923
-3.027407975013014e-12
-0.0009345943525159119
-2.164029397417493e-11
-0.0009345943258282885
-4.519687210387568e-11
-0.0009345942503960521
-6.259476035869724e-11
-0.0009345941579578526
-9.484951422140162e-11
-0.0009345940097893953
-1.501836657282309e-10
-0.0009345938256064614
-1.764894409048859e-10
-0.0009345935998103315
-2.298406452069399e-10
-0.0009345933346417619
-2.575707073656056e-10
-0.0009345930957102757
-2.454581688060036e-10
-0.0009345928601618717
-2.313328728226744e-10
-0.0009345926907715202
-1.797780755654549e-10
-0.0009345925453111757
-1.415667650313155e-10
-0.000934592485458681
-8.622744035178177e-11
-0.0009345924327017017
-1.547530572938407e-11
-0.0009345924326044269
-1.526712560940767e-11
-0.0009345924941118451
5.25710298409835e-11
-0.0009345926150244459
9.604164267058536e-11
-0.000934592751093861
1.814260449433129e-10
-0.0009345929624829658
1.753579913673028e-10
-0.0009345932104137568
2.59362338321585e-10
-0.0009345934755172192
2.776655692098353e-10
-0.0009345937344272215
2.596797866816829e-10
-0.0009345939579070387
2.390982305245456e-10
-0.0009345941414852874
1.705883806855601e-10
-0.0009345942808741698
1.367027920076041e-10
-0.0009345943517913045
7.51858003335574e-11
-0.0009345943836218664
2.879831417682562e-11
-0.000934594359213505
-2.312538277234223e-11
-0.0009345943028285584
-5.30482064200575e-11
-0.0009345941931498994
-1.161492683868887e-10
-0.000934594085905464
-1.017730412889573e-10
-0.0009345939387983426
-1.459499432686975e-10
-0.0009345938222834764
-1.160080404271066e-10
-0.000934593738963774
-8.482687496103193e-11
-0.0009345937197397078
-1.813018849080991e-11
-0.0009345937734029165
5.016463870070604e-11
-0.0009345938477140896
7.351684883499325e-11
-0.0009345939549310358
1.052693569730121e-10
-0.0009345940282301008
7.402758917242107e-11
4.442587150127059e-11
-0.0009085981894319876
2.173992187113273e-10
-0.0009085982894113211
1.926826378275964e-10
-0.0009085983476385316
8.169009705451683e-11
-0.0009085983890316456
7.298750924753048e-11
-0.0009085984095376211
3.148221418815709e-11
-0.0009085984132426239
2.163322226561547e-11
-0.0009085984168711895
-2.614856885448757e-12
-0.0009085984146141676
-1.040421794350257e-12
-0.0009085984068652884
-3.948656007333138e-12
-0.0009085984004948871
-1.011800873344156e-11
-0.0009085983881081652
-1.395295483067609e-12
-0.0009085983812869023
-6.93475835846564e-12
-0.0009085983696800081
-4.534002662530639e-12
-0.0009085983543814475
-7.923727639067448e-12
-0.0009085983315001441
-1.406082653757328e-11
-0.0009085982948194175
-3.147652340857658e-11
-0.0009085982389862266
-5.380752704275775e-11
-0.0009085981578829276
-8.46376813233668e-11
-0.0009085980201902612
-1.478384861179895e-10
-0.0009085978510936932
-2.225155538041215e-10
-0.0009085975969561599
-3.132209415573985e-10
-0.0009085972787262249
-4.152616984620908e-10
-0.0009085968603714821
-5.71841652764165e-10
-0.0009085963730936466
-6.633430553919204e-10
-0.0009085958238837197
-7.852763652781713e-10
-0.0009085952553011889
-8.254464135194765e-10
-0.0009085947524926301
-7.553852046246442e-10
-0.0009085943170131195
-6.677446249110895e-10
-0.000908594016228794
-4.898337629300259e-10
-0.0009085938117720382
-3.454745361442786e-10
-0.0009085937612659711
-1.645959133894367e-10
-0.0009085937948261382
2.934116689164727e-11
-0.0009085939331670068
1.163517794864159e-10
-0.0009085941886005231
3.013725635321006e-10
-0.0009085945697645495
4.544825590457235e-10
-0.0009085950180912974
6.523741081025198e-10
-0.0009085955725606149
7.265894848299313e-10
-0.0009085961833902958
8.777825896613985e-10
-0.000908596790520248
9.053133924037426e-10
-0.000908597340733899
8.126978568635528e-10
-0.0009085977925888942
7.107979604099593e-10
-0.0009085981271471612
5.017297987234607e-10
-0.0009085983554158126
3.563964140259159e-10
-0.0009085984443820899
1.705700380892715e-10
-0.0009085984341124754
1.246133633156285e-11
-0.0009085983256487862
-1.319325387843186e-10
-0.0009085981406474565
-2.363230792156813e-10
-0.0009085978799213791
-3.820666221679337e-10
-0.0009085976181969532
-3.601553600105898e-10
-0.0009085973425679739
-4.213518654035885e-10
-0.0009085971462351341
-3.126218454856212e-10
-0.0009085970542223772
-1.761079742378002e-10
-0.0009085970974283564
2.692469755418892e-11
-0.0009085972568264105
2.094575023135645e-10
-0.0009085974573226258
2.744126040953433e-10
-0.0009085976879497419
3.316663277820726e-10
-0.0009085978748129457
2.602733190021637e-10
2.204393022321095e-10
-0.0008820591382673902
3.504210987515784e-10
-0.0008820592378293641
2.869598112514631e-10
-0.0008820592975366203
1.399700376361375e-10
-0.0008820593272529543
1.051512382889266e-10
-0.0008820593324153457
3.478087031795685e-11
-0.0008820593161193802
1.640200809166901e-11
-0.0008820592969999941
-3.462399962921307e-11
-0.0008820592707663204
-3.042172750755418e-11
-0.0008820592357681934
-3.744111244406202e-11
-0.0008820592007486804
-5.239919430405685e-11
-0.0008820591564071144
-3.59220218240393e-11
-0.0008820591129369324
-5.714411848531238e-11
-0.0008820590597102674
-5.859795669538534e-11
-0.0008820589956520644
-7.258787356188435e-11
-0.0008820589142365872
-9.498550110641398e-11
-0.0008820588068223991
-1.394041029701828e-10
-0.0008820586658615056
-1.932193556688181e-10
-0.0008820584811432534
-2.672484544112336e-10
-0.0008820582178256633
-3.945347055375983e-10
-0.0008820579016097636
-5.584128788893875e-10
-0.000882057479271629
-7.212342915599584e-10
-0.0008820569714013886
-9.256402626203125e-10
-0.0008820563541062923
-1.190295509083226e-09
-0.0008820556672179222
-1.339720586763471e-09
-0.0008820549336327443
-1.521583615799959e-09
-0.0008820542180717954
-1.53040992896435e-09
-0.0008820536139421671
-1.365130234440584e-09
-0.0008820531301945984
-1.14526785630626e-09
-0.0008820528332412166
-7.972789034093286e-10
-0.0008820526839850131
-4.8827315496292e-10
-0.0008820527392658595
-1.347758558911053e-10
-0.0008820529156822832
2.483109645137117e-10
-0.0008820532310694488
4.170441045754382e-10
-0.0008820537010239219
7.63974741568677e-10
-0.0008820543250268044
1.051541670955673e-09
-0.0008820550207513441
1.394484251510442e-09
-0.0008820558216247114
1.483158939148055e-09
-0.0008820566669728489
1.735807237155128e-09
-0.0008820574690177761
1.714412953948045e-09
-0.0008820581662570926
1.509058026242822e-09
-0.0008820587120914938
1.26994218693708e-09
-0.0008820590935483468
8.685367499988089e-10
-0.0008820593298961796
5.930806395580152e-10
-0.0008820593839606735
2.275928837739823e-10
-0.0008820593100778182
-6.203155256906015e-11
-0.0008820591214295333
-3.189490678742955e-10
-0.0008820588421566565
-5.112317138269148e-10
-0.0008820584944001354
-7.35915220093016e-10
-0.000882058160434627
-6.891137043980352e-10
-0.0008820578435437513
-7.367259694613156e-10
-0.0008820576471058324
-5.082363862805816e-10
-0.0008820575951863814
-2.303549222712747e-10
-0.0008820577097582586
1.423230400757711e-10
-0.0008820579498391415
4.445997188244037e-10
-0.0008820582302941471
5.533461915600589e-10
-0.000882058528828979
6.283676615420488e-10
-0.0008820587715678318
5.055170903253316e-10
4.386831306840846e-10
-0.000855715555160252
5.172107257746276e-10
-0.0008557156372280752
3.650430730380968e-10
-0.0008557156778641185
1.794539250048675e-10
-0.0008557156811004229
1.091733096395099e-10
-0.0008557156575608539
8.200594090327249e-12
-0.000855715609791739
-2.714904804252864e-11
-0.0008557155561015833
-9.347628930797435e-11
-0.0008557154914892563
-9.809873895959227e-11
-0.0008557154171648608
-1.113408237412383e-10
-0.0008557153379150107
-1.339517588587634e-10
-0.0008557152465191439
-1.254270838635316e-10
-0.0008557151520808105
-1.526401080181869e-10
-0.0008557150403371336
-1.695609143005016e-10
-0.0008557149115992169
-1.996409942104815e-10
-0.0008557147566007126
-2.4813883176964e-10
-0.0008557145659650382
-3.283492809721388e-10
-0.000855714330912765
-4.267334691454942e-10
-0.0008557140409205673
-5.58355103397688e-10
-0.0008557136637554131
-7.607264581792123e-10
-0.0008557132213558583
-1.006009989943909e-09
-0.0008557126676980484
-1.273465889637642e-09
-0.0008557120305890166
-1.564884747811685e-09
-0.0008557112910111207
-1.933069138474919e-09
-0.000855710500201844
-2.131743208666981e-09
-0.0008557096909516678
-2.337249581804693e-09
-0.0008557089372354631
-2.284518249881354e-09
-0.0008557083329996648
-1.976087484452901e-09
-0.0008557078897024242
-1.59064938939222e-09
-0.0008557076692971582
-1.026538251529271e-09
-0.0008557076286044116
-5.278984417221802e-10
-0.0008557078161432055
2.476526722982272e-11
-0.0008557081519928437
5.886545490177707e-10
-0.0008557086465084634
9.079252007128713e-10
-0.0008557092978885876
1.411411409712845e-09
-0.0008557101034909161
1.833586197926879e-09
-0.0008557109826365024
2.288474863108348e-09
-0.0008557119469726415
2.449628781526858e-09
-0.0008557129226556523
2.718457502797236e-09
-0.0008557138262900281
2.639590092503414e-09
-0.0008557145871958972
2.273692222748045e-09
-0.0008557151637466334
1.86752670626329e-09
-0.0008557155433375476
1.248224712322974e-09
-0.0008557157514008648
7.932469295568324e-10
-0.0008557157620571866
2.443285118774832e-10
-0.0008557156330441568
-1.964999838520481e-10
-0.000855715386899992
-5.664980020370592e-10
-0.0008557150555548981
-8.410603990041581e-10
-0.0008557146677457252
-1.128145693783411e-09
-0.0008557143119756856
-1.043048985053934e-09
-0.0008557140002476049
-1.04845019882315e-09
-0.0008557138323600747
-6.767404054751861e-10
-0.000855713826073214
-2.351516731067957e-10
-0.0008557139941171129
3.122719994779961e-10
-0.0008557142835442011
7.343635396558641e-10
-0.0008557146055625276
8.754162430529031e-10
-0.0008557149333029991
9.511103702975218e-10
-0.0008557151942149968
7.664137802624916e-10
6.626823996075146e-10
-0.0008308162548031493
6.07046234897882e-10
-0.0008308163133836203
4.173881174342648e-10
-0.0008308163238448865
1.887076781211499e-10
-0.000830816291690389
8.001932511671321e-11
-0.0008308162305751165
-5.449209915489222e-11
-0.0008308161413822001
-1.026353041216788e-10
-0.0008308160443178741
-2.053465691401205e-10
-0.0008308159348454218
-2.109416915989688e-10
-0.0008308158115104392
-2.32981630716892e-10
-0.0008308156812614643
-2.708819881771272e-10
-0.0008308155343459428
-2.62230354834684e-10
-0.000830815379733222
-3.152729900262019e-10
-0.0008308152039160949
-3.467543703673347e-10
-0.0008308150053403163
-3.993427897573168e-10
-0.0008308147746750295
-4.786454833805869e-10
-0.0008308145025794932
-6.014152105493811e-10
-0.0008308141807525465
-7.468933765297438e-10
-0.0008308137993748033
-9.375288485155502e-10
-0.0008308133266268407
-1.214411758047803e-09
-0.0008308127910996865
-1.561005340910743e-09
-0.0008308121499938389
-1.900428714583134e-09
-0.0008308114339970442
-2.284134758741959e-09
-0.00083081063486238
-2.732735946209919e-09
-0.0008308098056537945
-2.94855447438737e-09
-0.0008308089858696266
-3.158639017172291e-09
-0.0008308082525772528
-3.004306999081834e-09
-0.0008308076984899073
-2.535231362670737e-09
-0.0008308073332468868
-1.947548288310264e-09
-0.0008308072133848104
-1.157602082494377e-09
-0.0008308072940936958
-4.373653508451303e-10
-0.0008308076203943793
3.244725368986139e-10
-0.0008308080988608831
1.112017403481893e-09
-0.0008308087419577401
1.53880092016115e-09
-0.0008308095442446407
2.20924708471064e-09
-0.0008308104933850539
2.751399871867228e-09
-0.0008308114954483434
3.334540067777225e-09
-0.0008308125613645188
3.468366956465379e-09
-0.0008308136162374538
3.788930316756819e-09
-0.0008308145681543025
3.594023256565883e-09
-0.0008308153522429024
3.055937827693901e-09
-0.0008308159263203983
2.454121599736784e-09
-0.0008308162900968331
1.596175809162576e-09
-0.0008308164695520774
9.744595908378246e-10
-0.0008308164431677446
2.196670494605149e-10
-0.0008308162765223731
-3.618339642898775e-10
-0.0008308159973322871
-8.439772834584417e-10
-0.0008308156402894261
-1.19248755489116e-09
-0.0008308152433223996
-1.530627762056938e-09
-0.0008308148908115798
-1.390986825727988e-09
-0.0008308145970812982
-1.340702470205829e-09
-0.0008308144590110959
-8.135767855638444e-10
-0.0008308144873269904
-2.095165061823401e-10
-0.00083081468938821
5.14921316860546e-10
-0.0008308150039208814
1.042810483703517e-09
-0.0008308153430410197
1.212352494610218e-09
-0.0008308156758986923
1.281672147557063e-09
-0.0008308159334844082
1.029247036404624e-09
8.720326247134371e-10
-0.0008098840647735707
7.171347583648168e-10
-0.0008098840913338224
4.404301911684474e-10
-0.0008098840662769563
1.626176989608023e-10
-0.000809883995284115
9.331868628402921e-12
-0.0008098838924555502
-1.603597678291165e-10
-0.0008098837598687163
-2.315030562777036e-10
-0.0008098836161160997
-3.525440760707718e-10
-0.0008098834554595639
-3.747539446075396e-10
-0.0008098832804704521
-4.079293888896195e-10
-0.0008098830942041347
-4.582280344228586e-10
-0.000809882889475706
-4.662574196022827e-10
-0.0008098826747110807
-5.300891178887842e-10
-0.0008098824338168382
-5.868415096114207e-10
-0.0008098821678640078
-6.633458541652263e-10
-0.0008098818666176533
-7.776829105787178e-10
-0.0008098815214390021
-9.44587081034386e-10
-0.000809881124642122
-1.14215249063674e-09
-0.0008098806683560689
-1.395663367783142e-09
-0.0008098801256509922
-1.747062809753875e-09
-0.0008098795226966832
-2.165971680252192e-09
-0.0008098788229372532
-2.600619721170191e-09
-0.0008098780634965124
-3.045776912130884e-09
-0.0008098772362901553
-3.562955289920678e-09
-0.0008098764011548994
-3.78709414459688e-09
-0.0008098755992351865
-3.96703598631748e-09
-0.0008098749081236909
-3.697026439276767e-09
-0.0008098744181496986
-3.031036083786535e-09
-0.0008098741382861712
-2.230510585090365e-09
-0.0008098741203624522
-1.183550291225871e-09
-0.0008098743156539108
-2.400319914381448e-10
-0.0008098747593614329
7.412873682321683e-10
-0.0008098753635332988
1.713857087820598e-09
-0.0008098761376042771
2.312320427827257e-09
-0.0008098770557334476
3.127419656544026e-09
-0.0008098781059645143
3.77784611073954e-09
-0.0008098792042303838
4.439254654696436e-09
-0.0008098803454981154
4.615443668358065e-09
-0.0008098814492908734
4.899298736813008e-09
-0.0008098824346009602
4.600691164492915e-09
-0.0008098832331133555
3.859697948756745e-09
-0.0008098838075191557
3.050206048025305e-09
-0.0008098841581976068
1.950979370491843e-09
-0.0008098843118232963
1.122030311198643e-09
-0.0008098842610264316
1.740214713607968e-10
-0.0008098840705955286
-5.565571620689702e-10
-0.0008098837708201419
-1.146445671092715e-09
-0.0008098834039695485
-1.55820228993369e-09
-0.0008098830052543357
-1.932800546705534e-09
-0.0008098826598360824
-1.7364701987315e-09
-0.0008098823837440559
-1.617214951628703e-09
-0.000809882268815216
-9.295166195008108e-10
-0.0008098823206249838
-1.551975269601945e-10
-0.0008098825427893671
7.392086745151778e-10
-0.0008098828701600618
1.371112514379409e-09
-0.0008098832142373738
1.556201111614625e-09
-0.0008098835433464242
1.605039483525039e-09
-0.0008098837894629635
1.276350894715105e-09
1.060346215019453e-09
-0.0007974430892624712
7.480508199687302e-10
-0.000797443088878914
4.32259826019827e-10
-0.0007974430293985316
1.025455541023971e-10
-0.0007974429194832617
-9.696143158134158e-11
-0.0007974427746558433
-3.06242962586767e-10
-0.0007974425960789649
-3.933614638321876e-10
-0.0007974424042266848
-5.605375820579645e-10
-0.000797442194901738
-5.874976810473545e-10
-0.0007974419673130144
-6.33694022840948e-10
-0.0007974417276180821
-7.042292100361313e-10
-0.0007974414665175697
-7.162659683295239e-10
-0.000797441192894971
-8.126203114216497e-10
-0.0007974408927526505
-8.887284517202733e-10
-0.0007974405654533543
-9.922564728904536e-10
-0.0007974402018007074
-1.141557205856456e-09
-0.000797439793757607
-1.353975253144609e-09
-0.0007974393346969156
-1.599460152841043e-09
-0.0007974388176391418
-1.910833405037434e-09
-0.0007974382152177959
-2.328412861010548e-09
-0.0007974375603766967
-2.841197019229663e-09
-0.0007974368174456841
-3.328973556337256e-09
-0.0007974360232741166
-3.843865377584999e-09
-0.0007974351772671019
-4.409637599070407e-09
-0.0007974343383142479
-4.612282013671496e-09
-0.0007974335500690857
-4.756557110029301e-09
-0.0007974328914695366
-4.339651928761229e-09
-0.0007974324532689244
-3.473836335242998e-09
-0.0007974322426565081
-2.4312418678041e-09
-0.0007974323080287758
-1.130074976793349e-09
-0.0007974325988421044
6.382546723849677e-11
-0.0007974331490910462
1.263941500402869e-09
-0.0007974338572221361
2.471912132147201e-09
-0.0007974347369844921
3.181654415021394e-09
-0.0007974357613618445
4.151192536458543e-09
-0.0007974369123640751
4.893064150300722e-09
-0.0007974380951023133
5.666050713042919e-09
-0.000797439306885746
5.774839495402198e-09
-0.0007974404704636729
6.080453669632183e-09
-0.0007974414936253944
5.621179378546319e-09
-0.0007974423155920373
4.678277088587591e-09
-0.0007974428956581078
3.641844466780313e-09
-0.0007974432450727955
2.28241937732781e-09
-0.0007974433887670679
1.269517116357604e-09
-0.0007974433223591189
1.082689589754937e-10
-0.0007974431161271889
-7.594080980359471e-10
-0.0007974428021605909
-1.458748278853901e-09
-0.0007974424241772689
-1.929233498098302e-09
-0.0007974420229761806
-2.339435861426617e-09
-0.0007974416798118684
-2.075527792537942e-09
-0.0007974414101190948
-1.885388833131666e-09
-0.0007974413076790264
-1.030327719305478e-09
-0.0007974413739309669
-9.185395042547355e-11
-0.000797441611531473
9.778681908181201e-10
-0.0007974419492481512
1.701841103354651e-09
-0.0007974422985680211
1.903148876888503e-09
-0.0007974426247509374
1.927733340395755e-09
-0.0007974428602208067
1.520359261875915e-09
1.231292423286555e-09
-0.0008006241222351005
8.102023796577959e-10
-0.0008006240951709007
4.017397462118254e-10
-0.0008006240035969549
1.000278469299013e-11
-0.0008006238575996395
-2.431244411300066e-10
-0.0008006236722799545
-4.944653905472193e-10
-0.0008006234513185418
-6.109206675914041e-10
-0.0008006232136579531
-8.004578884895532e-10
-0.0008006229538939567
-8.502702123849796e-10
-0.0008006226757429766
-9.121460889214041e-10
-0.0008006223822377673
-9.979987967231454e-10
-0.0008006220669165208
-1.031288433566196e-09
-0.000800621738624856
-1.140298582755625e-09
-0.0008006213809988522
-1.24535210359769e-09
-0.0008006209962359431
-1.375018501268821e-09
-0.0008006205746293745
-1.560623607181752e-09
-0.0008006201083144035
-1.818143078920306e-09
-0.0008006195909447919
-2.115338000030068e-09
-0.0008006190162515363
-2.4879866319025e-09
-0.0008006183603393385
-2.974955618853131e-09
-0.0008006176524874783
-3.549202824421546e-09
-0.0008006168592582819
-4.123334028526102e-09
-0.000800616022979462
-4.682830134404483e-09
-0.0008006151397306511
-5.296060504086999e-09
-0.0008006142761968284
-5.481211883874885e-09
-0.0008006134770773921
-5.562526812095671e-09
-0.000800612824734532
-4.994239613245251e-09
-0.0008006124117100305
-3.891596506165947e-09
-0.0008006122465181963
-2.599748334502678e-09
-0.0008006123764557194
-1.007122449738423e-09
-0.0008006127465632516
4.373243524643748e-10
-0.0008006133837780263
1.875946618751299e-09
-0.0008006141907395979
3.272811213482673e-09
-0.0008006151814280891
4.173291553050099e-09
-0.0008006163101549614
5.284206217469767e-09
-0.0008006175599619346
6.118971621752681e-09
-0.0008006188466051361
6.95397042888578e-09
-0.000800620152850612
7.08628779306298e-09
-0.0008006213941818318
7.329342655034463e-09
-0.0008006224840188102
6.730487570263159e-09
-0.0008006233561851013
5.557414362140424e-09
-0.0008006239706554792
4.277764336867794e-09
-0.0008006243361805034
2.655091289458058e-09
-0.0008006244776601278
1.408004405374658e-09
-0.0008006244031327226
3.759373073592684e-11
-0.000800624182432122
-9.829160445701064e-10
-0.0008006238478470525
-1.797028340531065e-09
-0.000800623452496382
-2.323713920321899e-09
-0.0008006230338005117
-2.761073756143222e-09
-0.0008006226776129316
-2.433655749828214e-09
-0.0008006224017826602
-2.162351026307421e-09
-0.000800622303114603
-1.130347663498681e-09
-0.0008006223801913649
-1.137870883358327e-11
-0.0008006226347806305
1.235379932510851e-09
-0.0008006229902403491
2.058770920336887e-09
-0.0008006233529741232
2.265826372912346e-09
-0.0008006236868029368
2.255395067996697e-09
-0.0008006239204313564
1.756611588518555e-09
1.390007510352199e-09
-0.0008291673622206673
8.141560704188965e-10
-0.0008291673189398238
3.486352447501532e-10
-0.0008291672000330216
-1.086772136344818e-10
-0.0008291670195569691
-4.196653579518003e-10
-0.0008291667945725396
-7.196994793419398e-10
-0.0008291665281730569
-8.59669483834126e-10
-0.0008291662428489917
-1.104041372308375e-09
-0.00082916593483572
-1.161703418760865e-09
-0.0008291656040803709
-1.240730391327006e-09
-0.0008291652573117442
-1.350209296216719e-09
-0.0008291648859833123
-1.391679755297846e-09
-0.0008291645004869212
-1.53600470915594e-09
-0.0008291640858311952
-1.661835867441875e-09
-0.0008291636422679681
-1.820834194871577e-09
-0.0008291631608742211
-2.042423346340595e-09
-0.0008291626334414647
-2.347504010401142e-09
-0.0008291620538294882
-2.693149028512729e-09
-0.0008291614151349564
-3.124773293355207e-09
-0.0008291606898834339
-3.676941831827067e-09
-0.0008291599139036127
-4.344528599039028e-09
-0.0008291590505462071
-4.97342483265507e-09
-0.0008291581425053225
-5.595779893787268e-09
-0.000829157190278146
-6.249678769998034e-09
-0.0008291562626439389
-6.39324936173125e-09
-0.0008291554088556215
-6.417857296107177e-09
-0.0008291547191525755
-5.664642889791078e-09
-0.0008291542941023282
-4.320729293518996e-09
-0.0008291541427472643
-2.738912312683637e-09
-0.0008291543149131212
-8.466384481193606e-10
-0.0008291547503857784
8.891483638918642e-10
-0.0008291554800705144
2.57771525414797e-09
-0.0008291563896333742
4.231391719501035e-09
-0.0008291574978189583
5.273396830710963e-09
-0.0008291587586397209
6.547538567003568e-09
-0.0008291601507280583
7.471403823242312e-09
-0.0008291615777007623
8.421208132756804e-09
-0.0008291630212049595
8.479383967862891e-09
-0.0008291643948712633
8.723008494678369e-09
-0.0008291655944168956
7.925096950713372e-09
-0.0008291665551168953
6.51213060223753e-09
-0.0008291672290724742
4.961373653556207e-09
-0.0008291676322907326
3.040267085592602e-09
-0.0008291677890320497
1.569232420468746e-09
-0.0008291677093795308
-4.239846347788936e-11
-0.0008291674704247918
-1.217599376853785e-09
-0.0008291671063453721
-2.158858246265769e-09
-0.0008291666753413906
-2.746137635558842e-09
-0.0008291662207450668
-3.220942719157551e-09
-0.0008291658334296011
-2.817509583159406e-09
-0.0008291655314429606
-2.462922251415112e-09
-0.0008291654240513458
-1.23594679653162e-09
-0.0008291655083370225
6.963422548324765e-11
-0.0008291657873197118
1.516028636012922e-09
-0.000829166174318709
2.437790780955338e-09
-0.0008291665676898696
2.656994305636434e-09
-0.0008291669262330905
2.609756837088213e-09
-0.0008291671712553939
2.014158931305904e-09
1.551598703369355e-09
-0.0008942248154508631
8.629291792858159e-10
-0.0008942247582823368
2.87430871737273e-10
-0.0008942246128717521
-2.548347566561693e-10
-0.0008942243980404451
-6.347156102805133e-10
-0.0008942241308443892
-9.894583541285351e-10
-0.0008942238178885078
-1.168493120719983e-09
-0.0008942234818882288
-1.443225625827653e-09
-0.0008942231170318591
-1.529261939416878e-09
-0.0008942227282351981
-1.629859503973312e-09
-0.0008942223200682581
-1.758482969129697e-09
-0.0008942218859998426
-1.824566476605318e-09
-0.0008942214371973463
-1.984664455222285e-09
-0.0008942209550860553
-2.142702759585161e-09
-0.0008942204426408795
-2.331540506591127e-09
-0.0008942198898092783
-2.592617680854899e-09
-0.0008942192871754454
-2.948160792510017e-09
-0.0008942186277010048
-3.351130195660526e-09
-0.0008942179036154819
-3.851439014369424e-09
-0.0008942170874789843
-4.482952361104097e-09
-0.000894216213473012
-5.219344299171509e-09
-0.0008942152399130547
-5.947378755598461e-09
-0.0008942142179872746
-6.62189268859399e-09
-0.0008942131420306459
-7.32979179569611e-09
-0.000894212094595137
-7.447125033040104e-09
-0.000894211128749141
-7.391552117997372e-09
-0.0008942103482910145
-6.446231029868152e-09
-0.0008942098682583564
-4.804762348660559e-09
-0.0008942096996669864
-2.909396171237341e-09
-0.0008942099007366807
-6.519376966035718e-10
-0.0008942104009992611
1.394787503426431e-09
-0.0008942112290173429
3.381217151615012e-09
-0.0008942122663146415
5.264947671648458e-09
-0.0008942135365233988
6.544179822244089e-09
-0.0008942149739023185
7.992642701858917e-09
-0.0008942165542211132
9.02624170723227e-09
-0.0008942181879287227
1.005670881055277e-08
-0.0008942198399827713
1.013130226504098e-08
-0.0008942214108225631
1.030555089273961e-08
-0.0008942227894243116
9.319697834275095e-09
-0.0008942238972205
7.628511188013589e-09
-0.0008942246814274779
5.766450633403795e-09
-0.0008942251521341756
3.518388717366242e-09
-0.0008942253357799448
1.753405047404759e-09
-0.0008942252530592822
-1.226946796517668e-10
-0.0008942249872168966
-1.484643592796203e-09
-0.000894224572530291
-2.577558913186187e-09
-0.0008942240832824303
-3.23417209617122e-09
-0.0008942235613454988
-3.746279058393267e-09
-0.00089422311305709
-3.269091988285154e-09
-0.0008942227603428299
-2.817977635399365e-09
-0.0008942226307140573
-1.367037862045772e-09
-0.0008942227206037151
1.634917458694442e-10
-0.0008942230348217608
1.834688936026575e-09
-0.0008942234751601423
2.879802497011559e-09
-0.000894223921962033
3.104471393897206e-09
-0.000894224329516227
3.011471348285137e-09
-0.000894224605017221
2.295459530453087e-09
1.727700611127094e-09
-0.001005630530799362
8.849947532418901e-10
-0.001005630470035942
2.156094616476925e-10
-0.001005630299995918
-4.238969146051003e-10
-0.001005630047499946
-8.829798981978618e-10
-0.001005629732456307
-1.304145416872101e-09
-0.001005629362215412
-1.521259784150768e-09
-0.001005628965583605
-1.857591486270698e-09
-0.001005628537068206
-1.961201108105139e-09
-0.001005628079046156
-2.085764298685456e-09
-0.001005627599594211
-2.242553460417402e-09
-0.001005627089785837
-2.323878376351127e-09
-0.001005626563666843
-2.520460308556257e-09
-0.001005626001328391
-2.707023772270008e-09
-0.001005625404274927
-2.930813225210581e-09
-0.001005624761988583
-3.235617074699981e-09
-0.001005624063072513
-3.648903957419172e-09
-0.001005623299320808
-4.113139791113025e-09
-0.001005622460897067
-4.688465077572189e-09
-0.001005621512692718
-5.40837865365369e-09
-0.001005620497608887
-6.252465425572503e-09
-0.001005619362623046
-7.070901698264265e-09
-0.001005618164806828
-7.82532984353662e-09
-0.001005616897729516
-8.599211916561638e-09
-0.001005615655906384
-8.675154734553529e-09
-0.001005614499583952
-8.549567336855297e-09
-0.001005613554581077
-7.372053564022479e-09
-0.001005612963306379
-5.399409737103792e-09
-0.001005612736982949
-3.123833520486744e-09
-0.001005612949218301
-4.503713408542743e-10
-0.001005613514799931
1.977156956817077e-09
-0.001005614471264499
4.310708574007141e-09
-0.001005615674182875
6.515118042201828e-09
-0.001005617154594683
8.018851440849661e-09
-0.001005618841156932
9.68454764997499e-09
-0.001005620702338062
1.084742688095056e-08
-0.001005622635000287
1.20256482727186e-08
-0.001005624593782048
1.204430719728323e-08
-0.001005626468435539
1.220040669062385e-08
-0.00100562811751136
1.096269730799544e-08
-0.001005629449281984
8.954075769732649e-09
-0.001005630396777647
6.723257410875117e-09
-0.001005630972383662
4.075526470995761e-09
-0.001005631205516109
1.990598537902444e-09
-0.001005631119546868
-2.093345083782962e-10
-0.001005630813319917
-1.786313340424619e-09
-0.001005630323376819
-3.065543184144838e-09
-0.00100562973980834
-3.808891829204372e-09
-0.00100562911053488
-4.380479200007153e-09
-0.001005628563985342
-3.812496086185644e-09
-0.001005628123141037
-3.258023464548074e-09
-0.001005627948168374
-1.540067160117679e-09
-0.001005628037991123
2.508333187201609e-10
-0.001005628402001634
2.200784929845031e-09
-0.001005628923950333
3.394417559486582e-09
-0.001005629456497338
3.635029497789956e-09
-0.001005629944899487
3.495086284348538e-09
-0.0010056302742894
2.6400214912305e-09
1.938812287180417e-09
-0.001168050922244176
9.670933416931155e-10
-0.001168050862239486
1.497188365531516e-10
-0.00116805066644058
-6.197795144525884e-10
-0.001168050372610823
-1.176296644754445e-09
-0.001168050002048808
-1.676379287863308e-09
-0.001168049567149609
-1.949633574356549e-09
-0.001168049100319729
-2.330750947294364e-09
-0.001168048593106353
-2.470997687836638e-09
-0.001168048052894711
-2.625929407273235e-09
-0.00116804748675147
-2.809303382061059e-09
-0.001168046886493616