/*--------------------------------*- C++ -*----------------------------------*\
| =========                 |                                                 |
| \\      /  F ield         | OpenFOAM: The Open Source CFD Toolbox           |
|  \\    /   O peration     | Version:  v1812                                 |
|   \\  /    A nd           | Web:      www.OpenFOAM.com                      |
|    \\/     M anipulation  |                                                 |
\*---------------------------------------------------------------------------*/
FoamFile
{
    version     2.0;
    format      ascii;
    class       volVectorField;
    location    "10000";
    object      U;
}
// * * * * * * * * * * * * * * * * * * * * * * * * * * * * * * * * * * * * * //

dimensions      [0 1 -1 0 0 0 0];


internalField   nonuniform List<vector> 
3770
(
(-0.9863895363070548 4.696201589547353e-09 -6.403490960132681e-07)
(-0.9863897346715789 8.561378139230421e-10 -6.403581968110795e-07)
(-0.986389756854538 3.246122465616873e-10 -6.403441204555707e-07)
(-0.9863897967952412 4.59988627992585e-10 -6.403568486504477e-07)
(-0.9863898158454663 2.062869942540196e-10 -6.4034503542135e-07)
(-0.9863898341617642 1.182807852578194e-10 -6.403562399398948e-07)
(-0.9863898340606133 7.118121154051994e-11 -6.40345212400217e-07)
(-0.9863898438929906 1.177226517028601e-10 -6.403558265551376e-07)
(-0.986389850199749 9.974321581344272e-11 -6.403451597788146e-07)
(-0.9863898493230607 7.112991426805541e-11 -6.403553743715783e-07)
(-0.9863898603957216 7.810993449562175e-11 -6.403449701195068e-07)
(-0.9863898580084176 1.544518133141899e-10 -6.403548204856895e-07)
(-0.9863898664037218 2.380623341541761e-10 -6.403446540880447e-07)
(-0.9863898728739972 2.500449322339486e-10 -6.40354132981214e-07)
(-0.986389880370216 3.015646463135248e-10 -6.403442160215941e-07)
(-0.9863898857291814 3.441088728958226e-10 -6.403532710832217e-07)
(-0.9863898883034273 3.472560494877514e-10 -6.403436232128274e-07)
(-0.9863898876333261 4.184060678013668e-10 -6.403522107302327e-07)
(-0.9863898742808148 2.223813587710896e-10 -6.403428645249313e-07)
(-0.9863898330519851 2.751181870461299e-10 -6.403509234399396e-07)
(-0.9863897877388118 -1.741335396430477e-10 -6.403419052923973e-07)
(-0.9863896970629324 -1.31106272405224e-10 -6.403494346855976e-07)
(-0.9863895634659177 -1.006710189937832e-09 -6.403407871148016e-07)
(-0.9863893908660393 -1.20243306126518e-09 -6.403477984348997e-07)
(-0.986389165419704 -2.062358221610543e-09 -6.403395962587861e-07)
(-0.9863889004210614 -2.816423951508657e-09 -6.403461425957539e-07)
(-0.986388628914751 -2.773781569342542e-09 -6.403384958631673e-07)
(-0.9863883761645944 -3.027851741323043e-09 -6.403447491437494e-07)
(-0.9863881576255624 -2.386364685710849e-09 -6.403377753658242e-07)
(-0.9863879928997419 -2.377152971086625e-09 -6.403438090257918e-07)
(-0.9863878703172424 -1.821167687026974e-09 -6.403375159928861e-07)
(-0.9863878338693344 -1.245368174368684e-09 -6.40343365304765e-07)
(-0.9863877952915292 -1.132189123159875e-09 -6.403377518933571e-07)
(-0.9863878247149734 -5.595244931147833e-10 -6.403432300861782e-07)
(-0.9863879114075108 -9.842385793167995e-11 -6.403382782168001e-07)
(-0.9863880732708532 9.676911053531853e-10 -6.40343494385751e-07)
(-0.9863882219877764 1.890797204521266e-09 -6.403390232350722e-07)
(-0.9863885037218143 2.160693068242999e-09 -6.403439046852954e-07)
(-0.9863887791130787 3.237375174241597e-09 -6.40339893436641e-07)
(-0.9863890605326314 2.857013068956213e-09 -6.403443251782457e-07)
(-0.9863893280620661 3.217810337124929e-09 -6.403405600356942e-07)
(-0.9863895282106036 2.246802183820668e-09 -6.403444787709836e-07)
(-0.9863897111827031 1.618696897745226e-09 -6.403408601594712e-07)
(-0.9863898154924657 1.438472199404949e-09 -6.403444050141009e-07)
(-0.9863898653442413 6.656254363645197e-10 -6.403409130507853e-07)
(-0.9863898717463301 1.544332810958695e-10 -6.403440316349987e-07)
(-0.9863898304106901 -6.656153523189464e-11 -6.403408048315109e-07)
(-0.986389733328215 -1.213773508193359e-09 -6.403435761256422e-07)
(-0.986389618393739 -6.760045253010665e-10 -6.403406030852701e-07)
(-0.9863894770841178 -1.859168349501257e-09 -6.403431879085743e-07)
(-0.9863893307689454 -1.615961799066549e-09 -6.403405238291389e-07)
(-0.98638922196876 -1.564639093336141e-09 -6.403429788735476e-07)
(-0.9863891709320546 -8.357687611113753e-10 -6.403406706592141e-07)
(-0.9863891971137961 2.868752340874875e-10 -6.403430253166159e-07)
(-0.9863892676498973 5.270979825715778e-10 -6.40340990710158e-07)
(-0.9863893708184139 1.134667813367661e-09 -6.40342896727066e-07)
(-0.9863894720728984 5.592278281800064e-10 -6.403400648548174e-07)
(-0.986389552493431 9.436089710687215e-10 -6.403423504501823e-07)
(-0.9588349352495525 1.435323736413144e-08 -1.907375593216023e-06)
(-0.9588350801989006 5.379813094489599e-09 -1.907396692525829e-06)
(-0.9588351488999293 2.466911599096725e-09 -1.907361396737464e-06)
(-0.9588352091057704 2.478710435679388e-09 -1.907396650016643e-06)
(-0.9588352354451963 1.113136081186208e-09 -1.907362595750334e-06)
(-0.9588352551253053 6.86271783025415e-10 -1.907395493020678e-06)
(-0.9588352510915928 2.323781283671105e-10 -1.907362957158545e-06)
(-0.958835249639956 2.969306882371802e-10 -1.907394420669777e-06)
(-0.9588352472284267 2.018624064532118e-10 -1.907362816305036e-06)
(-0.958835234783601 6.384792741388961e-11 -1.907393163825463e-06)
(-0.9588352299923095 2.036297405743609e-10 -1.907362313424346e-06)
(-0.9588352181899752 3.364334832735849e-10 -1.907391588429644e-06)
(-0.9588352072730973 5.182899510205815e-10 -1.907361472658902e-06)
(-0.9588351946147525 4.721355876690441e-10 -1.907389615549347e-06)
(-0.9588351761845746 4.281179869900758e-10 -1.907360278473186e-06)
(-0.9588351455085636 1.555375050335185e-10 -1.907387141177243e-06)
(-0.9588350986903615 -3.275294070919596e-10 -1.907358632717646e-06)
(-0.9588350313986178 -9.742796619390315e-10 -1.907384075839418e-06)
(-0.9588349237384791 -2.632366709996428e-09 -1.907356488103103e-06)
(-0.9588347617105617 -4.151696979939697e-09 -1.907380348848464e-06)
(-0.9588345393706554 -7.201060972702399e-09 -1.907353717611789e-06)
(-0.9588342464452795 -9.499216563383676e-09 -1.907375948328299e-06)
(-0.9588338411556497 -1.446159203316248e-08 -1.907350420080618e-06)
(-0.9588333694629928 -1.717528573823632e-08 -1.907371032013304e-06)
(-0.9588328042509032 -2.135974814428591e-08 -1.907346804686343e-06)
(-0.9588321976845693 -2.350677205210223e-08 -1.907365960880183e-06)
(-0.958831625398274 -2.197394973671351e-08 -1.907343344762674e-06)
(-0.9588311183090605 -2.031077454401426e-08 -1.907361588547597e-06)
(-0.9588307299209596 -1.543853190703117e-08 -1.90734097020807e-06)
(-0.9588304600633617 -1.221068560263226e-08 -1.907358573147551e-06)
(-0.9588303163592279 -7.236513442562783e-09 -1.907339978217837e-06)
(-0.9588303237097747 -2.265995480377833e-09 -1.907357015005686e-06)
(-0.9588304202137872 3.055108277059013e-10 -1.907340534037268e-06)
(-0.9588306076180588 5.334008571555168e-09 -1.907356531256835e-06)
(-0.9588309467623473 1.004370998463431e-08 -1.907341962015549e-06)
(-0.9588314060951203 1.566621916017711e-08 -1.907357222178423e-06)
(-0.9588319140232736 2.020436002290625e-08 -1.907344206945413e-06)
(-0.9588325623566524 2.340521785512477e-08 -1.907358496481632e-06)
(-0.9588332338692042 2.568389519733135e-08 -1.907346830388063e-06)
(-0.9588338412725469 2.311640765943941e-08 -1.907359890789956e-06)
(-0.958834397332142 2.114809353000074e-08 -1.907348951687019e-06)
(-0.9588347912731596 1.508079378845583e-08 -1.907360517802105e-06)
(-0.9588350994611815 1.066148045247197e-08 -1.90734992751236e-06)
(-0.9588352666256529 6.355486668127845e-09 -1.907360361812632e-06)
(-0.9588352914133276 1.26999466617783e-09 -1.907350171142848e-06)
(-0.9588352348594806 -2.536271922714229e-09 -1.907359270595363e-06)
(-0.9588350777278025 -5.650995145541362e-09 -1.907349824925388e-06)
(-0.9588348266335214 -1.056847299981334e-08 -1.907357890048954e-06)
(-0.9588345452493017 -9.606420731974958e-09 -1.907349133813838e-06)
(-0.9588342470153414 -1.268503780899127e-08 -1.907356619983493e-06)
(-0.9588339843550653 -9.917363317692078e-09 -1.907348769804895e-06)
(-0.9588338243018112 -6.539142480529541e-09 -1.907355903570324e-06)
(-0.958833804765165 -5.970340713082797e-10 -1.907349138585177e-06)
(-0.9588339298773791 5.249668937118146e-09 -1.907356073454511e-06)
(-0.958834126065925 7.275439504441925e-09 -1.907350193660901e-06)
(-0.9588343684537139 9.209109098371673e-09 -1.907356143016745e-06)
(-0.9588345928293833 6.90844277078948e-09 -1.907349935021787e-06)
(-0.9588347871915996 6.963254717482385e-09 -1.907359919741633e-06)
(-0.930446510580163 2.126183030884856e-08 -3.181504623860639e-06)
(-0.9304466405226657 1.036909139169605e-08 -3.181533950898425e-06)
(-0.9304467221837249 5.237419164118828e-09 -3.181481307431654e-06)
(-0.930446772840384 4.343999458101317e-09 -3.181536712322436e-06)
(-0.930446784043763 1.689177464493115e-09 -3.181481862238981e-06)
(-0.9304467864933763 7.080165433545464e-10 -3.181535775092718e-06)
(-0.9304467575491185 -3.426929951877249e-10 -3.181482240830305e-06)
(-0.9304467328724407 -3.468520345535072e-10 -3.181534359008492e-06)
(-0.9304467031294619 -5.792164131102088e-10 -3.181482129954888e-06)
(-0.9304466605302349 -9.313686912917708e-10 -3.181532494295266e-06)
(-0.9304466254409572 -7.47319661379619e-10 -3.181481528514591e-06)
(-0.9304465766059843 -7.195430962533466e-10 -3.181530083051381e-06)
(-0.9304465253244576 -6.973559881558895e-10 -3.181480413873045e-06)
(-0.9304464652628159 -1.057571569293196e-09 -3.181527030912889e-06)
(-0.9304463913815765 -1.675825492141432e-09 -3.181478754118902e-06)
(-0.9304462926750493 -2.866766448824357e-09 -3.181523168979045e-06)
(-0.9304461646948632 -4.584788194247631e-09 -3.181476365640821e-06)
(-0.9304459990803547 -6.964300994328726e-09 -3.181518331143579e-06)
(-0.9304457711518686 -1.125105922759697e-08 -3.181473128415393e-06)
(-0.9304454647199299 -1.580274887787935e-08 -3.181512343775187e-06)
(-0.9304450762922625 -2.287049789585566e-08 -3.181468759059459e-06)
(-0.9304445949991449 -2.900743942157763e-08 -3.181505110093787e-06)
(-0.9304439779573664 -3.911901162261445e-08 -3.181463292851291e-06)
(-0.930443298743691 -4.489492926914797e-08 -3.181496781292417e-06)
(-0.9304425202520443 -5.213855715972701e-08 -3.181457023489751e-06)
(-0.930441738262917 -5.396855294815869e-08 -3.181487909274526e-06)
(-0.9304410320918162 -4.876638850389304e-08 -3.181450745474206e-06)
(-0.9304404453350449 -4.23308541447882e-08 -3.18148003818737e-06)
(-0.9304400354625718 -3.0368144486134e-08 -3.181446183961357e-06)
(-0.9304397951927981 -2.104462982353291e-08 -3.181474430861918e-06)
(-0.9304397386723141 -8.99172550711538e-09 -3.181443966671951e-06)
(-0.9304398817871 2.844869242065897e-09 -3.181471342149426e-06)
(-0.9304401441985058 1.01523094710455e-08 -3.181444425995839e-06)
(-0.9304405390081643 2.156781439415443e-08 -3.181470187605104e-06)
(-0.930441122917545 3.244912943457262e-08 -3.181446535851687e-06)
(-0.9304418494953177 4.368409567590472e-08 -3.181471217391525e-06)
(-0.9304426116983957 5.22896838880123e-08 -3.181450233277099e-06)
(-0.9304435253714197 5.795833433316846e-08 -3.181473470457668e-06)
(-0.9304444260000284 6.002218812423003e-08 -3.181454821897982e-06)
(-0.9304452149570435 5.257705469353096e-08 -3.18147611666515e-06)
(-0.9304458992087602 4.566863903684508e-08 -3.181458684545394e-06)
(-0.9304463628096131 3.159142570729337e-08 -3.181477495272856e-06)
(-0.9304466999103922 2.099923148400899e-08 -3.181460549151745e-06)
(-0.9304468548478986 1.017724420181977e-08 -3.181477442605253e-06)
(-0.9304468183538668 -1.216735521330024e-09 -3.181461060689492e-06)
(-0.9304466885754131 -9.527559683179499e-09 -3.18147566063209e-06)
(-0.9304464359597108 -1.664014014561812e-08 -3.181460378324466e-06)
(-0.930446081285913 -2.533628381142634e-08 -3.181473203185617e-06)
(-0.9304457203284158 -2.352431484748061e-08 -3.181458954620604e-06)
(-0.9304453492286572 -2.674682198993119e-08 -3.181470781692775e-06)
(-0.9304450727627563 -1.917551928674745e-08 -3.181457977464185e-06)
(-0.9304449264511909 -9.909633210917139e-09 -3.1814693292243e-06)
(-0.9304449779494391 3.298238359671828e-09 -3.181458426010154e-06)
(-0.9304451828205218 1.473238182730901e-08 -3.181469695866423e-06)
(-0.9304454690970458 1.873535198897821e-08 -3.181460483863986e-06)
(-0.930445790178198 2.153072973309714e-08 -3.181470604550529e-06)
(-0.9304460786511801 1.694146043451377e-08 -3.181462289704156e-06)
(-0.9304463266885231 1.583830043346408e-08 -3.181480852863999e-06)
(-0.9015342697227826 2.774315139618295e-08 -4.446969734713941e-06)
(-0.9015343731366308 1.489389783993911e-08 -4.447008089113749e-06)
(-0.9015344430907832 7.649238854363936e-09 -4.4469388267571e-06)
(-0.901534465373053 5.300966982795109e-09 -4.447013425716831e-06)
(-0.901534449087051 1.240041895728522e-09 -4.446938821936989e-06)
(-0.9015344185560359 -4.602223547520672e-10 -4.447013055187771e-06)
(-0.9015343562722143 -2.265260037482641e-09 -4.446939319310233e-06)
(-0.9015342921324279 -2.476185349298223e-09 -4.447011570724316e-06)
(-0.9015342210573409 -2.935090970318382e-09 -4.446939456812209e-06)
(-0.9015341369882256 -3.637798074254823e-09 -4.447009340759617e-06)
(-0.9015340503162017 -3.586284102183619e-09 -4.446939057484196e-06)
(-0.9015339539821299 -3.873953421175154e-09 -4.447006332741321e-06)
(-0.9015338429278231 -4.332074010626141e-09 -4.446938044370091e-06)
(-0.9015337194931139 -5.312317913303364e-09 -4.447002459343435e-06)
(-0.9015335728632863 -6.967207364827319e-09 -4.446936320308044e-06)
(-0.9015333920606705 -9.6248581997826e-09 -4.446997500774514e-06)
(-0.9015331711169601 -1.319900661987485e-08 -4.446933602042998e-06)
(-0.9015329006272003 -1.804423637161297e-08 -4.446991184264019e-06)
(-0.9015325561861073 -2.57140643003875e-08 -4.446929651557321e-06)
(-0.9015321271503788 -3.40815170206049e-08 -4.446983214011517e-06)
(-0.901531596295355 -4.581836061962139e-08 -4.446923946537992e-06)
(-0.9015309817790843 -5.624251796867376e-08 -4.446973245019721e-06)
(-0.9015302268524478 -7.152173079259635e-08 -4.446916383344138e-06)
(-0.9015294295374697 -7.991381680474065e-08 -4.446961376513944e-06)
(-0.9015285518770799 -8.913535311661183e-08 -4.446907252666229e-06)
(-0.9015277114384703 -8.881981724785876e-08 -4.446948362981021e-06)
(-0.9015269853482503 -7.794682442931899e-08 -4.446897738512525e-06)
(-0.9015264197689753 -6.450296849281602e-08 -4.446936522772975e-06)
(-0.9015260753668972 -4.330222505158791e-08 -4.446890490154765e-06)
(-0.9015259316466214 -2.584332729862825e-08 -4.446927863153585e-06)
(-0.9015260077065745 -4.944361082740236e-09 -4.446886558720841e-06)
(-0.9015262967639655 1.523321044222225e-08 -4.446922767566033e-06)
(-0.9015267486285746 2.86926766485837e-08 -4.446886520816232e-06)
(-0.901527330715433 4.744680758491557e-08 -4.446920697907209e-06)
(-0.901528108224705 6.503403688223808e-08 -4.446888995392777e-06)
(-0.9015290223565371 8.194988700821788e-08 -4.446921863013425e-06)
(-0.9015299811820023 9.407198821190277e-08 -4.446894122494556e-06)
(-0.9015310413625882 1.012265302066817e-07 -4.446925233035959e-06)
(-0.9015320676720174 1.014308639746744e-07 -4.446900742857117e-06)
(-0.9015329430059086 8.702274744636182e-08 -4.446929381415613e-06)
(-0.901533673183739 7.310722938642361e-08 -4.446906544811616e-06)
(-0.9015341541507681 4.916661790069332e-08 -4.446931785558659e-06)
(-0.9015344689573715 3.087865885512899e-08 -4.446909412833619e-06)
(-0.9015345856968309 1.201831826749028e-08 -4.446931912442764e-06)
(-0.9015344961157677 -6.542602137631166e-09 -4.44691019445186e-06)
(-0.901534303080182 -1.988149737004151e-08 -4.446929410351092e-06)
(-0.901533993428367 -3.110786161495435e-08 -4.446908979757094e-06)
(-0.901533586507421 -4.307900631488833e-08 -4.446925694763379e-06)
(-0.9015331944763333 -3.96755105503042e-08 -4.446906482187458e-06)
(-0.9015328092755408 -4.157400970565712e-08 -4.446921805626237e-06)
(-0.9015325586137959 -2.767640614371744e-08 -4.446904538209113e-06)
(-0.9015324472379719 -1.116598013593663e-08 -4.446919386968194e-06)
(-0.9015325601173886 1.018539880641812e-08 -4.446904889213702e-06)
(-0.9015328161938856 2.730275399805922e-08 -4.446919955242291e-06)
(-0.9015331544461721 3.306509343089677e-08 -4.446908052204501e-06)
(-0.9015335106067787 3.619271446021278e-08 -4.446921983487994e-06)
(-0.9015338245555978 2.88220369202808e-08 -4.44691217547332e-06)
(-0.9015340847363005 2.590624332204037e-08 -4.44693828879342e-06)
(-0.8723025477695093 3.337598791559939e-08 -5.693589844558758e-06)
(-0.8723026285248984 1.828194645271432e-08 -5.693639197694087e-06)
(-0.8723026703306511 8.893713610438187e-09 -5.693552285547407e-06)
(-0.8723026572737645 4.77144464672165e-09 -5.693646345687858e-06)
(-0.8723026020191473 -7.750737772296999e-10 -5.693552326644791e-06)
(-0.8723025317260706 -3.313219197773631e-09 -5.693646416037964e-06)
(-0.872302422493567 -6.025234303141359e-09 -5.693553243424214e-06)
(-0.872302314634548 -6.601089502465832e-09 -5.693644939347377e-06)
(-0.8723021935600042 -7.39108650006023e-09 -5.693553953265549e-06)
(-0.8723020570753935 -8.587565212634318e-09 -5.693642481035417e-06)
(-0.8723019163527407 -8.870467171380894e-09 -5.69355411208422e-06)
(-0.8723017580789746 -9.689940497476486e-09 -5.693639061605847e-06)
(-0.8723015833071525 -1.092681085912435e-08 -5.693553558796312e-06)
(-0.8723013898768599 -1.278455174504131e-08 -5.693634597076351e-06)
(-0.8723011675075596 -1.582037753542785e-08 -5.693552164827487e-06)
(-0.8723009046658448 -2.031087171996115e-08 -5.693628793808614e-06)
(-0.8723005960935105 -2.61063301184316e-08 -5.693549524411663e-06)
(-0.8723002327525914 -3.375991610378096e-08 -5.69362127857395e-06)
(-0.8722997913248314 -4.506812610319493e-08 -5.693545254240462e-06)
(-0.8722992612888447 -5.739263453083774e-08 -5.693611559893915e-06)
(-0.8722986391754308 -7.373480862889959e-08 -5.693538552048054e-06)
(-0.8722979361733993 -8.8097527528913e-08 -5.693599082833313e-06)
(-0.8722971086446425 -1.078303640578404e-07 -5.693529065284007e-06)
(-0.8722962642325021 -1.178183244426167e-07 -5.693583786023105e-06)
(-0.8722953587019712 -1.276388827924989e-07 -5.693517097721755e-06)
(-0.8722945297591763 -1.235471496098074e-07 -5.693566580100654e-06)
(-0.8722938406012326 -1.054782477759367e-07 -5.693504224005644e-06)
(-0.8722933476986362 -8.350336598499432e-08 -5.693550625345979e-06)
(-0.8722930977957999 -5.175094701504883e-08 -5.693494052744322e-06)
(-0.8722930723407435 -2.492720743511446e-08 -5.69353869018054e-06)
(-0.872293285240746 5.660916366318541e-09 -5.693488116184266e-06)
(-0.8722937275960536 3.472159556863767e-08 -5.693531412728172e-06)
(-0.8722943230587752 5.499665735915954e-08 -5.693487216247235e-06)
(-0.8722950700558701 8.109519391902257e-08 -5.693528150842249e-06)
(-0.8722959947269003 1.049141472199012e-07 -5.693489844435213e-06)
(-0.8722970574540556 1.268755453162859e-07 -5.693529386767247e-06)
(-0.872298118941678 1.414660363967623e-07 -5.693496153101441e-06)
(-0.8722992836099657 1.489294872240057e-07 -5.693533791722911e-06)
(-0.8723003643738529 1.458411666193402e-07 -5.693504757588225e-06)
(-0.8723012802126419 1.231020432884031e-07 -5.693539428437448e-06)
(-0.8723020130609049 1.008677403720681e-07 -5.693512433878719e-06)
(-0.8723024820252691 6.620564238129539e-08 -5.693542843375126e-06)
(-0.8723027728614229 3.939754339996808e-08 -5.693516255941264e-06)
(-0.8723028517622071 1.183273338670417e-08 -5.693543184833846e-06)
(-0.8723027225016968 -1.38969939819806e-08 -5.693517188525161e-06)
(-0.8723024906692012 -3.229356025231424e-08 -5.693539918258356e-06)
(-0.8723021525449743 -4.717250651589731e-08 -5.693515264519809e-06)
(-0.8723017222754745 -6.169331602432784e-08 -5.693534777907458e-06)
(-0.8723013372431418 -5.60674026826349e-08 -5.693511456012026e-06)
(-0.8723009544968695 -5.561372318959099e-08 -5.693529211988348e-06)
(-0.8723007412823248 -3.468933369640625e-08 -5.693508224307483e-06)
(-0.8723006564329965 -1.050677095749381e-08 -5.693525609977621e-06)
(-0.8723008154228631 1.900199611007266e-08 -5.693508223603128e-06)
(-0.8723010958078685 4.143144306967476e-08 -5.693526227105842e-06)
(-0.8723014602450508 4.854251882641701e-08 -5.693512269910921e-06)
(-0.872301823973911 5.149702464190012e-08 -5.693529185577548e-06)
(-0.8723021386122766 4.098936191248507e-08 -5.693518162487536e-06)
(-0.8723023891288088 3.570383556887359e-08 -5.693550272923115e-06)
(-0.843065925726881 3.775970574414522e-08 -6.907306459295872e-06)
(-0.8430659721212859 2.023537393934041e-08 -6.907368769968947e-06)
(-0.8430659796734146 8.582854421916287e-09 -6.907262721300394e-06)
(-0.8430659268481973 2.460804802170938e-09 -6.907376735284192e-06)
(-0.8430658311081042 -4.668596945877189e-09 -6.907263472207374e-06)
(-0.8430657155743465 -8.167264264503684e-09 -6.907376785549232e-06)
(-0.8430655626380638 -1.190700806628934e-08 -6.907265173782659e-06)
(-0.8430654032052424 -1.301936052697018e-08 -6.907375177585437e-06)
(-0.8430652290800354 -1.424448633650176e-08 -6.907266670235356e-06)
(-0.8430650402590292 -1.605427524199848e-08 -6.90737248075217e-06)
(-0.8430648377070995 -1.685843330312366e-08 -6.907267615340774e-06)
(-0.8430646233339502 -1.836373350778262e-08 -6.907368686725157e-06)
(-0.8430643823262601 -2.060404659646049e-08 -6.90726781228858e-06)
(-0.8430641227951551 -2.350400063888785e-08 -6.907363689028727e-06)
(-0.8430638298008183 -2.811421040776792e-08 -6.907267031198789e-06)
(-0.8430634947626477 -3.462515196399825e-08 -6.907357163987876e-06)
(-0.8430631111322403 -4.278311241173056e-08 -6.90726476638725e-06)
(-0.8430626725594524 -5.331935792304664e-08 -6.907348630183648e-06)
(-0.8430621572346476 -6.82225781605055e-08 -6.90726049998491e-06)
(-0.8430615637364636 -8.427490669957446e-08 -6.907337493725468e-06)
(-0.8430608747070655 -1.048616892347011e-07 -6.907253170245036e-06)
(-0.8430601276417912 -1.225376050943078e-07 -6.907322851362844e-06)
(-0.8430592667284167 -1.45842374256374e-07 -6.907242212808329e-06)
(-0.8430584115824329 -1.563864779982139e-07 -6.90730453951527e-06)
(-0.8430575192596939 -1.655626264220394e-07 -6.907227830743726e-06)
(-0.8430567289980198 -1.564188158525078e-07 -6.907283607756928e-06)
(-0.8430561020761718 -1.299904024051366e-07 -6.907211998017273e-06)
(-0.8430556904327902 -9.843041383594209e-08 -6.907263935868e-06)
(-0.8430555434586573 -5.526486624225149e-08 -6.907199164971878e-06)
(-0.8430556297104405 -1.83198567116763e-08 -6.907249012187395e-06)
(-0.8430559677266725 2.235926004016568e-08 -6.907191324954187e-06)
(-0.8430565239627491 6.036506320393614e-08 -6.907239550974682e-06)
(-0.8430572580689955 8.779108734195594e-08 -6.907189497003925e-06)
(-0.8430581279043384 1.208987504636683e-07 -6.907235163266295e-06)
(-0.8430591564137428 1.502021422369286e-07 -6.907191966936796e-06)
(-0.8430603090829949 1.764092325258267e-07 -6.907236123265146e-06)
(-0.8430614619546611 1.92541930756191e-07 -6.907199163186377e-06)
(-0.8430626743806318 1.99297424360063e-07 -6.907241333085579e-06)
(-0.8430637895411449 1.917889415775943e-07 -6.907209240034939e-06)
(-0.8430647237214832 1.598470435019879e-07 -6.907248216152351e-06)
(-0.8430654541073526 1.283340222510838e-07 -6.907218440497633e-06)
(-0.8430659159609398 8.257510282722164e-08 -6.907252525524037e-06)
(-0.8430661802250632 4.670105327220427e-08 -6.907222970158004e-06)
(-0.8430662283494857 1.012806243603992e-08 -6.90725288831235e-06)
(-0.8430660799484082 -2.251518541256799e-08 -6.9072238854726e-06)
(-0.8430658203091054 -4.589635369737044e-08 -6.907248829149261e-06)
(-0.8430654724412735 -6.388721826089682e-08 -6.907221102270571e-06)
(-0.8430650377112731 -8.034906393478376e-08 -6.90724228771408e-06)
(-0.8430646606315394 -7.211963519928642e-08 -6.907215839134143e-06)
(-0.8430642911808021 -6.869121726910668e-08 -6.907234977470342e-06)
(-0.8430641063990152 -4.043095372874713e-08 -6.907211164903459e-06)
(-0.8430640439720437 -8.506354143626615e-09 -6.907230054537512e-06)
(-0.8430642288154793 2.897018505421608e-08 -6.907210524334307e-06)
(-0.8430645217073155 5.629257824598048e-08 -6.907230399330219e-06)
(-0.8430648946731367 6.435586058929482e-08 -6.907214970965997e-06)
(-0.8430652542085812 6.670157702565432e-08 -6.907233754901613e-06)
(-0.8430655592407769 5.275978214838163e-08 -6.907221686515143e-06)
(-0.8430657906665989 4.462025820688039e-08 -6.90725797734697e-06)
(-0.814225030171121 4.0853032762969e-08 -8.071574199523638e-06)
(-0.8142250532980128 2.069566949633442e-08 -8.071650747843764e-06)
(-0.8142250273006846 6.611969417941625e-09 -8.071524754597188e-06)
(-0.8142249387935852 -1.695586766964733e-09 -8.071658498770436e-06)
(-0.8142248021143235 -1.053372699646123e-08 -8.071526571684096e-06)
(-0.8142246458662458 -1.510082104704372e-08 -8.071657902906854e-06)
(-0.8142244448083074 -2.000748157491913e-08 -8.071529156598426e-06)
(-0.8142242411916518 -2.180596614723509e-08 -8.071655782347356e-06)
(-0.8142240182540692 -2.35693434235814e-08 -8.071531552002438e-06)
(-0.8142237777536923 -2.608318782906181e-08 -8.071652591311845e-06)
(-0.8142235253090789 -2.753976972787118e-08 -8.071533387132706e-06)
(-0.8142232536813186 -2.984013434140795e-08 -8.071648255681988e-06)
(-0.8142229584122075 -3.32268001691136e-08 -8.071534399307439e-06)
(-0.8142226417587304 -3.725198649045394e-08 -8.071642646896549e-06)
(-0.8142222911974342 -4.351130652481374e-08 -8.071534338841174e-06)
(-0.8142218982853892 -5.210132883305194e-08 -8.071635377046818e-06)
(-0.8142214579280627 -6.262291590112268e-08 -8.071532598769269e-06)
(-0.8142209647637865 -7.598187013459494e-08 -8.071625925714608e-06)
(-0.8142203981203896 -9.430497365386205e-08 -8.071528574450053e-06)
(-0.8142197553911659 -1.137700312585863e-07 -8.071613564024213e-06)
(-0.8142190340935482 -1.381897367131919e-07 -8.071521011847993e-06)
(-0.8142182586557816 -1.58597492407839e-07 -8.07159729331665e-06)
(-0.8142173856752574 -1.847090684922015e-07 -8.071509131256202e-06)
(-0.8142165371340784 -1.949346042337984e-07 -8.071576768965888e-06)
(-0.8142156637071738 -2.024970601439174e-07 -8.071493100874742e-06)
(-0.8142149144180165 -1.872939672334784e-07 -8.071553017269788e-06)
(-0.8142143404067658 -1.515791099082891e-07 -8.071475140065899e-06)
(-0.8142140011958837 -1.096004518544275e-07 -8.071530548757667e-06)
(-0.8142139342080086 -5.435961557030397e-08 -8.07146034433758e-06)
(-0.8142141116009162 -6.691988409120757e-09 -8.071513333449591e-06)
(-0.8142145454077993 4.437283019199621e-08 -8.071451071746692e-06)
(-0.8142152062141105 9.127977819652337e-08 -8.071502292450677e-06)
(-0.8142160233475642 1.26087110808998e-07 -8.071448431528081e-06)
(-0.8142169954160539 1.658799699631771e-07 -8.071496850647596e-06)
(-0.8142181019845215 2.000014035387614e-07 -8.07145073184142e-06)
(-0.8142193408566077 2.297678227522192e-07 -8.071497605540434e-06)
(-0.8142205352948123 2.466548347567608e-07 -8.071458339991404e-06)
(-0.8142218059691847 2.520043568895094e-07 -8.071503188966134e-06)
(-0.8142229401841187 2.391170432436409e-07 -8.071469410751352e-06)
(-0.8142238936098825 1.973855493141775e-07 -8.07151079013122e-06)
(-0.8142246207369013 1.558077915116387e-07 -8.071479515510753e-06)
(-0.8142250745485443 9.868395799044202e-08 -8.071515491300001e-06)
(-0.8142253303890111 5.331308162638548e-08 -8.07148436263174e-06)
(-0.8142253602228472 7.444577847425935e-09 -8.071515729470688e-06)
(-0.8142252006779805 -3.187887981837821e-08 -8.071485001958853e-06)
(-0.8142249271086353 -6.026400144229791e-08 -8.071510884935323e-06)
(-0.8142245764064788 -8.099468092593773e-08 -8.071481347547968e-06)
(-0.8142241362607963 -9.896902937682814e-08 -8.071503036880586e-06)
(-0.814223775362373 -8.796123410031068e-08 -8.071474736319508e-06)
(-0.8142234083571508 -8.117404558680787e-08 -8.07149415147462e-06)
(-0.8142232448586347 -4.536459822460276e-08 -8.071468589991629e-06)
(-0.8142231914902867 -5.656791496768548e-09 -8.071487864775265e-06)
(-0.8142233945034877 3.968394574132378e-08 -8.07146704211139e-06)
(-0.8142236920179882 7.15900263158941e-08 -8.071487603194727e-06)
(-0.8142240683997819 8.028718237236347e-08 -8.071471298993262e-06)
(-0.8142244215646062 8.165564337059403e-08 -8.071490737192391e-06)
(-0.8142247139136268 6.400305317779963e-08 -8.071477778549979e-06)
(-0.8142249262320967 5.26024638510144e-08 -8.071516418856452e-06)
(-0.7861764285054808 4.286815306813942e-08 -9.171155199111186e-06)
(-0.7861764262433234 1.982930633775533e-08 -9.171245271310431e-06)
(-0.7861763724536812 3.069660486944884e-09 -9.171100098213549e-06)
(-0.7861762534430616 -7.628874060018001e-09 -9.171251960365397e-06)
(-0.7861760850098134 -1.83330574582963e-08 -9.171102855732124e-06)
(-0.7861758923900676 -2.410513540113235e-08 -9.171250082071971e-06)
(-0.786175658117699 -3.030236563501654e-08 -9.171106192638903e-06)
(-0.7861754130343293 -3.292973156749179e-08 -9.171246957314549e-06)
(-0.7861751488073794 -3.532809868569968e-08 -9.171109251033915e-06)
(-0.7861748680255007 -3.861468044471593e-08 -9.171242849006091e-06)
(-0.786174569089672 -4.081373231262988e-08 -9.171111788145659e-06)
(-0.7861742576109855 -4.396925295931779e-08 -9.171237607199474e-06)
(-0.7861739164002528 -4.858358339306423e-08 -9.17111352110215e-06)
(-0.7861735562329666 -5.377185987555891e-08 -9.171231066571737e-06)
(-0.7861731619254484 -6.168868571569604e-08 -9.171114072908403e-06)
(-0.7861727273568042 -7.237042512391111e-08 -9.17122285992212e-06)
(-0.7861722461464745 -8.522113757629831e-08 -9.171112789889349e-06)
(-0.7861717152425586 -1.013403019541807e-07 -9.171212425124431e-06)
(-0.7861711135825786 -1.229487635723738e-07 -9.171109025610796e-06)
(-0.7861704476269358 -1.455832075725598e-07 -9.171199079034437e-06)
(-0.7861696972001052 -1.735756850310566e-07 -9.171101456034509e-06)
(-0.7861689097109862 -1.963332907304669e-07 -9.171181598332538e-06)
(-0.7861680283923117 -2.24742525453135e-07 -9.171089229488572e-06)
(-0.7861671811837442 -2.340245960703844e-07 -9.171159637526858e-06)
(-0.786166323658383 -2.392343501163896e-07 -9.171072423005661e-06)
(-0.7861655987275626 -2.171447087859646e-07 -9.17113423265516e-06)
(-0.7861650640963156 -1.712637250919403e-07 -9.17105344300562e-06)