/*--------------------------------*- C++ -*----------------------------------*\
| =========                 |                                                 |
| \\      /  F ield         | OpenFOAM: The Open Source CFD Toolbox           |
|  \\    /   O peration     | Version:  v1812                                 |
|   \\  /    A nd           | Web:      www.OpenFOAM.com                      |
|    \\/     M anipulation  |                                                 |
\*---------------------------------------------------------------------------*/
FoamFile
{
    version     2.0;
    format      ascii;
    class       volVectorField;
    location    "10000";
    object      wallShearStress;
}
// * * * * * * * * * * * * * * * * * * * * * * * * * * * * * * * * * * * * * //

dimensions      [0 2 -2 0 0 0 0];


internalField   uniform (0 0 0);

boundaryField
{
    inlet
    {
        type            cyclic;
    }
    outlet
    {
        type            cyclic;
    }
    bottomWall
    {
        type            calculated;
        value           nonuniform List<vector> 
58
(
(-0.0008840178827812821 -4.929428578495917e-10 4.159153316956813e-08)
(-0.000884004995462757 -1.785505614528668e-10 4.159212426757546e-08)
(-0.0008840035574465571 -5.752143238297228e-11 4.159120998816139e-08)
(-0.0008840009633943887 -6.77622284332661e-11 4.159203669928063e-08)
(-0.0008839997258755784 -3.555418833458646e-11 4.159126941313831e-08)
(-0.0008839985363325208 -1.886640423078368e-11 4.159199716063667e-08)
(-0.0008839985429980667 -1.077119698413918e-11 4.159128090714092e-08)
(-0.0008839979043810339 -1.783528224153817e-11 4.159197031020109e-08)
(-0.0008839974946877916 -1.120854401050111e-11 4.15912774884133e-08)
(-0.0008839975516486309 -1.098676591010437e-11 4.159194093997028e-08)
(-0.0008839968325258958 -1.087612045646689e-11 4.159126516922011e-08)
(-0.0008839969876417311 -1.621999932229401e-11 4.159190496385579e-08)
(-0.0008839964422998369 -2.765401079302109e-11 4.159124464221864e-08)
(-0.0008839960220163406 -2.826609698694858e-11 4.159186030869128e-08)
(-0.000883995535139713 -3.220170070330217e-11 4.159121618843859e-08)
(-0.0008839951870270401 -3.355603773516046e-11 4.159180432654559e-08)
(-0.0008839950198435848 -3.097442005393326e-11 4.159117768427275e-08)
(-0.000883995063226916 -2.959638927420366e-11 4.159173545509013e-08)
(-0.0008839959304931419 6.580261610677155e-12 4.1591128407255e-08)
(-0.0008839986082298425 1.714338101751493e-11 4.159165184689134e-08)
(-0.0008840015514278906 7.945768882417371e-11 4.159106610862408e-08)
(-0.000884007440752299 1.175251476555238e-10 4.159155515785641e-08)
(-0.0008840161180459736 2.321369524421921e-10 4.159099349395238e-08)
(-0.0008840273288547304 2.925685035479396e-10 4.159144889819457e-08)
(-0.0008840419717666049 4.10781268891035e-10 4.159091616837727e-08)
(-0.0008840591847380535 4.978895690033403e-10 4.159134137647663e-08)
(-0.0008840768201130994 4.883982116734626e-10 4.159084472602157e-08)
(-0.0008840932372988292 4.853263577280306e-10 4.159125089903518e-08)
(-0.0008841074321474116 3.881015838021658e-10 4.159079795494475e-08)
(-0.0008841181314444447 3.418778726312643e-10 4.159118985841299e-08)
(-0.0008841260938894756 2.330016042178465e-10 4.159078112429215e-08)
(-0.0008841284609586466 1.433683929710816e-10 4.159116104697535e-08)
(-0.0008841309666822238 1.023832917553582e-10 4.159079645051414e-08)
(-0.0008841290558023256 -6.51364994124082e-12 4.159115226485544e-08)
(-0.0008841234252536412 -1.091430280928224e-10 4.159083062947472e-08)
(-0.0008841129121491408 -2.308329252344273e-10 4.159116941765318e-08)
(-0.0008841032520442795 -3.675225246357133e-10 4.159087900215022e-08)
(-0.0008840849528166047 -4.508638041452544e-10 4.159119604323595e-08)
(-0.0008840670649972899 -5.43957523475324e-10 4.159093549194698e-08)
(-0.0008840487855788445 -5.072956827937682e-10 4.159122332387194e-08)
(-0.0008840314084475662 -5.000675563641647e-10 4.159097875794207e-08)
(-0.000884018407592802 -3.759469490125789e-10 4.15912332739351e-08)
(-0.000884006523654783 -2.761816935676235e-10 4.159099823009247e-08)
(-0.0008839997483697214 -1.975545598089756e-10 4.159122846736105e-08)
(-0.0008839965101360889 -8.427501402931277e-11 4.159100165688694e-08)
(-0.0008839960946961423 3.163394866922091e-12 4.159120421276103e-08)
(-0.0008839987790986213 7.129168237224149e-11 4.159099462984122e-08)
(-0.0008840050853891382 2.054840864125809e-10 4.159117463450948e-08)
(-0.0008840125506478375 1.798495250284984e-10 4.159098153793475e-08)
(-0.0008840217288551245 2.971692958363593e-10 4.159114943353054e-08)
(-0.0008840312332713846 2.607171599228995e-10 4.159097640612726e-08)
(-0.0008840383004628394 2.111675590128972e-10 4.159113587060307e-08)
(-0.0008840416161863875 8.414544563943096e-11 4.159098595182063e-08)
(-0.0008840399152692184 -7.063027412425569e-11 4.159113888852401e-08)
(-0.000884035333405703 -1.27879643776202e-10 4.159100673418388e-08)
(-0.0008840286317710161 -1.950384051835622e-10 4.15911305268065e-08)
(-0.0008840220548782666 -1.344353443363824e-10 4.159094658727621e-08)
(-0.0008840168344350968 -1.121267672166129e-10 4.159109503529322e-08)
)
;
    }
    topWall
    {
        type            calculated;
        value           nonuniform List<vector> 
58
(
(0.005142436649824619 8.836242098586128e-10 6.354163145273416e-08)
(0.005142247558602737 -1.58575723200454e-09 6.35392374180521e-08)
(0.005142251281395083 3.512142949402598e-09 6.353933547044657e-08)
(0.005142457924077626 -2.321226928962756e-10 6.354170359596675e-08)
(0.005142297333229676 -1.107241232602366e-09 6.353931115288098e-08)
(0.005142316780604438 3.658548978165923e-09 6.353941674858831e-08)
(0.005142526413480757 -7.072168720748499e-10 6.354174270714578e-08)
(0.00514234588714325 -1.7910193856666e-09 6.353911746416819e-08)
(0.005142355711265938 3.28993304363315e-09 6.353919814425544e-08)
(0.005142551057225739 -9.377420760391971e-10 6.354142831376993e-08)
(0.005142368697704785 -1.920140644347164e-09 6.353891274502981e-08)
(0.005142368491288876 3.214923591422575e-09 6.353890518534573e-08)
(0.005142568342943677 -1.006114675170474e-09 6.35413237129546e-08)
(0.005142374338527228 -1.956605879972652e-09 6.353864697814097e-08)
(0.005142384168985886 3.160906633981073e-09 6.353890476545557e-08)
(0.005142568590227319 -9.651362975412347e-10 6.354106195679127e-08)
(0.005142394705259493 -2.038182894232983e-09 6.35387450336192e-08)
(0.005142378808234123 3.308133331596554e-09 6.353861310936297e-08)
(0.005142598335514492 -1.273624827995327e-09 6.35412154564556e-08)
(0.005142373876687025 -1.431440781712079e-09 6.353837547082348e-08)
(0.005142437483682305 2.445967283856828e-09 6.353888661295365e-08)
(0.005142532761667474 7.395440350911281e-10 6.354043089997702e-08)
(0.00514252673786486 -4.775455820723934e-09 6.353956095961614e-08)
(0.005142292509197717 9.80225245396687e-09 6.3536677127903e-08)
(0.005142664312268078 4.153282323492784e-09 6.354130752538145e-08)
(0.005144527570318488 -2.007540271011623e-08 6.356098429651518e-08)
(0.005144746666482057 -1.859767379138522e-08 6.35621928901764e-08)
(0.005144091204919769 -1.700526735984146e-08 6.355418361838768e-08)
(0.005143564397713273 -8.814400827964851e-09 6.35496023247548e-08)
(0.005143286814601038 -4.236032504872303e-09 6.354811007008641e-08)
(0.005143147652981973 -5.272126935209875e-09 6.354641092695965e-08)
(0.005142971751144167 -6.477147838834072e-10 6.354564129061597e-08)
(0.005143079205344524 -8.730800484665637e-10 6.35487482331596e-08)
(0.005142904633938612 2.313917939792748e-09 6.354747120017572e-08)
(0.005142966672203671 -4.071218550787763e-09 6.354855698474187e-08)
(0.00514271441002443 -4.865020573968484e-10 6.354712515780632e-08)
(0.005143054007063056 -4.623825214887349e-09 6.355172321814014e-08)
(0.005142700399607242 -1.667126099096922e-08 6.35486118290029e-08)
(0.00514041459054892 1.746811850298793e-08 6.352363034366847e-08)
(0.005140764506275643 3.223546246399302e-08 6.352889407591586e-08)
(0.005141439235788946 1.411973918177171e-08 6.353663733424156e-08)
(0.005141672689576795 7.492714242102406e-09 6.353839354304729e-08)
(0.005141879023724624 8.294654923186569e-09 6.353965452888801e-08)
(0.005142263742806672 1.633130708629163e-09 6.354306592958515e-08)
(0.005142110051227952 4.403416674278831e-10 6.353971739833656e-08)
(0.005142263377674709 3.415204145770478e-09 6.354042076840309e-08)
(0.005142359045459033 1.837433184409666e-09 6.354092715264403e-08)
(0.005142435519864577 -5.007479781967529e-09 6.354028449780023e-08)
(0.005142122269457301 1.134350726017165e-08 6.353669110076796e-08)
(0.005142661531136155 2.676580628891676e-09 6.354158514354946e-08)
(0.00514432252048936 -1.751731469732597e-08 6.355988758378662e-08)
(0.005144732892770288 -2.553522988498205e-08 6.356244837596489e-08)
(0.005143773159246649 -3.147130538817506e-08 6.355249816083886e-08)
(0.005141151813835846 9.482446307295341e-09 6.352293848577565e-08)
(0.005141228142067176 2.728551544790185e-08 6.35273845856337e-08)
(0.00514176880378639 1.153202226701218e-08 6.35335426841691e-08)
(0.005141894167207828 5.606932493843193e-09 6.353654806951682e-08)
(0.005142043176417385 6.986255509492911e-09 6.353738041792877e-08)
)
;
    }
    left
    {
        type            cyclic;
    }
    right
    {
        type            cyclic;
    }
}


// ************************************************************************* //
