/*--------------------------------*- C++ -*----------------------------------*\
| =========                 |                                                 |
| \\      /  F ield         | OpenFOAM: The Open Source CFD Toolbox           |
|  \\    /   O peration     | Version:  v1812                                 |
|   \\  /    A nd           | Web:      www.OpenFOAM.com                      |
|    \\/     M anipulation  |                                                 |
\*---------------------------------------------------------------------------*/
FoamFile
{
    version     2.0;
    format      ascii;
    class       volScalarField;
    location    "20000";
    object      nut;
}
// * * * * * * * * * * * * * * * * * * * * * * * * * * * * * * * * * * * * * //

dimensions      [0 2 -1 0 0 0 0];


internalField   nonuniform List<scalar> 
3770
(
0.0001427916382161952
0.0001427916382161725
0.0001427916382161756
0.0001427916382161721
0.0001427916382161787
0.0001427916382161967
0.0001427916382162225
0.0001427916382162018
0.0001427916382161978
0.0001427916382161867
0.0001427916382161768
0.0001427916382161893
0.0001427916382162026
0.0001427916382161904
0.0001427916382161876
0.0001427916382161969
0.0001427916382161966
0.0001427916382161738
0.0001427916382161757
0.000142791638216188
0.0001427916382161914
0.0001427916382161832
0.0001427916382161795
0.0001427916382161935
0.0001427916382162194
0.0001427916382162443
0.0001427916382161941
0.0001427916382162198
0.0001427916382161942
0.000142791638216205
0.0001427916382162021
0.0001427916382162044
0.000142791638216198
0.0001427916382162186
0.0001427916382161933
0.0001427916382161912
0.0001427916382161894
0.0001427916382161892
0.0001427916382161769
0.000142791638216192
0.0001427916382161909
0.0001427916382161997
0.0001427916382161935
0.0001427916382161917
0.000142791638216182
0.0001427916382161781
0.0001427916382161846
0.0001427916382161871
0.00014279163821619
0.0001427916382161906
0.0001427916382161751
0.0001427916382161719
0.0001427916382161817
0.00014279163821619
0.0001427916382162033
0.0001427916382162279
0.0001427916382162148
0.0001427916382162254
1.369597567874656e-05
1.36959756789941e-05
1.369597567887183e-05
1.369597567890196e-05
1.369597567876941e-05
1.369597567890505e-05
1.369597567885519e-05
1.3695975678956e-05
1.369597567885597e-05
1.369597567885793e-05
1.369597567873444e-05
1.369597567876631e-05
1.369597567870318e-05
1.369597567864507e-05
1.369597567878053e-05
1.369597567884856e-05
1.369597567878483e-05
1.369597567876719e-05
1.369597567871348e-05
1.369597567871759e-05
1.369597567881234e-05
1.369597567874241e-05
1.369597567845764e-05
1.369597567860485e-05
1.369597567873447e-05
1.369597567882677e-05
1.369597567884038e-05
1.36959756788126e-05
1.369597567877085e-05
1.369597567882412e-05
1.369597567875582e-05
1.369597567878121e-05
1.369597567887072e-05
1.369597567876901e-05
1.369597567872038e-05
1.369597567878877e-05
1.369597567872811e-05
1.369597567876131e-05
1.369597567857985e-05
1.36959756787531e-05
1.36959756788173e-05
1.36959756787735e-05
1.36959756787954e-05
1.369597567889722e-05
1.369597567884461e-05
1.369597567884709e-05
1.369597567875759e-05
1.369597567874054e-05
1.369597567876249e-05
1.369597567878311e-05
1.369597567886063e-05
1.369597567879319e-05
1.369597567872278e-05
1.369597567862199e-05
1.369597567874964e-05
1.369597567868138e-05
1.369597567869325e-05
1.36959756784419e-05
1.50473032197221e-05
1.504730322086638e-05
1.504730322016272e-05
1.504730322085847e-05
1.504730322034597e-05
1.504730322068616e-05
1.504730322001017e-05
1.504730322063554e-05
1.504730321988138e-05
1.504730321992532e-05
1.504730321973681e-05
1.504730321979906e-05
1.504730321968702e-05
1.504730321914234e-05
1.50473032200037e-05
1.504730322050777e-05
1.504730321979872e-05
1.504730321998717e-05
1.504730322003587e-05
1.504730321941559e-05
1.504730321989504e-05
1.504730322003334e-05
1.504730321873365e-05
1.504730321952847e-05
1.504730321983601e-05
1.504730322003107e-05
1.50473032200892e-05
1.504730321982785e-05
1.5047303219714e-05
1.504730322013856e-05
1.504730321989803e-05
1.504730321988805e-05
1.5047303220287e-05
1.504730322011848e-05
1.504730322005606e-05
1.50473032198397e-05
1.504730321973141e-05
1.504730322002159e-05
1.504730321902743e-05
1.504730321997171e-05
1.504730322020765e-05
1.504730321977655e-05
1.504730321974072e-05
1.504730322018856e-05
1.504730321981666e-05
1.50473032199746e-05
1.504730321996433e-05
1.5047303219856e-05
1.504730322028834e-05
1.504730321995514e-05
1.50473032201331e-05
1.504730321991148e-05
1.504730321972295e-05
1.504730321954085e-05
1.504730321965472e-05
1.504730321906697e-05
1.504730321927164e-05
1.504730321806439e-05
5.257114808279834e-05
5.257114808676693e-05
5.257114808182079e-05
5.257114808629923e-05
5.257114808380459e-05
5.257114808559624e-05
5.25711480814588e-05
5.25711480847974e-05
5.257114808251129e-05
5.257114808151077e-05
5.257114808348073e-05
5.257114808340887e-05
5.25711480840921e-05
5.257114808149177e-05
5.257114808458462e-05
5.257114808537198e-05
5.257114808081719e-05
5.257114808359176e-05
5.25711480856007e-05
5.257114808036263e-05
5.257114808430219e-05
5.257114808516914e-05
5.257114807970719e-05
5.257114808564386e-05
5.257114808584358e-05
5.257114808343152e-05
5.257114808342497e-05
5.257114808165442e-05
5.257114808234339e-05
5.2571148086367e-05
5.257114808211688e-05
5.257114808325202e-05
5.257114808665462e-05
5.25711480828268e-05
5.257114808357524e-05
5.257114808155875e-05
5.257114808234805e-05
5.257114808556915e-05
5.257114807904936e-05
5.257114808400194e-05
5.257114808455025e-05
5.257114808128131e-05
5.257114808220666e-05
5.257114808551319e-05
5.257114807958854e-05
5.257114808514595e-05
5.257114808485398e-05
5.257114807987294e-05
5.257114808406396e-05
5.257114808072647e-05
5.257114808386645e-05
5.257114808427164e-05
5.257114808087212e-05
5.25711480818956e-05
5.257114808428133e-05
5.257114807903287e-05
5.25711480798652e-05
5.257114807379382e-05
0.000138434520086174
0.0001384345200967365
0.0001384345200819823
0.0001384345200935395
0.0001384345200903039
0.0001384345200923863
0.0001384345200796416
0.0001384345200921534
0.0001384345200952031
0.0001384345200802027
0.0001384345200905221
0.0001384345200859234
0.0001384345200914798
0.0001384345200791961
0.0001384345200908936
0.000138434520093994
0.0001384345200791577
0.0001384345200907272
0.0001384345200966449
0.0001384345200792302
0.0001384345200900624
0.0001384345200939017
0.0001384345200794949
0.0001384345200954857
0.000138434520097339
0.0001384345200863625
0.0001384345200886032
0.0001384345200796212
0.0001384345200888631
0.000138434520097088
0.0001384345200808554
0.0001384345200908331
0.0001384345200988311
0.0001384345200825062
0.000138434520090472
0.0001384345200794036
0.0001384345200889776
0.0001384345200957542
0.0001384345200760704
0.0001384345200877124
0.0001384345200917938
0.000138434520078125
0.0001384345200885818
0.0001384345200954244
0.0001384345200769767
0.0001384345200944175
0.0001384345200951235
0.0001384345200793787
0.0001384345200893988
0.0001384345200773761
0.0001384345200879866
0.000138434520094131
0.0001384345200780072
0.0001384345200878729
0.0001384345200929043
0.0001384345200739473
0.0001384345200808027
0.0001384345200613026
0.0002701608204243335
0.0002701608204375361
0.0002701608204130479
0.0002701608204295444
0.0002701608204335811
0.0002701608204327761
0.0002701608204114286
0.000270160820436931
0.0002701608204417401
0.0002701608204150358
0.0002701608204308086
0.0002701608204216361
0.0002701608204303818
0.0002701608204119201
0.0002701608204324058
0.0002701608204396917
0.0002701608204109157
0.0002701608204333408
0.0002701608204408112
0.0002701608204102162
0.0002701608204324031
0.0002701608204399508
0.0002701608204149866
0.0002701608204376995
0.0002701608204423015
0.0002701608204236433
0.000270160820425991
0.0002701608204106466
0.0002701608204309866
0.0002701608204403564
0.0002701608204133534
0.0002701608204336642
0.0002701608204440664
0.0002701608204178193
0.0002701608204286011
0.0002701608204097752
0.0002701608204309599
0.0002701608204384633
0.0002701608204079071
0.0002701608204292204
0.0002701608204365917
0.0002701608204080651
0.0002701608204307974
0.0002701608204382558
0.000270160820408169
0.0002701608204369097
0.0002701608204412641
0.0002701608204142797
0.0002701608204265238
0.0002701608204067846
0.0002701608204284963
0.00027016082043678
0.0002701608204093889
0.0002701608204299827
0.0002701608204359905
0.0002701608204056051
0.0002701608204182564
0.0002701608203880707
0.0004324853139795734
0.0004324853139895516
0.0004324853139563204
0.0004324853139815481
0.0004324853139903955
0.0004324853139915432
0.0004324853139617939
0.0004324853139976239
0.0004324853140027337
0.0004324853139711363
0.0004324853139853304
0.0004324853139756529
0.000432485313979828
0.000432485313960593
0.0004324853139912264
0.0004324853139965688
0.0004324853139605135
0.0004324853139917971
0.0004324853139978124
0.0004324853139585527
0.0004324853139915529
0.0004324853139970358
0.0004324853139639955
0.0004324853139974565
0.0004324853140054941
0.0004324853139773922
0.0004324853139777493
0.0004324853139596352
0.0004324853139889409
0.000432485313996236
0.000432485313963763
0.0004324853139921223
0.000432485314001199
0.0004324853139741371
0.0004324853139777108
0.0004324853139575894
0.0004324853139885805
0.0004324853139938557
0.0004324853139565042
0.000432485313987282
0.0004324853139933795
0.000432485313956089
0.0004324853139893441
0.0004324853139943089
0.0004324853139581629
0.0004324853139942568
0.0004324853140004618
0.0004324853139690036
0.0004324853139757946
0.000432485313954469
0.0004324853139862796
0.0004324853139931155
0.0004324853139599251
0.0004324853139891883
0.0004324853139934693
0.0004324853139596061
0.0004324853139746873
0.0004324853139425633
0.0006120641851116189
0.0006120641851181403
0.0006120641850837468
0.0006120641851127789
0.0006120641851240197
0.0006120641851269116
0.0006120641850924784
0.0006120641851344928
0.0006120641851393101
0.0006120641851042576
0.0006120641851181077
0.0006120641851060237
0.0006120641851097182
0.0006120641850886103
0.0006120641851273095
0.0006120641851285175
0.0006120641850900637
0.0006120641851272787
0.0006120641851304849
0.0006120641850872884
0.0006120641851272086
0.0006120641851295075
0.0006120641850944779
0.0006120641851311793
0.0006120641851416227
0.0006120641851079068
0.0006120641851084821
0.000612064185089026
0.0006120641851234881
0.0006120641851276576
0.0006120641850945768
0.0006120641851256104
0.0006120641851315704
0.0006120641851047916
0.0006120641851078458
0.0006120641850855676
0.0006120641851230439
0.0006120641851252796
0.000612064185085253
0.0006120641851229453
0.0006120641851258706
0.0006120641850844619
0.0006120641851251366
0.0006120641851264177
0.0006120641850886763
0.000612064185127731
0.000612064185134832
0.000612064185098871
0.0006120641851067271
0.0006120641850829633
0.0006120641851219662
0.0006120641851258148
0.0006120641850926259
0.0006120641851248022
0.0006120641851269441
0.0006120641850962962
0.0006120641851098881
0.0006120641850833064
0.0008034942564992899
0.0008034942565005566
0.0008034942564675567
0.0008034942564956572
0.0008034942565081664
0.0008034942565121903
0.0008034942564755469
0.0008034942565211013
0.0008034942565253743
0.000803494256488863
0.0008034942565014071
0.0008034942564881655
0.0008034942564916299
0.0008034942564694172
0.000803494256512958
0.0008034942565103024
0.0008034942564723101
0.0008034942565129639
0.0008034942565133469
0.0008034942564694764
0.0008034942565097178
0.0008034942565120535
0.0008034942564777715
0.000803494256513905
0.0008034942565264393
0.0008034942564895884
0.0008034942564908471
0.0008034942564709832
0.0008034942565074765
0.0008034942565088674
0.0008034942564764421
0.0008034942565110675
0.0008034942565201299
0.0008034942564864517
0.0008034942564899529
0.00080349425646631
0.0008034942565080835
0.0008034942565072428
0.000803494256466831
0.0008034942565090768
0.0008034942565085236
0.0008034942564655541
0.0008034942565112681
0.0008034942565089353
0.0008034942564719267
0.0008034942565108962
0.0008034942565193629
0.0008034942564815909
0.0008034942564885069
0.0008034942564644648
0.0008034942565085324
0.0008034942565086291
0.0008034942564730257
0.0008034942565106304
0.0008034942565188029
0.0008034942564863613
0.0008034942564950164
0.0008034942564777063
0.001009450084860321
0.001009450084849828
0.001009450084830607
0.001009450084844444
0.001009450084868686
0.001009450084866423
0.001009450084830978
0.001009450084878913
0.001009450084882483
0.00100945008484593
0.001009450084855836
0.001009450084843104
0.001009450084846045
0.001009450084823966
0.001009450084867697
0.001009450084863645
0.001009450084827835
0.001009450084869103
0.001009450084868383
0.001009450084823995
0.001009450084864555
0.001009450084866288
0.001009450084833723
0.001009450084867404
0.001009450084882689
0.00100945008484372
0.00100945008484523
0.001009450084826187
0.001009450084860013
0.001009450084861482
0.001009450084831849
0.001009450084865713
0.001009450084878241
0.00100945008484088
0.001009450084843831
0.001009450084819656
0.001009450084866189
0.001009450084861213
0.001009450084821633
0.001009450084866258
0.001009450084862856
0.00100945008481955
0.001009450084868758
0.00100945008486323
0.001009450084827896
0.001009450084865001
0.001009450084875843
0.001009450084837712
0.001009450084841813
0.001009450084818682
0.001009450084867706
0.001009450084863619
0.001009450084828738
0.001009450084866768
0.00100945008487913
0.001009450084843542
0.001009450084857304
0.001009450084845646
0.001238722161712597
0.001238722161682421
0.001238722161689663
0.001238722161672346
0.001238722161717231
0.001238722161709093
0.001238722161674769
0.001238722161724873
0.001238722161727233
0.001238722161691174
0.001238722161698469
0.001238722161686762
0.001238722161689632
0.001238722161669445
0.001238722161705417
0.001238722161706213
0.001238722161675125
0.001238722161705998
0.001238722161715682
0.001238722161666307
0.001238722161710936
0.001238722161709074
0.001238722161678186
0.001238722161708767
0.001238722161727825
0.001238722161686852
0.001238722161688045
0.001238722161670564
0.001238722161703435
0.001238722161711196
0.001238722161676199
0.00123872216170777
0.001238722161724207
0.001238722161684124
0.0012387221616861
0.001238722161661555
0.001238722161714226
0.001238722161704062
0.001238722161666103
0.001238722161709344
0.001238722161706443
0.001238722161662793
0.001238722161713837
0.001238722161706057
0.001238722161672546
0.001238722161706746
0.001238722161721126
0.001238722161682747
0.00123872216168367
0.00123872216166148
0.001238722161716189
0.001238722161707355
0.001238722161674029
0.001238722161711003
0.001238722161726199
0.001238722161685888
0.00123872216171068
0.001238722161702146
0.001504225792783374
0.001504225792745074
0.001504225792752343
0.001504225792725646
0.001504225792783655
0.001504225792769627
0.001504225792736227
0.00150422579278864
0.001504225792788992
0.001504225792752764
0.001504225792760508
0.001504225792748194
0.00150422579275178
0.001504225792736198
0.001504225792759109
0.001504225792772664
0.001504225792738498
0.00150422579276285
0.001504225792779997
0.001504225792725586
0.001504225792779398
0.001504225792769818
0.001504225792740452
0.001504225792768398
0.001504225792791424
0.001504225792748043
0.001504225792748934
0.001504225792732399
0.001504225792766073
0.001504225792776206
0.001504225792738569
0.001504225792767094
0.001504225792787829
0.001504225792744888
0.001504225792747117
0.001504225792721421
0.001504225792780903
0.001504225792765285
0.001504225792731975
0.001504225792763583
0.001504225792773552
0.001504225792725545
0.001504225792773263
0.001504225792767907
0.001504225792735077
0.001504225792765835
0.001504225792784691
0.001504225792744871
0.00150422579274498
0.001504225792722237
0.001504225792782488
0.001504225792769066
0.001504225792736776
0.00150422579277503
0.001504225792790086
0.001504225792749441
0.001504225792776654
0.001504225792769321
0.00182099799770625
0.001820997997669229
0.001820997997676637
0.001820997997643738
0.001820997997712434
0.001820997997691416
0.001820997997658845
0.001820997997713564
0.001820997997711583
0.001820997997675195
0.001820997997684694
0.001820997997670981
0.001820997997674389
0.00182099799765746
0.001820997997683148
0.001820997997699737
0.001820997997662549
0.001820997997681996
0.001820997997705196
0.001820997997645541
0.001820997997712073
0.00182099799769174
0.001820997997663132
0.00182099799769246
0.001820997997715048
0.001820997997670086
0.001820997997672077
0.00182099799765593
0.001820997997688198
0.0018209979977018
0.001820997997662171
0.001820997997687313
0.001820997997711932
0.001820997997665276
0.0018209979976724
0.001820997997642927
0.001820997997708083
0.001820997997687577
0.001820997997655806
0.001820997997686041
0.001820997997699013
0.001820997997654
0.001820997997687037
0.00182099799769841
0.00182099799765878
0.001820997997686121
0.001820997997710015
0.001820997997668318
0.001820997997667904
0.001820997997644358
0.001820997997709549
0.001820997997691484
0.00182099799765413
0.001820997997713769
0.001820997997707872
0.001820997997675773
0.001820997997699979
0.001820997997695958
0.002203557242348267
0.002203557242322542
0.002203557242328863
0.002203557242291731
0.002203557242368484
0.002203557242340468
0.002203557242308661
0.002203557242365112
0.002203557242361109
0.002203557242324935
0.002203557242336048
0.002203557242321067
0.00220355724232406
0.002203557242306903
0.002203557242337607
0.002203557242352172
0.002203557242313219
0.002203557242329222
0.002203557242356982
0.00220355724229403
0.002203557242366636
0.002203557242339944
0.002203557242305536
0.002203557242360478
0.002203557242355747
0.002203557242316971
0.002203557242325804
0.002203557242306787
0.002203557242336944
0.002203557242354008
0.00220355724231278
0.002203557242334682
0.002203557242361635
0.002203557242310099
0.00220355724232931
0.002203557242292179
0.002203557242361043
0.002203557242336534
0.002203557242299013
0.002203557242353153
0.002203557242341941
0.002203557242305657
0.002203557242333524
0.002203557242352221
0.002203557242309488
0.002203557242333935
0.002203557242362437
0.00220355724231912
0.00220355724231766
0.00220355724229379
0.002203557242362611
0.002203557242340892
0.002203557242301969
0.002203557242369192
0.002203557242354728
0.002203557242321849
0.002203557242353501
0.002203557242349608
0.002662219756735874
0.002662219756720023
0.002662219756726339
0.00266221975668466
0.002662219756764675
0.002662219756731922
0.002662219756700872
0.002662219756757659
0.002662219756752363
0.002662219756717123
0.002662219756728767
0.002662219756713382
0.002662219756716123
0.002662219756699578
0.002662219756730522
0.002662219756745034
0.002662219756705939
0.002662219756719838
0.002662219756749316
0.002662219756685661
0.002662219756760017
0.002662219756730762
0.0026622197566959
0.002662219756756132
0.002662219756742386
0.002662219756694938
0.002662219756735496
0.0026622197567
0.002662219756727807
0.002662219756747271
0.002662219756705492
0.002662219756724807
0.002662219756753006
0.002662219756701084
0.002662219756723536
0.002662219756684435
0.002662219756754482
0.002662219756728533
0.002662219756690952
0.00266221975674703
0.002662219756733376
0.002662219756698741
0.002662219756723817
0.002662219756745921
0.002662219756702279
0.002662219756724455
0.002662219756755715
0.002662219756711868
0.002662219756709463
0.002662219756685684
0.002662219756755564
0.002662219756731864
0.002662219756692816
0.002662219756761352
0.002662219756742061
0.002662219756700346
0.002662219756754182
0.002662219756736592
0.003198879618072027
0.003198879618080552
0.003198879618102497
0.003198879618047206
0.003198879618123997
0.003198879618090713
0.003198879618060748
0.003198879618115514
0.003198879618109597
0.00319887961807643
0.003198879618087817
0.003198879618072849
0.003198879618075279
0.003198879618059762
0.003198879618088886
0.003198879618103111
0.003198879618065202
0.003198879618080587
0.003198879618105307
0.003198879618045579
0.003198879618117499
0.003198879618089183
0.003198879618056686
0.003198879618111852
0.003198879618099042
0.003198879618051157
0.003198879618098591
0.003198879618060633
0.003198879618085862
0.003198879618105963
0.003198879618065543
0.00319887961808287
0.003198879618110355
0.003198879618060918
0.003198879618083024
0.003198879618045064
0.003198879618112774
0.003198879618088321
0.003198879618060004
0.003198879618084662
0.00319887961810201
0.003198879618059158
0.003198879618081853
0.003198879618104577
0.00319887961806236
0.003198879618082531
0.003198879618113678
0.003198879618071402
0.003198879618068342
0.003198879618045304
0.003198879618112402
0.003198879618088787
0.003198879618050957
0.00319887961811623
0.003198879618094968
0.003198879618052936
0.003198879618114519
0.003198879618097698
0.003804038371788195
0.003804038371837043
0.003804038371826173
0.00380403837178497
0.003804038371852456
0.003804038371823148
0.003804038371795325
0.003804038371844955
0.003804038371839068
0.003804038371809469
0.003804038371819679
0.00380403837180607
0.003804038371807961
0.003804038371794047
0.003804038371819869
0.003804038371832168
0.003804038371791609
0.003804038371830417
0.003804038371824684
0.003804038371780609
0.00380403837184556
0.003804038371821574
0.003804038371799596
0.003804038371821282
0.003804038371838485
0.003804038371785411
0.003804038371830075
0.003804038371795538
0.003804038371817695
0.003804038371836471
0.003804038371799871
0.003804038371815267
0.003804038371839685
0.003804038371795587
0.003804038371815367
0.003804038371780994
0.003804038371841536
0.003804038371819957
0.003804038371794521
0.003804038371814966
0.003804038371833116
0.003804038371793879
0.003804038371813835
0.003804038371834825
0.003804038371796674
0.003804038371814549
0.00380403837184255
0.003804038371804461
0.00380403837180106
0.0038040383717797
0.003804038371839555
0.003804038371818162
0.003804038371783435
0.003804038371841436
0.003804038371821227
0.003804038371782873
0.003804038371839966
0.003804038371821811
0.004457382024467708
0.004457382024520791
0.004457382024504697
0.004457382024473033
0.004457382024527461
0.004457382024504535
0.00445738202448065
0.004457382024521968
0.004457382024516758
0.004457382024492003
0.004457382024500149
0.004457382024488702
0.00445738202448993
0.004457382024478289
0.00445738202449946
0.004457382024510108
0.004457382024481137
0.004457382024496501
0.004457382024508365
0.004457382024466497
0.004457382024520082
0.004457382024501343
0.004457382024483283
0.004457382024497512
0.004457382024517178
0.004457382024472096
0.00445738202450839
0.00445738202448061
0.004457382024499038
0.004457382024514841
0.004457382024484455
0.004457382024497403
0.004457382024516894
0.004457382024480665
0.004457382024496723
0.004457382024468054
0.00445738202451694
0.004457382024499238
0.004457382024471713
0.004457382024512214
0.00445738202450369
0.004457382024478861
0.004457382024495409
0.004457382024512891
0.004457382024481284
0.004457382024496184
0.004457382024518694
0.004457382024487091
0.004457382024483658
0.004457382024465079
0.004457382024513716
0.004457382024496259
0.004457382024466823
0.00445738202451432
0.004457382024497398
0.004457382024465167
0.004457382024512178
0.004457382024496245
0.005132677497204538
0.005132677497249379
0.005132677497235977
0.005132677497213525
0.005132677497253252
0.005132677497237218
0.005132677497219133
0.005132677497249869
0.005132677497245769
0.005132677497226441
0.005132677497231988
0.005132677497223095
0.005132677497223842
0.005132677497214951
0.005132677497230551
0.005132677497237895
0.005132677497212455
0.005132677497236319
0.005132677497232218
0.005132677497205267
0.005132677497245086
0.005132677497232062
0.005132677497218326
0.005132677497229187
0.005132677497245332
0.005132677497213193
0.005132677497237
0.005132677497218314
0.0051326774972326
0.00513267749724437
0.00513267749722188
0.005132677497231676
0.005132677497245343
0.005132677497218452
0.005132677497229886
0.005132677497208749
0.00513267749724303
0.005132677497230724
0.00513267749720924
0.005132677497243406
0.005132677497234161
0.0051326774972167
0.005132677497229255
0.005132677497242231
0.005132677497218859
0.005132677497230185
0.00513267749724592
0.005132677497222076
0.005132677497218962
0.005132677497204162
0.005132677497239112
0.005132677497226429
0.005132677497204177
0.00513267749723941
0.005132677497226979
0.005132677497202613
0.005132677497236952
0.005132677497225294
0.005804612238249144
0.005804612238280521
0.005804612238272644
0.005804612238259471
0.005804612238284142
0.005804612238274499
0.005804612238263234
0.005804612238282695
0.005804612238279752
0.005804612238265482
0.005804612238268671
0.005804612238262131
0.005804612238262862
0.005804612238257034
0.005804612238266953
0.005804612238271239
0.005804612238257318
0.005804612238264182
0.005804612238269381
0.005804612238249572
0.005804612238275408
0.005804612238267639
0.005804612238258708
0.005804612238266591
0.005804612238278298
0.005804612238262888
0.005804612238267687
0.005804612238261441
0.00580461223827178
0.005804612238279124
0.005804612238265094
0.005804612238271317
0.005804612238279092
0.005804612238261724
0.005804612238267874
0.005804612238256141
0.005804612238274301
0.005804612238267473
0.005804612238253951
0.00580461223827724
0.005804612238271202
0.005804612238260229
0.00580461223826875
0.005804612238276973
0.005804612238262363
0.005804612238270058
0.005804612238278767
0.005804612238262301
0.005804612238260219
0.005804612238249714
0.005804612238270289
0.00580461223826246
0.005804612238248338
0.005804612238271437
0.005804612238263574
0.005804612238247808
0.005804612238269094
0.005804612238261795
0.00645372212023512
0.00645372212025017
0.006453722120249116
0.00645372212024547
0.006453722120255684
0.00645372212025117
0.006453722120246121
0.006453722120255473
0.006453722120253349
0.006453722120242087
0.006453722120245579
0.006453722120239969
0.006453722120241195
0.006453722120238393
0.006453722120243772
0.006453722120244137
0.006453722120237496
0.006453722120240267
0.006453722120243188
0.006453722120232945
0.006453722120246547
0.00645372212024309
0.006453722120238303
0.00645372212024336
0.006453722120249757
0.00645372212024311
0.006453722120245335
0.00645372212024363
0.00645372212025091
0.00645372212025418
0.006453722120247993
0.006453722120250696
0.006453722120253282
0.006453722120244475
0.006453722120244206
0.006453722120245076
0.006453722120245756
0.006453722120243955
0.006453722120238204
0.006453722120251246
0.006453722120248471
0.006453722120243191
0.006453722120248338
0.00645372212025224
0.006453722120245563
0.006453722120250473
0.006453722120252767
0.006453722120240313
0.006453722120242085
0.00645372212023526
0.006453722120241298
0.006453722120238985
0.006453722120232615
0.006453722120245563
0.006453722120241475
0.006453722120233928
0.006453722120243988
0.006453722120239435
0.00706767554539835
0.007067675545406649
0.007067675545408917
0.007067675545408087
0.007067675545416869
0.007067675545410052
0.007067675545408844
0.007067675545410827
0.007067675545410073
0.007067675545404399
0.007067675545401477
0.007067675545398938
0.007067675545400865
0.007067675545399641
0.007067675545405421
0.007067675545400063
0.007067675545398138
0.007067675545400072
0.007067675545399828
0.007067675545396521
0.007067675545401265
0.007067675545401517
0.007067675545398755
0.007067675545401191
0.007067675545404584
0.007067675545402492
0.007067675545405536
0.007067675545405872
0.007067675545411703
0.00706767554541235
0.007067675545412205
0.007067675545411557
0.007067675545410864
0.007067675545408755
0.007067675545408074
0.00706767554540703
0.007067675545404207
0.007067675545402784
0.00706767554540308
0.007067675545408404
0.007067675545408651
0.007067675545407306
0.007067675545410135
0.007067675545411091
0.007067675545409835
0.007067675545413622
0.007067675545414028
0.007067675545406317
0.007067675545402095
0.007067675545400022
0.007067675545402172
0.007067675545398686
0.007067675545397751
0.007067675545404411
0.00706767554540278
0.007067675545401896
0.00706767554540515
0.007067675545399806
0.007639981661223015
0.007639981661224722
0.007639981661232482
0.007639981661231011
0.007639981661244325
0.007639981661233071
0.007639981661231134
0.007639981661229839
0.007639981661226528
0.007639981661227951
0.007639981661222443
0.007639981661219855
0.007639981661222613
0.007639981661220369
0.007639981661227885
0.007639981661221365
0.007639981661219417
0.007639981661221414
0.007639981661222167
0.007639981661218395
0.007639981661220542
0.007639981661224284
0.007639981661220719
0.007639981661219018
0.007639981661224469
0.007639981661222719
0.007639981661227117
0.007639981661227672
0.007639981661233154
0.0076399816612338
0.007639981661238271
0.007639981661232005
0.007639981661231009
0.007639981661232002
0.007639981661230876
0.007639981661231047
0.007639981661227618
0.007639981661225166
0.00763998166122818
0.007639981661229997
0.007639981661233185
0.007639981661234011
0.007639981661233967
0.007639981661236167
0.007639981661234697
0.007639981661238004
0.007639981661239873
0.007639981661233879
0.007639981661225297
0.007639981661223674
0.007639981661226182
0.007639981661223403
0.007639981661221185
0.007639981661228445
0.00763998166122838
0.007639981661231338
0.007639981661232358
0.007639981661225923
0.00816792507453726
0.008167925074538741
0.008167925074549765
0.008167925074547347
0.008167925074566897
0.008167925074554621
0.008167925074543001
0.008167925074541874
0.008167925074536611
0.008167925074542913
0.008167925074538956
0.008167925074532069
0.008167925074536021
0.008167925074533209
0.008167925074541791
0.008167925074540465
0.008167925074533294
0.00816792507453599
0.008167925074534121
0.008167925074535166
0.008167925074534562
0.008167925074541227
0.008167925074533245
0.008167925074531965
0.008167925074537228
0.008167925074536495
0.008167925074541432
0.008167925074542403
0.00816792507454856
0.008167925074548065
0.008167925074556085
0.008167925074545116
0.008167925074543739
0.008167925074546752
0.008167925074545451
0.00816792507454797
0.008167925074545