/*--------------------------------*- C++ -*----------------------------------*\
| =========                 |                                                 |
| \\      /  F ield         | OpenFOAM: The Open Source CFD Toolbox           |
|  \\    /   O peration     | Version:  v1812                                 |
|   \\  /    A nd           | Web:      www.OpenFOAM.com                      |
|    \\/     M anipulation  |                                                 |
\*---------------------------------------------------------------------------*/
FoamFile
{
    version     2.0;
    format      ascii;
    class       volScalarField;
    location    "20000";
    object      nuTilda_0;
}
// * * * * * * * * * * * * * * * * * * * * * * * * * * * * * * * * * * * * * //

dimensions      [0 2 -1 0 0 0 0];


internalField   nonuniform List<scalar> 
3770
(
0.0004779055941196046
0.000477905594119583
0.0004779055941195891
0.0004779055941195693
0.0004779055941195648
0.0004779055941196087
0.0004779055941196563
0.0004779055941196265
0.0004779055941196118
0.0004779055941195899
0.0004779055941195607
0.0004779055941196001
0.0004779055941196093
0.0004779055941195929
0.0004779055941195902
0.000477905594119619
0.0004779055941196239
0.0004779055941195529
0.0004779055941195604
0.0004779055941195819
0.0004779055941196192
0.0004779055941195778
0.0004779055941195465
0.0004779055941195975
0.0004779055941196625
0.0004779055941196988
0.0004779055941196273
0.0004779055941196538
0.0004779055941195928
0.0004779055941196298
0.0004779055941196158
0.0004779055941196059
0.0004779055941196176
0.0004779055941196421
0.0004779055941195969
0.0004779055941195961
0.0004779055941195766
0.0004779055941195819
0.0004779055941195578
0.0004779055941195991
0.0004779055941196149
0.0004779055941196157
0.0004779055941195919
0.0004779055941196015
0.0004779055941195857
0.0004779055941195849
0.0004779055941195901
0.0004779055941195974
0.0004779055941196024
0.0004779055941196047
0.0004779055941195951
0.0004779055941195954
0.0004779055941195786
0.000477905594119566
0.0004779055941196215
0.0004779055941196846
0.0004779055941196398
0.0004779055941196359
0.0002468733525712079
0.0002468733525724177
0.0002468733525719592
0.0002468733525719015
0.0002468733525710872
0.0002468733525718365
0.0002468733525716442
0.0002468733525721601
0.0002468733525716196
0.0002468733525716518
0.0002468733525709591
0.0002468733525713799
0.0002468733525709101
0.0002468733525707776
0.0002468733525713106
0.0002468733525717927
0.000246873352571615
0.0002468733525710739
0.0002468733525708904
0.0002468733525709883
0.0002468733525717496
0.0002468733525711382
0.0002468733525695773
0.0002468733525706322
0.0002468733525713598
0.0002468733525716789
0.0002468733525719212
0.0002468733525716002
0.0002468733525711132
0.0002468733525716233
0.000246873352571224
0.0002468733525710975
0.0002468733525717892
0.0002468733525712582
0.0002468733525710073
0.0002468733525713662
0.0002468733525708328
0.0002468733525710671
0.0002468733525703237
0.0002468733525712537
0.0002468733525717154
0.000246873352571388
0.0002468733525712213
0.0002468733525718311
0.0002468733525716474
0.0002468733525717647
0.0002468733525712769
0.0002468733525712925
0.0002468733525713905
0.000246873352571496
0.0002468733525720167
0.0002468733525718896
0.0002468733525711156
0.0002468733525702723
0.0002468733525712747
0.000246873352571305
0.0002468733525710552
0.0002468733525697455
0.0002530175721271995
0.0002530175721321395
0.0002530175721290783
0.0002530175721320971
0.0002530175721296941
0.0002530175721312369
0.0002530175721282146
0.0002530175721310764
0.0002530175721271921
0.0002530175721275465
0.0002530175721265762
0.0002530175721279192
0.0002530175721268785
0.0002530175721245946
0.0002530175721280802
0.0002530175721309558
0.0002530175721278475
0.0002530175721271016
0.0002530175721277746
0.0002530175721249262
0.0002530175721285088
0.0002530175721283892
0.0002530175721217099
0.0002530175721265625
0.0002530175721281215
0.0002530175721288158
0.0002530175721297227
0.0002530175721279528
0.0002530175721260849
0.0002530175721291732
0.0002530175721282918
0.0002530175721266681
0.0002530175721289887
0.0002530175721286855
0.0002530175721293751
0.0002530175721280504
0.0002530175721260888
0.000253017572127769
0.0002530175721235583
0.0002530175721284231
0.0002530175721299202
0.0002530175721277432
0.0002530175721261553
0.000253017572128639
0.0002530175721273855
0.0002530175721288143
0.0002530175721280191
0.0002530175721273969
0.000253017572129744
0.0002530175721286299
0.0002530175721295309
0.0002530175721294057
0.0002530175721276164
0.0002530175721253444
0.0002530175721272567
0.0002530175721260438
0.0002530175721254328
0.000253017572119647
0.0003545997881516525
0.0003545997881580092
0.0003545997881487776
0.0003545997881571265
0.0003545997881521014
0.0003545997881556487
0.0003545997881478331
0.0003545997881545068
0.0003545997881491132
0.0003545997881473325
0.0003545997881520166
0.0003545997881530407
0.0003545997881526864
0.0003545997881497426
0.0003545997881525156
0.000354599788155658
0.0003545997881481629
0.0003545997881493655
0.0003545997881559241
0.0003545997881447102
0.0003545997881551724
0.0003545997881541358
0.0003545997881428159
0.0003545997881580429
0.0003545997881554952
0.0003545997881514082
0.0003545997881529206
0.0003545997881488854
0.0003545997881477339
0.0003545997881579232
0.0003545997881493685
0.000354599788149314
0.0003545997881580214
0.0003545997881501787
0.0003545997881527156
0.0003545997881485273
0.0003545997881476484
0.0003545997881558727
0.0003545997881421043
0.0003545997881544523
0.00035459978815358
0.0003545997881476487
0.0003545997881474068
0.000354599788155848
0.0003545997881429994
0.000354599788157285
0.000354599788153175
0.0003545997881431575
0.0003545997881536442
0.0003545997881483185
0.0003545997881514032
0.0003545997881535437
0.0003545997881470592
0.000354599788146876
0.0003545997881543047
0.0003545997881449586
0.0003545997881443841
0.0003545997881326808
0.0004731717596774413
0.0004731717596872883
0.0004731717596714837
0.0004731717596839562
0.0004731717596793816
0.0004731717596822516
0.0004731717596692121
0.0004731717596817871
0.0004731717596858583
0.00047317175966666
0.0004731717596804113
0.0004731717596749065
0.0004731717596824476
0.0004731717596694897
0.0004731717596778226
0.0004731717596844332
0.0004731717596696784
0.0004731717596771069
0.0004731717596880695
0.000473171759668331
0.0004731717596800675
0.0004731717596836662
0.0004731717596663608
0.0004731717596887232
0.0004731717596863389
0.0004731717596747521
0.000473171759679228
0.0004731717596698539
0.000473171759675389
0.0004731717596888429
0.0004731717596712089
0.0004731717596773935
0.0004731717596901894
0.0004731717596700496
0.0004731717596813275
0.0004731717596695887
0.0004731717596754474
0.0004731717596870296
0.0004731717596645046
0.0004731717596772399
0.0004731717596818215
0.0004731717596680913
0.0004731717596750009
0.0004731717596865957
0.0004731717596637574
0.0004731717596881162
0.0004731717596833236
0.0004731717596661749
0.0004731717596802152
0.0004731717596678002
0.0004731717596744899
0.0004731717596853711
0.0004731717596679922
0.0004731717596741876
0.0004731717596840134
0.0004731717596609533
0.0004731717596700854
0.0004731717596473696
0.0005963969927279711
0.0005963969927369687
0.0005963969927174873
0.0005963969927310492
0.0005963969927315814
0.000596396992732152
0.0005963969927166046
0.000596396992733187
0.0005963969927409396
0.0005963969927146725
0.0005963969927309684
0.0005963969927220157
0.0005963969927324345
0.0005963969927173544
0.0005963969927279934
0.0005963969927399485
0.000596396992716541
0.000596396992728627
0.000596396992741075
0.0005963969927155424
0.0005963969927288542
0.0005963969927396418
0.0005963969927163337
0.0005963969927381339
0.0005963969927397234
0.0005963969927238738
0.0005963969927278494
0.0005963969927162133
0.0005963969927267703
0.0005963969927408137
0.0005963969927183481
0.000596396992728931
0.0005963969927433593
0.000596396992718088
0.0005963969927305175
0.0005963969927154553
0.0005963969927267763
0.0005963969927390324
0.0005963969927134933
0.0005963969927262047
0.0005963969927372563
0.0005963969927139931
0.0005963969927265684
0.0005963969927385553
0.0005963969927096812
0.0005963969927403883
0.0005963969927374035
0.0005963969927150774
0.0005963969927288022
0.0005963969927130573
0.0005963969927246743
0.0005963969927376599
0.0005963969927148536
0.0005963969927259375
0.0005963969927367114
0.0005963969927076172
0.000596396992721368
0.0005963969926937132
0.0007241858847370708
0.0007241858847424478
0.0007241858847190337
0.0007241858847321182
0.0007241858847446712
0.00072418588474129
0.0007241858847235144
0.0007241858847427227
0.0007241858847532354
0.0007241858847252299
0.0007241858847385761
0.0007241858847300603
0.0007241858847356357
0.0007241858847226016
0.0007241858847375199
0.0007241858847495215
0.000724185884722657
0.0007241858847377313
0.0007241858847505458
0.0007241858847208593
0.0007241858847380103
0.0007241858847492912
0.0007241858847196216
0.0007241858847524941
0.0007241858847516328
0.0007241858847319244
0.0007241858847334657
0.0007241858847220186
0.0007241858847355622
0.0007241858847493003
0.0007241858847243272
0.0007241858847389494
0.0007241858847524224
0.0007241858847292224
0.0007241858847334536
0.0007241858847203464
0.0007241858847354853
0.0007241858847474222
0.000724185884719364
0.0007241858847347444
0.00072418588474703
0.0007241858847191858
0.0007241858847359938
0.000724185884747288
0.0007241858847149521
0.0007241858847508736
0.0007241858847473618
0.0007241858847250511
0.0007241858847321671
0.0007241858847179808
0.0007241858847336692
0.0007241858847467825
0.0007241858847211332
0.0007241858847369327
0.0007241858847465408
0.0007241858847164964
0.0007241858847319184
0.0007241858847039247
0.0008592288846056741
0.0008592288846087388
0.0008592288845824733
0.0008592288846066038
0.0008592288846104715
0.000859228884615929
0.0008592288845928225
0.0008592288846138076
0.0008592288846267545
0.0008592288845954377
0.0008592288846089293
0.0008592288845978588
0.0008592288846034926
0.0008592288845897807
0.0008592288846084
0.000859228884619757
0.0008592288845909673
0.0008592288846080584
0.0008592288846211858
0.0008592288845884361
0.0008592288846092164
0.0008592288846196689
0.0008592288845869596
0.000859228884625143
0.0008592288846229597
0.0008592288846002526
0.0008592288846020594
0.0008592288845904414
0.0008592288846050976
0.0008592288846187309
0.0008592288845908521
0.0008592288846137446
0.0008592288846185448
0.0008592288845975469
0.0008592288846016878
0.0008592288845876629
0.0008592288846049278
0.0008592288846170925
0.0008592288845873502
0.0008592288846049532
0.0008592288846176182
0.0008592288845867754
0.0008592288846066533
0.0008592288846173036
0.0008592288845824951
0.0008592288846227877
0.0008592288846176593
0.0008592288845923031
0.0008592288846015352
0.0008592288845856555
0.000859228884604135
0.000859228884617143
0.0008592288845890073
0.0008592288846134701
0.0008592288846154461
0.0008592288845897685
0.0008592288846039637
0.0008592288845798938
0.001005787145212546
0.001005787145205378
0.001005787145182898
0.001005787145200356
0.001005787145216823
0.001005787145215298
0.001005787145193009
0.001005787145214851
0.001005787145230662
0.001005787145196115
0.001005787145209452
0.001005787145196543
0.001005787145202463
0.001005787145187802
0.001005787145209124
0.001005787145220164
0.001005787145189945
0.001005787145208765
0.001005787145222152
0.001005787145186939
0.001005787145210594
0.001005787145220333
0.001005787145185393
0.001005787145227222
0.001005787145223647
0.001005787145198641
0.001005787145201545
0.001005787145189055
0.001005787145204843
0.001005787145217989
0.001005787145185491
0.001005787145222691
0.001005787145219606
0.001005787145195564
0.001005787145201303
0.001005787145186029
0.001005787145203861
0.001005787145217472
0.001005787145186053
0.001005787145205291
0.00100578714521862
0.00100578714518534
0.001005787145206974
0.001005787145217922
0.001005787145180758
0.001005787145224985
0.001005787145218156
0.001005787145190992
0.001005787145200863
0.001005787145184482
0.001005787145204546
0.001005787145217679
0.001005787145182359
0.001005787145222879
0.001005787145219482
0.001005787145196498
0.001005787145203321
0.001005787145186501
0.001170638157504391
0.001170638157485472
0.001170638157474453
0.00117063815749036
0.001170638157497506
0.001170638157507019
0.00117063815748006
0.001170638157501755
0.00117063815752143
0.001170638157484203
0.001170638157495495
0.001170638157482655
0.001170638157488043
0.001170638157472918
0.001170638157495664
0.001170638157506729
0.001170638157474946
0.001170638157497624
0.001170638157509045
0.001170638157472385
0.001170638157497935
0.001170638157507679
0.001170638157470343
0.001170638157515863
0.001170638157510413
0.001170638157483676
0.001170638157487187
0.001170638157469502
0.001170638157496256
0.001170638157500426
0.001170638157469231
0.001170638157513495
0.00117063815750721
0.001170638157480809
0.001170638157487059
0.001170638157471172
0.001170638157489953
0.001170638157504738
0.001170638157471388
0.001170638157492383
0.001170638157506309
0.001170638157470636
0.001170638157493133
0.001170638157505421
0.001170638157465599
0.001170638157513779
0.001170638157505245
0.00117063815747768
0.001170638157485754
0.001170638157470218
0.001170638157491816
0.001170638157505264
0.001170638157466428
0.001170638157515191
0.001170638157509081
0.001170638157484236
0.001170638157495132
0.001170638157482409
0.001363813002007833
0.001363813001975927
0.001363813001993102
0.001363813001980582
0.001363813001997328
0.001363813002011693
0.001363813001982527
0.001363813002003015
0.001363813002027555
0.001363813001988161
0.001363813001995433
0.001363813001984372
0.001363813001989074
0.001363813001973763
0.001363813001997282
0.001363813002006695
0.001363813001970521
0.001363813002011456
0.001363813002006502
0.001363813001973313
0.001363813001999833
0.0013638130020104
0.001363813001970641
0.00136381300201983
0.001363813002012329
0.001363813001984348
0.001363813001987725
0.001363813001965762
0.0013638130020092
0.001363813002001033
0.001363813001968786
0.001363813002018486
0.001363813002010156
0.001363813001981804
0.001363813001987461
0.001363813001971595
0.001363813001992577
0.001363813002007396
0.001363813001971611
0.00136381300199659
0.001363813002008346
0.001363813001971248
0.001363813001994289
0.00136381300200829
0.00136381300196552
0.001363813002017956
0.001363813002007516
0.001363813001980713
0.001363813001984995
0.001363813001971336
0.001363813001995008
0.001363813002008934
0.001363813001967607
0.001363813002021417
0.00136381300201291
0.001363813001979782
0.001363813002008976
0.001363813001997336
0.001598555033098271
0.001598555033057248
0.001598555033067741
0.001598555033051246
0.001598555033071955
0.001598555033090773
0.001598555033059881
0.001598555033078135
0.001598555033107748
0.00159855503306442
0.001598555033072201
0.001598555033060411
0.001598555033065532
0.001598555033048871
0.001598555033079209
0.001598555033075061
0.001598555033044213
0.001598555033092717
0.001598555033082502
0.00159855503304911
0.001598555033076448
0.001598555033088467
0.001598555033046182
0.001598555033098385
0.001598555033089398
0.001598555033060302
0.00159855503306296
0.001598555033038041
0.001598555033095758
0.001598555033077139
0.001598555033043294
0.001598555033098251
0.001598555033087745
0.001598555033057583
0.001598555033062602
0.001598555033046975
0.001598555033070685
0.001598555033085105
0.001598555033041594
0.001598555033087141
0.001598555033079099
0.001598555033045982
0.001598555033072847
0.001598555033084968
0.001598555033040119
0.001598555033097074
0.001598555033084136
0.001598555033056935
0.001598555033061774
0.001598555033047603
0.001598555033072313
0.001598555033088504
0.001598555033045403
0.00159855503309972
0.001598555033092296
0.001598555033054475
0.001598555033091053
0.001598555033076278
0.001890082877723926
0.001890082877680802
0.001890082877690212
0.00189008287766951
0.001890082877693049
0.001890082877714632
0.001890082877682125
0.001890082877697498
0.00189008287773188
0.00189008287768419
0.001890082877695602
0.001890082877681289
0.001890082877686223
0.001890082877661784
0.001890082877710131
0.001890082877696605
0.001890082877663861
0.001890082877717093
0.001890082877704395
0.001890082877669901
0.001890082877697895
0.00189008287771217
0.001890082877668105
0.001890082877719165
0.001890082877713134
0.001890082877681647
0.001890082877683246
0.001890082877656889
0.001890082877722756
0.001890082877698349
0.001890082877662972
0.001890082877722711
0.001890082877709277
0.00189008287767608
0.001890082877685687
0.001890082877667797
0.001890082877692387
0.001890082877708886
0.001890082877661672
0.001890082877711811
0.001890082877699784
0.001890082877658545
0.001890082877713603
0.001890082877698992
0.001890082877659722
0.001890082877721073
0.001890082877705463
0.001890082877677719
0.001890082877684816
0.001890082877669077
0.001890082877693742
0.001890082877713995
0.001890082877674918
0.001890082877706366
0.001890082877724605
0.001890082877681648
0.001890082877709388
0.001890082877698557
0.002252920394158478
0.002252920394131144
0.002252920394139142
0.002252920394114976
0.002252920394141663
0.002252920394163176
0.002252920394129391
0.002252920394141903
0.002252920394179916
0.002252920394128802
0.002252920394144956
0.002252920394127608
0.002252920394131938
0.002252920394103006
0.002252920394172003
0.002252920394143299
0.00225292039410962
0.002252920394165594
0.002252920394151508
0.002252920394116091
0.002252920394144081
0.002252920394161678
0.002252920394122614
0.00225292039414649
0.002252920394171809
0.002252920394128533
0.00225292039412899
0.002252920394102049
0.002252920394172791
0.002252920394144864
0.002252920394108356
0.002252920394171379
0.002252920394153646
0.002252920394108803
0.002252920394147963
0.002252920394114314
0.002252920394138719
0.002252920394158444
0.002252920394115833
0.002252920394141136
0.002252920394156115
0.002252920394101878
0.002252920394167697
0.002252920394143935
0.002252920394104985
0.002252920394169777
0.002252920394152134
0.002252920394124419
0.002252920394132361
0.002252920394115808
0.002252920394139869
0.002252920394163661
0.002252920394123118
0.002252920394148121
0.002252920394174465
0.002252920394122407
0.002252920394158878
0.002252920394154554
0.002696983390935065
0.002696983390924989
0.00269698339092987
0.002696983390902253
0.002696983390931562
0.002696983390950566
0.002696983390916276
0.00269698339092665
0.002696983390966376
0.00269698339091427
0.002696983390932647
0.002696983390913993
0.002696983390917986
0.002696983390888142
0.002696983390963089
0.00269698339092995
0.002696983390896165
0.002696983390952378
0.002696983390937908
0.002696983390902391
0.002696983390929851
0.002696983390949031
0.002696983390909907
0.002696983390928143
0.002696983390961804
0.002696983390915411
0.002696983390914962
0.002696983390888302
0.002696983390960562
0.00269698339093126
0.002696983390894464
0.002696983390958499
0.002696983390938062
0.002696983390890529
0.002696983390939497
0.002696983390901158
0.002696983390924665
0.002696983390945891
0.002696983390902804
0.002696983390926366
0.002696983390943638
0.002696983390887575
0.002696983390956361
0.00269698339093002
0.002696983390890975
0.002696983390957043
0.002696983390938437
0.002696983390911171
0.002696983390919122
0.002696983390902278
0.002696983390925329
0.002696983390951033
0.002696983390909188
0.002696983390931656
0.002696983390961786
0.002696983390915743
0.002696983390924971
0.002696983390957202
0.003223347291941707
0.003223347291975895
0.003223347291971453
0.003223347291938458
0.003223347291968047
0.00322334729198391
0.003223347291950385
0.003223347291959522
0.003223347291997826
0.003223347291947629
0.003223347291966402
0.003223347291947912
0.003223347291951612
0.003223347291922702
0.00322334729199646
0.003223347291963782
0.003223347291932038
0.003223347291982583
0.003223347291971404
0.003223347291936461
0.003223347291962425
0.003223347291981269
0.003223347291943009
0.003223347291963669
0.003223347291993385
0.003223347291949695
0.003223347291948723
0.003223347291923422
0.003223347291993093
0.003223347291964869
0.003223347291929169
0.003223347291991076
0.003223347291970254
0.003223347291924012
0.00322334729197399
0.003223347291935859
0.003223347291957656
0.003223347291977913
0.003223347291928058
0.00322334729198092
0.003223347291965745
0.003223347291922366
0.003223347291989171
0.00322334729196345
0.003223347291925609
0.003223347291989533
0.003223347291971275
0.00322334729194519
0.003223347291952581
0.003223347291936
0.003223347291957403
0.003223347291982702
0.003223347291941507
0.003223347291961622
0.003223347291989774
0.003223347291943689
0.003223347291958494
0.003223347291989199
0.003821498994517873
0.003821498994538131
0.003821498994557698
0.003821498994518309
0.003821498994544004
0.003821498994558399
0.003821498994527451
0.003821498994535838
0.003821498994569363
0.003821498994524277
0.003821498994541711
0.003821498994524781
0.00382149899452798
0.003821498994501795
0.003821498994568542
0.003821498994540335
0.003821498994518352
0.003821498994537834
0.003821498994554026
0.003821498994513799
0.003821498994536943
0.003821498994553113
0.003821498994511059
0.003821498994559921
0.003821498994555536
0.003821498994526769
0.003821498994525685
0.003821498994503012
0.003821498994565675
0.003821498994540926
0.003821498994508195
0.003821498994564202
0.003821498994545103
0.003821498994503167
0.003821498994548675
0.003821498994513997
0.003821498994533146
0.00382149899455185
0.003821498994506172
0.003821498994555826
0.003821498994540016
0.00382149899450176
0.003821498994561967
0.003821498994539266
0.003821498994504636
0.0038214989945623
0.00382149899454577
0.00382149899452197
0.003821498994528323
0.003821498994512696
0.003821498994531461
0.003821498994554031
0.003821498994516244
0.003821498994533678
0.003821498994557712
0.003821498994515939
0.003821498994531384
0.003821498994556833
0.004470164805291145
0.004470164805312042
0.004470164805329664
0.004470164805296839
0.004470164805317344
0.004470164805329824
0.004470164805303778
0.004470164805311247
0.004470164805337658
0.004470164805300331
0.004470164805314749
0.004470164805300475
0.00447016480530293
0.004470164805281015
0.004470164805335943
0.00447016480531297
0.004470164805288974
0.004470164805322244
0.004470164805317756
0.004470164805290267
0.004470164805309438
0.004470164805322604
0.004470164805286613
0.004470164805332382
0.00447016480532471
0.004470164805302626
0.004470164805301702
0.004470164805282939
0.004470164805334798
0.004470164805315277
0.004470164805287552
0.004470164805334049
0.004470164805318249
0.004470164805283224
0.004470164805320507
0.004470164805291714
0.004470164805307015
0.004470164805323685
0.004470164805292117
0.004470164805310622
0.004470164805320846
0.00447016480528167
0.004470164805331343
0.004470164805313375
0.004470164805284111
0.004470164805331773
0.004470164805318133
0.004470164805297831
0.004470164805302692
0.004470164805288843
0.004470164805303859
0.004470164805321963
0.004470164805290365
0.004470164805304691
0.004470164805323496
0.004470164805288924
0.00447016480530224
0.004470164805321789
0.005142346375380281
0.005142346375399812
0.005142346375412254
0.005142346375388808
0.00514234637540414
0.005142346375413555
0.005142346375394443
0.005142346375400485
0.00514234637541902
0.005142346375390787
0.005142346375400793
0.005142346375389761
0.005142346375391437
0.005142346375374922
0.005142346375415311
0.005142346375399264
0.005142346375384378
0.005142346375396208
0.005142346375405414
0.005142346375380828
0.00514234637539529
0.005142346375405073
0.005142346375378316
0.005142346375413616
0.005142346375407949
0.005142346375392109
0.005142346375391612
0.005142346375377757
0.005142346375416619
0.005142346375402975
0.005142346375381958
0.005142346375416478
0.005142346375404836
0.005142346375378459
0.005142346375405352
0.005142346375384101
0.005142346375394227
0.005142346375406991
0.005142346375384194
0.005142346375395469
0.005142346375406753
0.005142346375376614
0.005142346375413489
0.005142346375400942
0.005142346375378777
0.005142346375414151
0.005142346375404048
0.005142346375388151
0.005142346375391089
0.005142346375379857
0.005142346375390333
0.005142346375403023
0.005142346375379612
0.005142346375390569
0.0051423463754038
0.005142346375378199
0.005142346375388003
0.005142346375401832
0.005812185290423491
0.005812185290438575
0.005812185290446832
0.005812185290432922
0.005812185290443788
0.005812185290449134
0.005812185290437801
0.005812185290442107
0.005812185290453195
0.005812185290433917
0.005812185290438623
0.005812185290430968
0.005812185290432204
0.005812185290421636
0.005812185290446634
0.005812185290436657
0.005812185290424048
0.005812185290439859
0.005812185290437396
0.005812185290423919
0.005812185290433741
0.005812185290440004
0.005812185290423158
0.005812185290446435
0.005812185290443111
0.005812185290433728
0.005812185290433976
0.00581218529042546
0.005812185290451244
0.005812185290443032
0.00581218529042958
0.005812185290451444
0.005812185290443847
0.005812185290426701
0.005812185290442255
0.005812185290429972
0.005812185290434008
0.005812185290442117
0.005812185290428176
0.005812185290436203
0.005812185290443671
0.005812185290424674
0.00581218529044844
0.005812185290440984
0.005812185290426757
0.005812185290449569
0.00581218529044301
0.005812185290431729
0.005812185290432374
0.005812185290424432
0.005812185290430365
0.005812185290437242
0.005812185290422696
0.005812185290430506
0.005812185290438427
0.005812185290422216
0.00581218529042795
0.005812185290436404
0.006459854909705122
0.006459854909717297
0.006459854909719061
0.00645985490971449
0.006459854909722389
0.006459854909723042
0.006459854909718465
0.006459854909721275
0.006459854909726137
0.006459854909714529
0.006459854909713749
0.006459854909709226
0.006459854909710681
0.006459854909706363
0.00645985490971622
0.006459854909712306
0.006459854909705405
0.006459854909713867
0.006459854909711621
0.006459854909704777
0.006459854909710643
0.006459854909713805
0.006459854909705462
0.006459854909717928
0.006459854909716311
0.006459854909712661
0.006459854909714142
0.006459854909710557
0.006459854909725149
0.006459854909721207
0.006459854909715225
0.006459854909725496
0.006459854909720995
0.006459854909713041
0.006459854909715102
0.006459854909714327
0.006459854909713112
0.006459854909715607
0.006459854909709776
0.00645985490971584
0.006459854909719141
0.006459854909710407
0.006459854909722572
0.006459854909719233
0.006459854909712601
0.006459854909724676
0.006459854909721219
0.006459854909713723
0.006459854909711835
0.006459854909707351
0.006459854909709926
0.006459854909710851
0.00645985490970438
0.006459854909710001
0.006459854909713301
0.006459854909705622
0.006459854909707794
0.006459854909710881
0.007072792598402214
0.007072792598409704
0.007072792598412635
0.007072792598411236
0.007072792598418973
0.007072792598415381
0.007072792598413488
0.00707279259841557
0.007072792598416649
0.007072792598410966
0.007072792598405191
0.00707279259840315
0.00707279259840529
0.007072792598403948
0.007072792598411473
0.007072792598404581
0.007072792598402499
0.007072792598404865
0.007072792598403759
0.007072792598401483
0.0070727925984042
0.007072792598406049
0.007072792598402248
0.007072792598406223
0.007072792598408399
0.00707279259840697
0.007072792598410389
0.007072792598409988
0.007072792598417439
0.007072792598415928
0.007072792598416542
0.007072792598417729
0.007072792598415895
0.007072792598414441
0.007072792598414061
0.007072792598412945
0.007072792598407075
0.007072792598407041
0.0070727925984067
0.007072792598411903
0.007072792598412712
0.007072792598410866
0.007072792598414524
0.00707279259841419
0.007072792598413573
0.007072792598418573
0.007072792598418141
0.007072792598412455
0.007072792598407472
0.00707279259840576
0.00707279259840731
0.007072792598402817
0.007072792598402127
0.007072792598407302
0.007072792598407267
0.007072792598405586
0.00707279259840823
0.007072792598403677
0.007644362774912885
0.007644362774913852
0.007644362774923346
0.00764436277491851
0.007644362774929918
0.007644362774924839
0.007644362774918883
0.007644362774919496
0.007644362774919982
0.007644362774921399
0.007644362774912081
0.007644362774911271
0.007644362774915084
0.007644362774910368
0.007644362774921939
0.007644362774910563
0.007644362774910048
0.007644362774912449
0.007644362774910568
0.007644362774910566
0.007644362774909941
0.007644362774916082
0.007644362774908231
0.007644362774910152
0.007644362774916666
0.007644362774912834
0.007644362774919004
0.00764436277491779
0.007644362774924213
0.00764436277492405
0.007644362774930153
0.007644362774923428
0.007644362774922487
0.007644362774924755
0.007644362774923115
0.007644362774924025
0.007644362774913327
0.007644362774914182
0.00764436277491577
0.007644362774919845
0.007644362774921711
0.007644362774921126
0.007644362774921368
0.0076443627749228
0.007644362774925148
0.007644362774928344
0.00764436277492975
0.007644362774926612
0.007644362774915916
0.00764436277491526
0.007644362774918726
0.007644362774910057
0.007644362774912651
0.007644362774919185
0.007644362774919449
0.007644362774918801
0.007644362774923443
0.007644362774912184
0.008171759330563185
0.008171759330562457
0.008171759330577068
0.008171759330568421
0.008171759330585216
0.008171759330579523
0.008171759330569319
0.008171759330563804
0.008171759330564608
0.0081717593305713
0.008171759330560508
0.008171759330560529
0.00817175933056331
0.008171759330557683
0.008171759330571328
0.008171759330559662
0.008171759330560016
0.008171759330561698
0.008171759330559481
0.008171759330562165
0.008171759330558611
0.008171759330566162
0.008171759330558057
0.008171759330557049
0.008171759330563596
0.008171759330561636
0.008171759330567654
0.008171759330566566
0.008171759330573647
0.008171759330573151
0.008171759330584189
0.008171759330571881
0.008171759330570778
0.008171759330575491
0.008171759330572596
0.008171759330576489
0.008171759330562151