/*--------------------------------*- C++ -*----------------------------------*\
| =========                 |                                                 |
| \\      /  F ield         | OpenFOAM: The Open Source CFD Toolbox           |
|  \\    /   O peration     | Version:  v1812                                 |
|   \\  /    A nd           | Web:      www.OpenFOAM.com                      |
|    \\/     M anipulation  |                                                 |
\*---------------------------------------------------------------------------*/
FoamFile
{
    version     2.0;
    format      ascii;
    class       volScalarField;
    location    "20000";
    object      nuTilda;
}
// * * * * * * * * * * * * * * * * * * * * * * * * * * * * * * * * * * * * * //

dimensions      [0 2 -1 0 0 0 0];


internalField   nonuniform List<scalar> 
3770
(
0.0004779055941196155
0.0004779055941195852
0.0004779055941195831
0.0004779055941196126
0.0004779055941196441
0.0004779055941196118
0.0004779055941195981
0.0004779055941195919
0.0004779055941196093
0.000477905594119618
0.0004779055941196465
0.0004779055941196052
0.0004779055941196305
0.0004779055941196243
0.0004779055941196204
0.0004779055941195909
0.0004779055941195799
0.0004779055941196527
0.0004779055941196433
0.0004779055941196395
0.0004779055941195722
0.0004779055941196317
0.0004779055941196852
0.000477905594119625
0.0004779055941195749
0.0004779055941195818
0.0004779055941195642
0.0004779055941195944
0.0004779055941196374
0.0004779055941195956
0.0004779055941196151
0.0004779055941196437
0.0004779055941195977
0.000477905594119615
0.0004779055941196254
0.00047790559411962
0.0004779055941196553
0.0004779055941196435
0.000477905594119653
0.0004779055941196167
0.0004779055941195794
0.0004779055941196075
0.0004779055941196364
0.0004779055941196104
0.0004779055941196113
0.0004779055941195997
0.0004779055941196108
0.0004779055941196034
0.000477905594119603
0.0004779055941196
0.0004779055941195681
0.000477905594119557
0.0004779055941196253
0.0004779055941196795
0.0004779055941196072
0.0004779055941195568
0.0004779055941196076
0.000477905594119651
0.0002468733525571719
0.0002468733525582059
0.0002468733525573011
0.0002468733525580077
0.0002468733525579258
0.0002468733525582476
0.0002468733525578936
0.0002468733525582491
0.0002468733525579774
0.0002468733525579214
0.0002468733525576586
0.0002468733525570405
0.0002468733525572337
0.0002468733525565619
0.0002468733525574932
0.0002468733525573534
0.0002468733525567084
0.0002468733525579237
0.0002468733525574752
0.0002468733525572718
0.0002468733525568226
0.0002468733525572947
0.0002468733525565847
0.0002468733525562489
0.0002468733525565235
0.0002468733525572833
0.0002468733525568419
0.0002468733525572507
0.0002468733525578782
0.000246873352557393
0.0002468733525572933
0.0002468733525581094
0.000246873352557763
0.0002468733525574341
0.0002468733525572684
0.0002468733525574842
0.0002468733525579022
0.0002468733525578367
0.0002468733525566724
0.00024687335255716
0.000246873352557009
0.0002468733525571473
0.0002468733525580142
0.0002468733525581217
0.0002468733525576941
0.0002468733525574063
0.0002468733525571752
0.0002468733525568236
0.0002468733525569416
0.0002468733525570144
0.0002468733525569363
0.0002468733525560806
0.0002468733525570047
0.0002468733525575775
0.0002468733525570382
0.0002468733525557219
0.0002468733525566436
0.000246873352555824
0.0002530175720518737
0.000253017572057176
0.0002530175720539814
0.0002530175720571625
0.0002530175720553253
0.0002530175720566924
0.0002530175720538534
0.0002530175720562939
0.000253017572054573
0.0002530175720543117
0.0002530175720538798
0.0002530175720511371
0.0002530175720521895
0.000253017572049475
0.0002530175720541238
0.0002530175720544858
0.0002530175720513339
0.000253017572056607
0.0002530175720555269
0.0002530175720531339
0.0002530175720510875
0.0002530175720537502
0.0002530175720507424
0.0002530175720504154
0.0002530175720511875
0.0002530175720525085
0.000253017572050927
0.0002530175720515262
0.0002530175720548823
0.0002530175720533073
0.00025301757205175
0.0002530175720561637
0.0002530175720563238
0.0002530175720543459
0.0002530175720513504
0.0002530175720514501
0.0002530175720551644
0.0002530175720553027
0.0002530175720504667
0.0002530175720526183
0.0002530175720523612
0.0002530175720512553
0.0002530175720551331
0.0002530175720556554
0.0002530175720529389
0.0002530175720515633
0.0002530175720536341
0.0002530175720535684
0.0002530175720542154
0.0002530175720517563
0.0002530175720522062
0.0002530175720488332
0.0002530175720507117
0.0002530175720540603
0.0002530175720505793
0.0002530175720441186
0.0002530175720492842
0.0002530175720453096
0.0003545997880150796
0.0003545997880256053
0.000354599788015832
0.0003545997880247063
0.0003545997880207197
0.0003545997880237405
0.0003545997880158037
0.0003545997880212699
0.0003545997880196319
0.0003545997880174333
0.000354599788018752
0.0003545997880156504
0.0003545997880211641
0.0003545997880111468
0.0003545997880249227
0.0003545997880222043
0.000354599788010633
0.0003545997880262752
0.0003545997880230668
0.0003545997880163895
0.000354599788016229
0.0003545997880247254
0.0003545997880168088
0.000354599788017944
0.0003545997880258011
0.0003545997880199747
0.000354599788016066
0.0003545997880144342
0.0003545997880220239
0.0003545997880231275
0.0003545997880163191
0.0003545997880241151
0.0003545997880248168
0.0003545997880190374
0.0003545997880176033
0.000354599788014704
0.0003545997880222738
0.0003545997880229854
0.00035459978801419
0.0003545997880160438
0.0003545997880219712
0.0003545997880150774
0.0003545997880219373
0.0003545997880226711
0.0003545997880155398
0.0003545997880165223
0.0003545997880250548
0.000354599788017054
0.0003545997880185272
0.0003545997880096237
0.0003545997880229212
0.0003545997880201846
0.0003545997880138241
0.0003545997880211956
0.0003545997880183055
0.0003545997880067854
0.0003545997880138676
0.0003545997880028198
0.0004731717595016629
0.0004731717595168675
0.0004731717594999792
0.0004731717595130121
0.000473171759511661
0.0004731717595126879
0.0004731717594968002
0.0004731717595128775
0.0004731717595146613
0.0004731717595041339
0.0004731717595102218
0.0004731717595061861
0.0004731717595091734
0.0004731717594946879
0.0004731717595169856
0.0004731717595135531
0.0004731717594941561
0.0004731717595179356
0.0004731717595148964
0.0004731717594972637
0.0004731717595093799
0.000473171759514865
0.0004731717595023499
0.000473171759509547
0.0004731717595209417
0.0004731717595080146
0.0004731717595061739
0.000473171759495368
0.0004731717595152099
0.0004731717595147698
0.0004731717594967108
0.0004731717595176891
0.0004731717595178698
0.0004731717595048137
0.0004731717595081058
0.0004731717594951871
0.0004731717595154774
0.0004731717595140588
0.0004731717594945843
0.0004731717595073489
0.0004731717595115754
0.0004731717594939946
0.000473171759515072
0.0004731717595138528
0.0004731717594992678
0.0004731717595071841
0.0004731717595197687
0.0004731717595023472
0.0004731717595067985
0.0004731717594920529
0.0004731717595141224
0.0004731717595120307
0.0004731717594938025
0.000473171759514375
0.0004731717595107195
0.0004731717594948643
0.0004731717594989152
0.0004731717594804731
0.0005963969925263471
0.0005963969925407274
0.0005963969925186379
0.0005963969925327993
0.0005963969925408373
0.0005963969925381238
0.0005963969925165118
0.0005963969925455975
0.0005963969925434916
0.0005963969925276455
0.0005963969925357227
0.0005963969925301657
0.0005963969925323746
0.0005963969925163662
0.0005963969925441308
0.0005963969925405963
0.0005963969925154839
0.000596396992545155
0.0005963969925412187
0.0005963969925155785
0.0005963969925427122
0.0005963969925416714
0.0005963969925248107
0.000596396992539176
0.0005963969925467269
0.0005963969925315473
0.0005963969925302059
0.0005963969925154275
0.0005963969925430049
0.0005963969925406437
0.0005963969925178998
0.0005963969925453703
0.0005963969925446563
0.0005963969925281853
0.0005963969925315895
0.0005963969925147478
0.0005963969925429362
0.0005963969925393877
0.0005963969925138435
0.0005963969925400341
0.0005963969925381707
0.0005963969925133723
0.0005963969925429186
0.0005963969925397124
0.0005963969925206774
0.0005963969925337332
0.0005963969925482438
0.0005963969925253118
0.0005963969925298187
0.0005963969925120811
0.0005963969925409471
0.0005963969925379242
0.0005963969925148825
0.0005963969925421552
0.0005963969925377379
0.0005963969925184045
0.0005963969925237677
0.0005963969925025132
0.0007241858845139097
0.0007241858845241204
0.0007241858844967691
0.000724185884523201
0.0007241858845228468
0.0007241858845288546
0.0007241858845005199
0.0007241858845373052
0.0007241858845331579
0.0007241858845140905
0.0007241858845217306
0.0007241858845158164
0.0007241858845160702
0.000724185884499612
0.0007241858845328797
0.0007241858845273228
0.0007241858844994118
0.0007241858845335799
0.0007241858845281672
0.0007241858844983009
0.0007241858845328338
0.000724185884528383
0.0007241858845089104
0.0007241858845252171
0.0007241858845397168
0.0007241858845164764
0.0007241858845152117
0.0007241858844987127
0.0007241858845314184
0.0007241858845270328
0.0007241858845028347
0.0007241858845326524
0.0007241858845315705
0.0007241858845142906
0.0007241858845151619
0.0007241858844973078
0.0007241858845309078
0.0007241858845253166
0.0007241858844966777
0.0007241858845296288
0.000724185884524993
0.0007241858844961978
0.0007241858845315719
0.0007241858845262374
0.0007241858845047865
0.0007241858845218177
0.0007241858845364513
0.0007241858845107355
0.0007241858845135078
0.0007241858844949413
0.0007241858845292497
0.0007241858845248502
0.0007241858845002682
0.0007241858845301764
0.0007241858845257345
0.000724185884505337
0.0007241858845119542
0.0007241858844919906
0.0008592288843651201
0.0008592288843716298
0.0008592288843460141
0.0008592288843659461
0.0008592288843783882
0.0008592288843777383
0.0008592288843493407
0.0008592288843902115
0.0008592288843858015
0.0008592288843636196
0.0008592288843714197
0.0008592288843640095
0.000859228884364334
0.0008592288843465355
0.0008592288843847943
0.0008592288843766891
0.0008592288843475518
0.000859228884385046
0.000859228884378218
0.00085922888434584
0.000859228884383948
0.0008592288843781549
0.0008592288843572068
0.000859228884375778
0.0008592288843923227
0.0008592288843645874
0.0008592288843638356
0.0008592288843465488
0.0008592288843822795
0.0008592288843763676
0.0008592288843539866
0.0008592288843777968
0.0008592288843820211
0.0008592288843625492
0.000859228884363263
0.0008592288843440917
0.0008592288843818025
0.0008592288843744433
0.0008592288843439199
0.0008592288843816422
0.0008592288843748192
0.0008592288843433055
0.0008592288843832513
0.0008592288843758585
0.0008592288843529154
0.0008592288843729696
0.000859228884387364
0.0008592288843587628
0.0008592288843618243
0.0008592288843421681
0.0008592288843809736
0.0008592288843751511
0.0008592288843528401
0.0008592288843768988
0.0008592288843782007
0.0008592288843573357
0.0008592288843641661
0.000859228884347622
0.001005787144948179
0.001005787144954089
0.001005787144926346
0.001005787144950987
0.00100578714495671
0.001005787144962667
0.001005787144930247
0.001005787144974091
0.0010057871449699
0.001005787144945041
0.001005787144952697
0.00100578714494391
0.001005787144944674
0.001005787144925715
0.001005787144967353
0.001005787144957368
0.001005787144928044
0.001005787144967577
0.001005787144959979
0.00100578714492631
0.001005787144962411
0.001005787144959457
0.001005787144937627
0.001005787144957619
0.001005787144975466
0.001005787144944425
0.001005787144944249
0.00100578714492692
0.001005787144963074
0.001005787144956883
0.001005787144935904
0.0010057871449568
0.001005787144970006
0.001005787144942355
0.001005787144943275
0.001005787144922896
0.001005787144964427
0.001005787144955162
0.001005787144923533
0.001005787144964807
0.001005787144956072
0.001005787144922366
0.001005787144966535
0.001005787144957009
0.001005787144933108
0.001005787144955202
0.001005787144969921
0.001005787144939029
0.00100578714494173
0.00100578714492152
0.001005787144964576
0.001005787144956772
0.001005787144933517
0.00100578714495614
0.00100578714496842
0.001005787144941679
0.001005787144948396
0.001005787144936877
0.001170638157222455
0.001170638157218102
0.001170638157200362
0.001170638157209839
0.001170638157235
0.001170638157228446
0.001170638157198477
0.001170638157245104
0.001170638157241117
0.001170638157214105
0.001170638157220929
0.001170638157211467
0.001170638157212652
0.001170638157193296
0.001170638157234614
0.001170638157225344
0.001170638157196945
0.001170638157235435
0.001170638157229882
0.00117063815719355
0.001170638157230032
0.001170638157228017
0.001170638157205674
0.00117063815722593
0.001170638157245907
0.00117063815721176
0.001170638157212061
0.001170638157197282
0.001170638157225458
0.00117063815722544
0.001170638157203961
0.001170638157224947
0.001170638157242072
0.001170638157209651
0.001170638157210492
0.001170638157189019
0.001170638157235223
0.001170638157223346
0.001170638157191222
0.001170638157234301
0.001170638157224603
0.001170638157189117
0.00117063815723689
0.001170638157225403
0.001170638157200877
0.001170638157224005
0.001170638157240103
0.00117063815720727
0.00117063815720869
0.001170638157188283
0.001170638157236214
0.001170638157225919
0.00117063815720151
0.001170638157225471
0.00117063815724233
0.001170638157211323
0.001170638157222781
0.001170638157214517
0.00136381300171687
0.001363813001692425
0.001363813001695673
0.001363813001680052
0.001363813001724862
0.00136381300171195
0.001363813001682185
0.001363813001731711
0.001363813001727557
0.001363813001698696
0.001363813001704727
0.001363813001694882
0.001363813001696748
0.001363813001678735
0.001363813001711868
0.001363813001710154
0.001363813001685881
0.001363813001708607
0.001363813001720633
0.001363813001675404
0.001363813001717242
0.001363813001712285
0.001363813001689217
0.001363813001709352
0.001363813001732398
0.001363813001694987
0.001363813001695371
0.001363813001682168
0.001363813001706406
0.001363813001717198
0.00136381300168754
0.001363813001708623
0.001363813001729013
0.001363813001692683
0.001363813001693302
0.001363813001670644
0.001363813001722861
0.001363813001707593
0.001363813001675647
0.001363813001716382
0.001363813001709953
0.001363813001672103
0.001363813001721962
0.001363813001709543
0.001363813001684417
0.001363813001707642
0.001363813001726347
0.001363813001691468
0.001363813001691305
0.001363813001670634
0.001363813001724354
0.001363813001710795
0.001363813001685476
0.001363813001711376
0.001363813001730448
0.001363813001695183
0.001363813001714444
0.001363813001708251
0.001598555032784401
0.001598555032750962
0.00159855503275683
0.001598555032731377
0.001598555032789358
0.00159855503277112
0.001598555032741094
0.001598555032793562
0.001598555032788694
0.001598555032757864
0.001598555032764717
0.001598555032753717
0.001598555032756622
0.001598555032743012
0.001598555032761989
0.001598555032777128
0.001598555032746281
0.001598555032763574
0.001598555032783605
0.001598555032731693
0.001598555032784039
0.001598555032771731
0.001598555032748009
0.001598555032768466
0.001598555032794527
0.001598555032753576
0.001598555032754053
0.001598555032740892
0.001598555032766461
0.001598555032780525
0.001598555032746519
0.001598555032767104
0.001598555032790999
0.001598555032750705
0.001598555032752184
0.001598555032727644
0.001598555032786659
0.001598555032767509
0.001598555032739812
0.00159855503276534
0.001598555032777358
0.001598555032732202
0.001598555032778157
0.00159855503277032
0.00159855503274337
0.001598555032765975
0.001598555032788303
0.001598555032750801
0.00159855503275006
0.0015985550327284
0.001598555032788055
0.001598555032770925
0.00159855503274424
0.001598555032775278
0.001598555032792593
0.001598555032756094
0.001598555032778538
0.001598555032773361
0.001890082877391204
0.001890082877357507
0.001890082877364164
0.001890082877332286
0.001890082877401008
0.001890082877376826
0.001890082877346583
0.001890082877401693
0.001890082877395867
0.001890082877363328
0.001890082877371936
0.001890082877359271
0.001890082877362269
0.001890082877347376
0.001890082877368738
0.001890082877387439
0.001890082877352431
0.001890082877366779
0.001890082877392251
0.001890082877334116
0.001890082877400102
0.001890082877377433
0.001890082877352571
0.001890082877377412
0.001890082877401519
0.001890082877358304
0.001890082877360195
0.001890082877346326
0.001890082877372595
0.001890082877389389
0.001890082877352136
0.001890082877371681
0.001890082877398707
0.001890082877353921
0.001890082877360263
0.001890082877331633
0.001890082877396564
0.001890082877373472
0.001890082877345672
0.001890082877371556
0.00189008287738634
0.00189008287734414
0.001890082877372394
0.0018900828773858
0.001890082877348972
0.001890082877370624
0.001890082877397136
0.001890082877356899
0.001890082877355691
0.001890082877332977
0.001890082877397938
0.001890082877376966
0.001890082877342481
0.001890082877400934
0.001890082877392813
0.001890082877364206
0.001890082877386289
0.001890082877383303
0.002252920393820256
0.002252920393795751
0.002252920393801689
0.002252920393765312
0.002252920393842031
0.002252920393811973
0.002252920393781675
0.002252920393838568
0.002252920393831976
0.002252920393798352
0.002252920393808652
0.002252920393794476
0.002252920393797251
0.002252920393781612
0.002252920393808468
0.002252920393825246
0.002252920393787634
0.002252920393800316
0.002252920393829625
0.00225292039376759
0.002252920393839982
0.002252920393811536
0.002252920393778925
0.002252920393833528
0.002252920393827027
0.002252920393790227
0.002252920393799228
0.002252920393781555
0.002252920393807738
0.00225292039382702
0.002252920393787268
0.002252920393805518
0.002252920393834241
0.002252920393784498
0.002252920393801565
0.002252920393765814
0.002252920393834617
0.002252920393808262
0.002252920393772702
0.002252920393826391
0.002252920393813944
0.002252920393780412
0.002252920393804576
0.002252920393825255
0.002252920393784125
0.00225292039380486
0.002252920393835161
0.002252920393792694
0.00225292039379068
0.002252920393767363
0.002252920393836145
0.002252920393812374
0.002252920393775244
0.002252920393842331
0.002252920393825811
0.002252920393795617
0.002252920393825581
0.002252920393821885
0.002696983390600042
0.002696983390584375
0.002696983390590585
0.002696983390549429
0.002696983390629356
0.00269698339059544
0.00269698339056531
0.002696983390622438
0.002696983390615536
0.002696983390581851
0.002696983390592937
0.002696983390578072
0.002696983390580695
0.002696983390565087
0.002696983390593538
0.00269698339060952
0.002696983390571221
0.002696983390583128
0.00269698339061355
0.002696983390550438
0.002696983390624702
0.002696983390594324
0.00269698339056052
0.002696983390620833
0.002696983390605606
0.002696983390559332
0.002696983390600438
0.002696983390565509
0.002696983390590884
0.002696983390611736
0.002696983390570834
0.002696983390587925
0.002696983390617283
0.002696983390566521
0.002696983390587373
0.002696983390549244
0.002696983390619296
0.002696983390592188
0.002696983390555782
0.002696983390611681
0.00269698339059718
0.002696983390564262
0.002696983390587005
0.002696983390610416
0.002696983390567714
0.002696983390587625
0.002696983390620012
0.002696983390576648
0.002696983390573904
0.002696983390550465
0.002696983390620367
0.002696983390595363
0.002696983390557423
0.002696983390625986
0.002696983390605277
0.002696983390564798
0.00269698339061898
0.002696983390599914
0.003223347291621646
0.003223347291629458
0.003223347291651671
0.003223347291596709
0.003223347291673414
0.003223347291639513
0.003223347291610083
0.003223347291665059
0.003223347291658225
0.003223347291625947
0.003223347291636995
0.003223347291622333
0.003223347291624697
0.00322334729160972
0.003223347291637387
0.003223347291652465
0.003223347291614989
0.00322334729162934
0.003223347291654504
0.003223347291595115
0.003223347291666994
0.003223347291638032
0.003223347291606157
0.003223347291661275
0.00322334729164769
0.003223347291600434
0.003223347291648253
0.003223347291610581
0.003223347291634417
0.003223347291655314
0.003223347291615397
0.003223347291631447
0.003223347291659617
0.003223347291610855
0.003223347291631991
0.003223347291594609
0.003223347291662341
0.00322334729163724
0.003223347291609842
0.003223347291633485
0.003223347291651311
0.003223347291609119
0.003223347291630466
0.003223347291653949
0.003223347291612272
0.003223347291631141
0.003223347291662942
0.003223347291620936
0.003223347291617685
0.003223347291594848
0.003223347291661972
0.0032233472916376
0.003223347291600419
0.003223347291665734
0.003223347291643668
0.003223347291602363
0.00322334729166408
0.003223347291646431
0.003821498994208424
0.003821498994257218
0.003821498994246031
0.003821498994205178
0.003821498994272622
0.003821498994242982
0.003821498994215456
0.003821498994265198
0.003821498994258824
0.003821498994229707
0.003821498994239726
0.003821498994226286
0.003821498994228142
0.003821498994214522
0.003821498994239549
0.003821498994252291
0.003821498994211847
0.003821498994250566
0.003821498994244585
0.003821498994200858
0.00382149899426579
0.003821498994241473
0.003821498994219971
0.003821498994241087
0.003821498994258428
0.003821498994205505
0.003821498994250389
0.003821498994216004
0.003821498994237404
0.003821498994256605
0.003821498994220286
0.003821498994234984
0.003821498994259777
0.003821498994216051
0.003821498994235299
0.003821498994201243
0.0038214989942618
0.003821498994239866
0.003821498994214939
0.003821498994234798
0.003821498994253248
0.003821498994214355
0.003821498994233577
0.003821498994254974
0.003821498994217123
0.00382149899423429
0.003821498994262646
0.003821498994224709
0.003821498994221204
0.00382149899419996
0.003821498994259833
0.003821498994238033
0.003821498994203664
0.003821498994261692
0.003821498994241061
0.003821498994203104
0.003821498994260247
0.00382149899424166
0.004470164805025065
0.004470164805078122
0.00447016480506183
0.004470164805030357
0.004470164805084765
0.004470164805061666
0.004470164805037937
0.004470164805079308
0.004470164805073857
0.004470164805049351
0.004470164805057398
0.00447016480504604
0.004470164805047251
0.004470164805035763
0.004470164805056524
0.004470164805067399
0.004470164805038552
0.004470164805053675
0.004470164805065611
0.004470164805023858
0.004470164805077433
0.004470164805058527
0.004470164805040724
0.004470164805054601
0.004470164805074389
0.004470164805029368
0.004470164805065774
0.004470164805038074
0.00447016480505611
0.004470164805072127
0.004470164805041891
0.004470164805054478
0.004470164805074161
0.004470164805038128
0.004470164805053912
0.004470164805025407
0.004470164805074302
0.004470164805056407
0.004470164805029073
0.004470164805069531
0.004470164805060896
0.004470164805036331
0.004470164805052502
0.004470164805070188
0.00447016480503874
0.004470164805053274
0.004470164805075966
0.004470164805044446
0.004470164805040962
0.004470164805022449
0.004470164805071096
0.004470164805053434
0.004470164805024184
0.004470164805071696
0.004470164805054563
0.004470164805022536
0.004470164805069568
0.004470164805053421
0.005142346375174152
0.005142346375218968
0.005142346375205471
0.005142346375183108
0.005142346375222824
0.005142346375206707
0.005142346375188696
0.005142346375219455
0.005142346375215243
0.005142346375196037
0.005142346375201539
0.005142346375192691
0.005142346375193431
0.005142346375184616
0.005142346375200017
0.005142346375207466
0.005142346375182062
0.005142346375205904
0.005142346375201744
0.00514234637517488
0.005142346375214693
0.005142346375201589
0.005142346375187978
0.00514234637519866
0.005142346375214868
0.005142346375182757
0.005142346375206612
0.005142346375187969
0.005142346375202063
0.005142346375213932
0.005142346375191518
0.005142346375201137
0.005142346375214896
0.005142346375188103
0.005142346375199407
0.005142346375178349
0.005142346375212639
0.005142346375200238
0.005142346375178842
0.005142346375213008
0.005142346375203681
0.005142346375186358
0.005142346375198729
0.0051423463752118
0.005142346375188509
0.005142346375199657
0.005142346375215479
0.00514234637519168
0.005142346375188542
0.005142346375173778
0.005142346375208736
0.005142346375195957
0.005142346375173795
0.005142346375209032
0.005142346375196503
0.005142346375172236
0.005142346375206584
0.005142346375194826
0.00581218529028602
0.005812185290317379
0.00581218529030946
0.005812185290296324
0.005812185290320984
0.005812185290311307
0.005812185290300073
0.005812185290319543
0.005812185290316551
0.005812185290302338
0.005812185290305513
0.005812185290298995
0.005812185290299722
0.005812185290293927
0.005812185290303761
0.005812185290308093
0.005812185290294203
0.005812185290301013
0.005812185290306228
0.005812185290286447
0.005812185290312278
0.005812185290304474
0.005812185290295597
0.005812185290303399
0.005812185290315135
0.005812185290299742
0.005812185290304546
0.005812185290298325
0.005812185290308576
0.005812185290315962
0.005812185290301967
0.005812185290308112
0.005812185290315928
0.005812185290298603
0.005812185290304701
0.005812185290293001
0.005812185290311168
0.005812185290304301
0.005812185290290815
0.005812185290314102
0.005812185290308028
0.005812185290297115
0.005812185290305554
0.005812185290313816
0.005812185290299243
0.005812185290306859
0.005812185290315605
0.005812185290299162
0.005812185290297074
0.005812185290286587
0.005812185290307166
0.005812185290299299
0.005812185290285215
0.005812185290308315
0.005812185290300411
0.005812185290284688
0.005812185290305978
0.005812185290298636
0.006459854909640315
0.006459854909655345
0.006459854909654285
0.006459854909650648
0.00645985490966085
0.006459854909656329
0.006459854909651288
0.006459854909660642
0.006459854909658502
0.006459854909647262
0.006459854909650759
0.006459854909645158
0.00645985490964638
0.006459854909643588
0.006459854909648944
0.00645985490964932
0.006459854909642692
0.006459854909645442
0.006459854909648372
0.006459854909638139
0.006459854909651738
0.006459854909648268
0.0064598549096435
0.006459854909648526
0.006459854909654935
0.006459854909648292
0.006459854909650514
0.006459854909648819
0.006459854909656064
0.006459854909659348
0.006459854909653172
0.006459854909655848
0.006459854909658449
0.006459854909649657
0.006459854909649382
0.006459854909650255
0.00645985490965094
0.006459854909649129
0.006459854909643389
0.006459854909656427
0.00645985490965364
0.006459854909648378
0.006459854909653497
0.006459854909657411
0.006459854909650747
0.006459854909655628
0.006459854909657933
0.006459854909645488
0.006459854909647268
0.006459854909640449
0.006459854909646486
0.006459854909644167
0.00645985490963781
0.006459854909650754
0.006459854909646653
0.006459854909639121
0.006459854909649184
0.006459854909644618
0.007072792598405797
0.007072792598414086
0.007072792598416348
0.007072792598415521
0.007072792598424293
0.007072792598417478
0.007072792598416274
0.007072792598418255
0.007072792598417497
0.007072792598411831
0.007072792598408919
0.007072792598406382
0.007072792598408307
0.007072792598407085
0.007072792598412853
0.007072792598407505
0.007072792598405584
0.007072792598407514
0.007072792598407271
0.007072792598403968
0.007072792598408709
0.007072792598408957
0.007072792598406203
0.007072792598408631
0.007072792598412023
0.007072792598409931
0.00707279259841297
0.007072792598413307
0.007072792598419126
0.007072792598419777
0.00707279259841963
0.00707279259841898
0.00707279259841829
0.007072792598416183
0.007072792598415502
0.00707279259841446
0.007072792598411647
0.007072792598410224
0.00707279259841052
0.007072792598415837
0.007072792598416083
0.00707279259841474
0.007072792598417564
0.007072792598418521
0.007072792598417265
0.007072792598421045
0.007072792598421452
0.007072792598413747
0.007072792598409532
0.007072792598407462
0.007072792598409611
0.007072792598406132
0.007072792598405197
0.007072792598411851
0.007072792598410219
0.007072792598409338
0.007072792598412588
0.00707279259840725
0.007644362774981218
0.007644362774982924
0.007644362774990671
0.007644362774989208
0.00764436277500251
0.007644362774991258
0.00764436277498933
0.007644362774988034
0.00764436277498472
0.00764436277498614
0.007644362774980646
0.007644362774978058
0.007644362774980811
0.007644362774978574
0.007644362774986074
0.00764436277497957
0.007644362774977622
0.007644362774979616
0.007644362774980372
0.007644362774976599
0.007644362774978747
0.007644362774982482
0.007644362774978928
0.007644362774977222
0.007644362774982666
0.007644362774980922
0.007644362774985311
0.007644362774985869
0.007644362774991343
0.007644362774991989
0.007644362774996453
0.007644362774990194
0.007644362774989199
0.007644362774990188
0.007644362774989065
0.007644362774989235
0.007644362774985823
0.007644362774983367
0.007644362774986381
0.007644362774988191
0.007644362774991378
0.007644362774992205
0.00764436277499216
0.00764436277499436
0.007644362774992885
0.007644362774996188
0.007644362774998056
0.007644362774992064
0.007644362774983495
0.007644362774981872
0.007644362774984376
0.00764436277498161
0.007644362774979387
0.00764436277498664
0.007644362774986574
0.007644362774989536
0.007644362774990547
0.007644362774984128
0.008171759330691931
0.008171759330693414
0.008171759330704423
0.008171759330702015
0.008171759330721552
0.008171759330709277
0.008171759330697666
0.008171759330696545
0.008171759330691279
0.008171759330697574
0.008171759330693631
0.008171759330686741
0.008171759330690691
0.008171759330687886
0.008171759330696452
0.008171759330695144
0.008171759330687967
0.008171759330690661
0.008171759330688796
0.008171759330689837
0.008171759330689239
0.008171759330695895
0.008171759330687922
0.008171759330686642
0.008171759330691898
0.008171759330691166
0.008171759330696098
0.008171759330697071
0.008171759330703221
0.008171759330702728
0.008171759330710734
0.008171759330699779
0.008171759330698402
0.00817175933070141
0.008171759330700112
0.008171759330702626
0.008171759330699677
0.008171759330693373