/*--------------------------------*- C++ -*----------------------------------*\
| =========                 |                                                 |
| \\      /  F ield         | OpenFOAM: The Open Source CFD Toolbox           |
|  \\    /   O peration     | Version:  v1812                                 |
|   \\  /    A nd           | Web:      www.OpenFOAM.com                      |
|    \\/     M anipulation  |                                                 |
\*---------------------------------------------------------------------------*/
FoamFile
{
    version     2.0;
    format      ascii;
    class       volScalarField;
    location    "20000";
    object      p;
}
// * * * * * * * * * * * * * * * * * * * * * * * * * * * * * * * * * * * * * //

dimensions      [0 2 -2 0 0 0 0];


internalField   nonuniform List<scalar> 
3770
(
8.137262090512828e-17
3.349577263461947e-13
7.539343862131531e-13
5.14821935292857e-13
9.635872837300989e-13
8.191900969135504e-13
1.152703978283357e-12
1.034071367319211e-12
1.316139938032354e-12
1.244599405013743e-12
1.427755999417249e-12
1.399823745528743e-12
1.552325362888498e-12
1.519091546174363e-12
1.630610770997534e-12
1.649229740336779e-12
1.726738468507858e-12
1.717851860730136e-12
1.820575729749917e-12
1.8011821600397e-12
1.853225063029086e-12
1.883347148542632e-12
1.921182297872469e-12
1.91652953288561e-12
1.998880604189676e-12
1.995546097323225e-12
2.038019791810969e-12
2.037093299617509e-12
2.067548326834637e-12
2.105056546160918e-12
2.127211746538984e-12
2.121787167734888e-12
2.17747185300604e-12
2.185534861649295e-12
2.211107711350713e-12
2.205703744170012e-12
2.223362487717435e-12
2.258152445974779e-12
2.262904052856797e-12
2.254253688494546e-12
2.299350141596081e-12
2.283358415584149e-12
2.285300642097493e-12
2.312255311317602e-12
2.305743174990378e-12
2.287436344298064e-12
2.317252054871149e-12
2.30374243641196e-12
2.303208007964552e-12
2.278695099201552e-12
2.270998675575632e-12
2.292225970618291e-12
2.286181735067677e-12
2.294616182906537e-12
2.371537153833838e-12
2.463236343220026e-12
2.475120081933546e-12
2.627346113230008e-12
3.86975735538049e-17
3.324728462742702e-13
7.546568324266368e-13
5.147252737490707e-13
9.635091840433408e-13
8.192846512104578e-13
1.152674136732138e-12
1.034046624298004e-12
1.316107053348901e-12
1.244719520100427e-12
1.427710189985096e-12
1.399883030594974e-12
1.552328202145253e-12
1.51914836405018e-12
1.630506977420518e-12
1.649229203987469e-12
1.72683760516804e-12
1.717775011583971e-12
1.820581518362473e-12
1.801280310705544e-12
1.853100815418151e-12
1.883379239554553e-12
1.921282232380303e-12
1.916435578910303e-12
1.998822067482945e-12
1.995589803318453e-12
2.038074156746527e-12
2.037128299313338e-12
2.067454001227349e-12
2.10510019837801e-12
2.127319013399722e-12
2.121703303903381e-12
2.177418367600596e-12
2.185563657848709e-12
2.211120824605216e-12
2.205749798651836e-12
2.223293913865425e-12
2.258134360703942e-12
2.262994633443856e-12
2.254203630898994e-12
2.299352852422656e-12
2.283424191668228e-12
2.285220575357546e-12
2.312253779602168e-12
2.305814943786721e-12
2.287350233834599e-12
2.317220106001203e-12
2.303805945351269e-12
2.303241351308606e-12
2.278752662282962e-12
2.270925449368623e-12
2.292179786581678e-12
2.286193975234393e-12
2.294530267617829e-12
2.371380577757104e-12
2.463227361671372e-12
2.475000569664726e-12
2.629647223290841e-12
1.404604847363815e-16
3.283804400725681e-13
7.557372259096072e-13
5.146500012578922e-13
9.633376048260165e-13
8.193894885821225e-13
1.152400800117996e-12
1.034001360617032e-12
1.316143745125521e-12
1.244900516610126e-12
1.427661621389907e-12
1.399881527951017e-12
1.552243542772486e-12
1.519274446180309e-12
1.630477217494785e-12
1.64930773383511e-12
1.726790577940085e-12
1.717652358973965e-12
1.820655214076839e-12
1.801346405240058e-12
1.853094092014596e-12
1.883453139064263e-12
1.921275191901605e-12
1.916321622837917e-12
1.998806512990208e-12
1.99567413643723e-12
2.038143398600288e-12
2.037077920991868e-12
2.067464140176043e-12
2.105277285009695e-12
2.127297273462689e-12
2.121612136572061e-12
2.177498044374776e-12
2.185565167776739e-12
2.211174049541152e-12
2.205733123066952e-12
2.223229126213487e-12
2.258188188016314e-12
2.262988320770803e-12
2.254128235950545e-12
2.299452100942045e-12
2.283440594791505e-12
2.285154345672371e-12
2.312281233532531e-12
2.30574174713568e-12
2.287263807607521e-12
2.317373276069791e-12
2.303929234246545e-12
2.303335994802593e-12
2.278737137433334e-12
2.270724175782648e-12
2.292185425942678e-12
2.286152145703596e-12
2.294321749111835e-12
2.371018759421296e-12
2.46304358735621e-12
2.4747882998688e-12
2.633690807573503e-12
1.828299088613568e-15
3.226481423803254e-13
7.570429957570084e-13
5.147622895504093e-13
9.62900962640027e-13
8.192666989627822e-13
1.1518623496773e-12
1.034401036965104e-12
1.316046912701561e-12
1.245004480282342e-12
1.427685079001271e-12
1.399731724291181e-12
1.552011997185204e-12
1.519647200101031e-12
1.630600966731144e-12
1.649156700841779e-12
1.726549871463394e-12
1.718038420332131e-12
1.820438775498469e-12
1.801217902867951e-12
1.853522714864442e-12
1.883227653026898e-12
1.921249358749986e-12
1.916736916580611e-12
1.998550494609598e-12
1.995652667548236e-12
2.03807962149292e-12
2.036966125982463e-12
2.068006438933031e-12
2.105264315104734e-12
2.127002994863868e-12
2.12189563300642e-12
2.177486084221846e-12
2.185447705008495e-12
2.211152262810497e-12
2.205644578873267e-12
2.223589052678581e-12
2.257896103198635e-12
2.262721744585758e-12
2.254494676244052e-12
2.299312834010029e-12
2.283370618177432e-12
2.28560208280124e-12
2.312031081519889e-12
2.305434174315749e-12
2.287551054035679e-12
2.317448573524433e-12
2.304006251375524e-12
2.303352835561483e-12
2.278501365509976e-12
2.270680717148838e-12
2.292230531326997e-12
2.285960213603483e-12
2.29413694818432e-12
2.370157881480001e-12
2.462429968569228e-12
2.474125686377261e-12
2.639320677070445e-12
5.460768729602433e-15
3.154774874003645e-13
7.582576614732012e-13
5.15242398846312e-13
9.622367937746948e-13
8.18480393809017e-13
1.151508147709573e-12
1.036058077223994e-12
1.315283112250169e-12
1.24455597153932e-12
1.428225107470832e-12
1.39957849976792e-12
1.551147977520713e-12
1.520181297868162e-12
1.631515559684183e-12
1.648077396487074e-12
1.726266769330546e-12
1.719628991360675e-12
1.819275110158466e-12
1.800773302817179e-12
1.854859168614991e-12
1.882187347205723e-12
1.921566634703888e-12
1.918536039744287e-12
1.997544491512715e-12
1.994964557398648e-12
2.037614289258947e-12
2.037028492635022e-12
2.069781159790476e-12
2.1044498647189e-12
2.12655576853061e-12
2.123210389054054e-12
2.176881251928396e-12
2.184797120981474e-12
2.2106918357548e-12
2.205784898186176e-12
2.225088139624647e-12
2.256481973451658e-12
2.261992675876204e-12
2.255980383346532e-12
2.298485440402626e-12
2.283344382736719e-12
2.287353113054092e-12
2.311011294507561e-12
2.304977259856256e-12
2.288856139903474e-12
2.316872858644409e-12
2.303534837736289e-12
2.302913241387456e-12
2.27847241046375e-12
2.271781217231375e-12
2.291470203580447e-12
2.285651268600436e-12
2.295020134579461e-12
2.368275513057444e-12
2.460785406522331e-12
2.472439113700309e-12
2.646663664357782e-12
9.519652266888158e-15
3.073828135129029e-13
7.592219821310963e-13
5.159335729188169e-13
9.617343729556262e-13
8.171392761850385e-13
1.151554406472284e-12
1.038749568451002e-12
1.313749669559261e-12
1.243441031060931e-12
1.429156371968274e-12
1.399706166719023e-12
1.549692975840271e-12
1.520699205510303e-12
1.6333812221753e-12
1.646225487045203e-12
1.725966081619556e-12
1.721987277007017e-12
1.817295699036333e-12
1.800272780261266e-12
1.85711076703352e-12
1.880462495094548e-12
1.9220685416832e-12
1.921316432178762e-12
1.996027166998011e-12
1.99363663081965e-12
2.036696564992255e-12
2.037396563876276e-12
2.072464866011598e-12
2.10289111516274e-12
2.126157206615582e-12
2.12550301991521e-12
2.175845088377888e-12
2.183452209834246e-12
2.209750924849711e-12
2.206297272776751e-12
2.227470749852001e-12
2.254314357750936e-12
2.261258279132841e-12
2.258299272869946e-12
2.296915455449397e-12
2.283288877959629e-12
2.290039887609618e-12
2.309322908505919e-12
2.304557544541817e-12
2.291153427956464e-12
2.315787754805949e-12
2.302348581473409e-12
2.301969386905705e-12
2.278923916181554e-12
2.274100873409167e-12
2.28977962487228e-12
2.285284322115498e-12
2.297045309347748e-12
2.365713968751851e-12
2.458470064562816e-12
2.470115353092112e-12
2.655123467412333e-12
1.184856195442572e-14
2.98820218117274e-13
7.601479602666859e-13
5.165773399197537e-13
9.617889127917999e-13
8.15699177339486e-13
1.15187344077203e-12
1.041529201405686e-12
1.311850037875328e-12
1.242222080343111e-12
1.429875707389588e-12
1.399884853776953e-12
1.548422714707113e-12
1.521254451765538e-12
1.635503688669488e-12
1.644184252725799e-12
1.72581343527621e-12
1.724231154682314e-12
1.815076879072558e-12
1.800056996298435e-12
1.859654405387424e-12
1.878540219608258e-12
1.922603697047684e-12
1.924110215027038e-12
1.994473468337813e-12
1.992099172397577e-12
2.035639171902083e-12
2.038046482441855e-12
2.07508383584493e-12
2.101121631328909e-12
2.126014125599511e-12
2.127934794018873e-12
2.174740302596082e-12
2.181850439961902e-12
2.208682024520284e-12
2.207121307405614e-12
2.229866512981344e-12
2.25207261520866e-12
2.261042038741587e-12
2.260707039010601e-12
2.29500419861557e-12
2.283282509270218e-12
2.292705508747682e-12
2.307411241951473e-12
2.304452572456237e-12
2.29371036228788e-12
2.314522795446967e-12
2.300856196271569e-12
2.300947170073671e-12
2.279751580886543e-12
2.276660789545772e-12
2.287861938776188e-12
2.285108753971113e-12
2.299223290488402e-12
2.363145112011349e-12
2.456344349566769e-12
2.468174595820444e-12
2.663962789071765e-12
1.192848111505056e-14
2.902122728084665e-13
7.612250169031043e-13
5.172938760913236e-13
9.623511982168714e-13
8.14365748094229e-13
1.152203222325078e-12
1.04388726819192e-12
1.309903225033412e-12
1.241337881318104e-12
1.430226743285438e-12
1.399914544144037e-12
1.54765557952064e-12
1.52183013302932e-12
1.637400501613137e-12
1.642286700182534e-12
1.72588735260403e-12
1.726005771510785e-12
1.812999773855079e-12
1.800157500710299e-12
1.861943864704571e-12
1.876729495286794e-12
1.923215183351885e-12
1.926487025804182e-12
1.993037812463351e-12
1.990700877711138e-12
2.034750944771022e-12
2.038720574983745e-12
2.077175106111477e-12
2.099570205436217e-12
2.12614653324799e-12
2.129838325791831e-12
2.173730596642393e-12
2.180510248490155e-12
2.207696844935783e-12
2.20805644981073e-12
2.231912646670728e-12
2.250051622690816e-12
2.261243318048457e-12
2.262780078743995e-12
2.29320859865989e-12
2.283485232210563e-12
2.294960352630343e-12
2.305618155797044e-12
2.304696327719285e-12
2.295931715499182e-12
2.313144717870644e-12
2.299541598634316e-12
2.300195740928621e-12
2.280738390951906e-12
2.278904428694462e-12
2.286067757114941e-12
2.28524932160293e-12
2.301061119585617e-12
2.360860656053761e-12
2.454675661650306e-12
2.467006274590524e-12
2.67248574392847e-12
1.02322947899461e-14
2.821228186161038e-13
7.624860428876241e-13
5.181771845526632e-13
9.63103963833555e-13
8.131311662796337e-13
1.152452426944523e-12
1.04583744301181e-12
1.308059023483834e-12
1.240737044649506e-12
1.430337357428672e-12
1.399854526120767e-12
1.547217545278322e-12
1.522406640163555e-12
1.638995869656569e-12
1.640655741180307e-12
1.726104358578057e-12
1.727337823908715e-12
1.811198190182068e-12
1.800475229237476e-12
1.863861555386785e-12
1.875128548421869e-12
1.923889450296634e-12
1.92832203574497e-12
1.991676939066723e-12
1.989696347161594e-12
2.034164754326631e-12
2.039147596819138e-12
2.078692429670482e-12
2.098348637235149e-12
2.126576965805425e-12
2.131334979027528e-12
2.172672308428733e-12
2.179540856496355e-12
2.206931305354689e-12
2.208809632224877e-12
2.233631135157895e-12
2.248388134671493e-12
2.261678408491865e-12
2.264475962520672e-12
2.291651588670244e-12
2.283833257567514e-12
2.296822528099449e-12
2.304058973702601e-12
2.305163778531809e-12
2.297754786519852e-12
2.311709553968199e-12
2.298523695737446e-12
2.299793426001224e-12
2.281702038031544e-12
2.28077013623913e-12
2.284484698683939e-12
2.285610319892579e-12
2.302607636199815e-12
2.358869592976268e-12
2.453343613982001e-12
2.466653329483591e-12
2.679961735087647e-12
7.174962080436504e-15
2.752720865149286e-13
7.638979539268733e-13
5.190110315451254e-13
9.638723811237901e-13
8.120484342688163e-13
1.152595307702763e-12
1.047572092292804e-12
1.306363608141894e-12
1.240272769834888e-12
1.430381466352053e-12
1.399752332140195e-12
1.546853832974293e-12
1.523013316366013e-12
1.640340448161766e-12
1.639297754886639e-12
1.726401342018325e-12
1.728348621957375e-12
1.809652044643117e-12
1.800927779938673e-12
1.865469984304678e-12
1.873717355501173e-12
1.924625136892156e-12
1.929702715911108e-12
1.990322205073558e-12
1.989118470991338e-12
2.033784069109661e-12
2.039372253846682e-12
2.079935125300581e-12
2.097290467831893e-12
2.127213740022969e-12
2.132698991513951e-12
2.171473851367986e-12
2.178824950607475e-12
2.2063676024886e-12
2.209292872079242e-12
2.23515048360365e-12
2.247069404487165e-12
2.262225168554522e-12
2.265893921648464e-12
2.290321649683024e-12
2.284239506337622e-12
2.298412624920949e-12
2.302729670730622e-12
2.305740646591702e-12
2.299310958660115e-12
2.31037049867577e-12
2.297634428823258e-12
2.299583436997077e-12
2.282695027627796e-12
2.282355923066408e-12
2.28309218229744e-12
2.286073651657146e-12
2.303978347457374e-12
2.357008247712408e-12
2.452221652385433e-12
2.467200714195851e-12
2.685637867855985e-12
2.875265198484661e-15
2.704061451857252e-13
7.652706768689052e-13
5.194197991459444e-13
9.648272888465736e-13
8.11199696487821e-13
1.15263958216007e-12
1.049296134214078e-12
1.304851125371144e-12
1.239806443805928e-12
1.430405362906889e-12
1.399642832851723e-12
1.546394754829663e-12
1.52369618671694e-12
1.641472451134344e-12
1.638188245505036e-12
1.726792451849409e-12
1.729177142888487e-12
1.808276358048989e-12
1.801470425238484e-12
1.866864782720826e-12
1.87243561473861e-12
1.925415218100739e-12
1.930795728426295e-12
1.988916979629857e-12
1.988873544785826e-12
2.033480722860601e-12
2.039641927452741e-12
2.081204144943851e-12
2.096154198332658e-12
2.12785412087569e-12
2.133966004304151e-12
2.170281648184896e-12
2.178266366234328e-12
2.205876752427387e-12
2.209712980749183e-12
2.236576748700573e-12
2.245956598945032e-12
2.262828295908524e-12
2.267131777424584e-12
2.289175060534974e-12
2.284650511919079e-12
2.299831668601713e-12
2.301604741860343e-12
2.306379811128981e-12
2.300729205268804e-12
2.309224898196822e-12
2.29673370429364e-12
2.299410202168073e-12
2.283849900403064e-12
2.28377380988747e-12
2.28180482460629e-12
2.286588454941523e-12
2.30514929689491e-12
2.355012682919638e-12
2.451320071879693e-12
2.46883000403279e-12
2.688790605933648e-12
-1.988678651909642e-15
2.678179743780634e-13
7.661625022215949e-13
5.194912683604918e-13
9.660742784941664e-13
8.106614429828784e-13
1.152521264348709e-12
1.051139661039186e-12
1.303479389712583e-12
1.239331499005671e-12
1.430393208156063e-12
1.399632514070262e-12
1.545841310527399e-12
1.524384011462964e-12
1.642380709474615e-12
1.637326903549596e-12
1.727312691121856e-12
1.729952393576558e-12
1.806998761394799e-12
1.802093519907319e-12
1.868156325510298e-12
1.871240609311637e-12
1.92623901064536e-12
1.931752851428736e-12
1.987478061665267e-12
1.988799744118815e-12
2.033207175161922e-12
2.04014322345604e-12
2.082525751711604e-12
2.09483125973186e-12
2.12849417500601e-12
2.135206304171979e-12
2.169175689739911e-12
2.177687881535611e-12
2.205365164657104e-12
2.210334219357456e-12
2.23798817218354e-12
2.244894048617244e-12
2.263490785067223e-12
2.268273479778379e-12
2.288153892872261e-12
2.285053913982352e-12
2.30114187812572e-12
2.300655614212069e-12
2.307066019003171e-12
2.302087621706088e-12
2.308240648662525e-12
2.29588830707717e-12
2.299244990550426e-12
2.285154554296414e-12
2.285124392636293e-12
2.280543050251278e-12
2.287094309094892e-12
2.306074815771471e-12
2.352686673264283e-12
2.450511508171403e-12
2.471432999025574e-12
2.688745252074459e-12
-6.008316633543545e-15
2.673743541934553e-13
7.662526006536164e-13
5.19695662461501e-13
9.67334108518183e-13
8.105037682504312e-13
1.152171613541487e-12
1.053163533501192e-12
1.302088125007291e-12
1.239066783166822e-12
1.430301921380796e-12
1.399813486453503e-12
1.545293643122566e-12
1.525048515476793e-12
1.643195165706108e-12
1.636586246252718e-12
1.727904277499466e-12
1.730792115516656e-12
1.805789246545906e-12
1.80281748774234e-12
1.869432457610034e-12
1.870106778683708e-12
1.927054077337634e-12
1.932672491618397e-12
1.986036377232262e-12
1.988779526245273e-12
2.032945271373985e-12
2.040907021926799e-12
2.083884851839089e-12
2.093356083418622e-12
2.129151659056968e-12
2.136507224448276e-12
2.16817758167386e-12
2.176940789828187e-12
2.204814337879898e-12
2.211324124288209e-12
2.239417309296409e-12
2.243825168926628e-12
2.264240998445138e-12
2.269387738869928e-12
2.287162304942175e-12
2.285586357813392e-12
2.302401665659287e-12
2.299731034401939e-12
2.307819277615726e-12
2.303410821533354e-12
2.307281525618417e-12
2.295375630406791e-12
2.299196879702583e-12
2.286356346805117e-12
2.286478809894351e-12
2.279277026503163e-12
2.28743895433962e-12
2.306699647230713e-12
2.349988399894062e-12
2.449543695723244e-12
2.474344382683707e-12
2.684935401016893e-12
-7.854803413362975e-15
2.684486505890861e-13
7.654798933790106e-13
5.202212696753074e-13
9.684056258594209e-13
8.107262162952129e-13
1.151532216762185e-12
1.055377438557339e-12
1.300516623880784e-12
1.23939295113613e-12
1.43022024302721e-12
1.400098920145596e-12
1.544766390875221e-12
1.525970112699773e-12
1.64407342758199e-12
1.63567954292902e-12
1.728497772051304e-12
1.731755842484742e-12
1.804649826943185e-12
1.80364725605231e-12
1.870736241374526e-12
1.869081743208228e-12
1.927790112414379e-12
1.933636640118185e-12
1.984681766144575e-12
1.988706373785176e-12
2.032701503078416e-12
2.041895271690038e-12
2.085243225677653e-12
2.091836710057923e-12
2.129825504347656e-12
2.137865129197286e-12
2.167169251972906e-12
2.176210907013782e-12
2.204382390447651e-12
2.21249722319429e-12
2.240888320541288e-12
2.242845018214388e-12
2.265021966170522e-12
2.27052672690228e-12
2.286199282616539e-12
2.28637129720509e-12
2.303672586125965e-12
2.29869343418761e-12
2.308643917284127e-12
2.30471543328478e-12
2.306313462667947e-12
2.295329896306918e-12
2.299293155635088e-12
2.287324836092513e-12
2.287852703004693e-12
2.27795372802417e-12
2.287433763441566e-12
2.306904825781072e-12
2.346792680779838e-12
2.447897046706682e-12
2.476730646226396e-12
2.67788108903042e-12
-6.326385044385709e-15
2.692071026807473e-13
7.640048905069702e-13
5.210527824066683e-13
9.691205964271882e-13
8.11330181363469e-13
1.150616628589114e-12
1.057803922954796e-12
1.29876173379168e-12
1.240541831064453e-12
1.430225048345067e-12
1.400421097593291e-12
1.544261365004642e-12
1.527280454875662e-12
1.644960892884203e-12
1.634646937861202e-12
1.729096542079233e-12
1.732855314117254e-12
1.803614593982133e-12
1.804582648904772e-12
1.872017416958546e-12
1.868248114271332e-12
1.928415241376046e-12
1.934702036179497e-12
1.983477645735372e-12
1.98856866068744e-12
2.03251197443283e-12
2.043045753530018e-12
2.086543029993265e-12
2.090378460481168e-12
2.130508045192441e-12
2.139231136800038e-12
2.166059541079579e-12
2.175785352976974e-12
2.204195717814694e-12
2.213622336865083e-12
2.242404162956666e-12
2.242031099838645e-12
2.265776458120462e-12
2.271702702232661e-12
2.285363319937362e-12
2.287307080666526e-12
2.304974349880875e-12
2.297697984786442e-12
2.309515344395355e-12
2.306011400740214e-12
2.305420857405395e-12
2.295647873419921e-12
2.299473476130051e-12
2.288124803962137e-12
2.289156203118955e-12
2.276489863268571e-12
2.286934216917983e-12
2.306475429167293e-12
2.342810887049368e-12
2.444966106701911e-12
2.477773044035846e-12
2.66968917908027e-12
-3.980380314186622e-16
2.676469284797052e-13
7.621123229620303e-13
5.217408600222277e-13
9.69412582636167e-13
8.123514913789154e-13
1.149516949858663e-12
1.060471568352529e-12
1.297014535816777e-12
1.242434141189273e-12
1.430269112006853e-12
1.400991250638788e-12
1.543796017755685e-12
1.528797095384812e-12
1.645779068961049e-12
1.633844619092109e-12
1.729669379068306e-12
1.734029856663147e-12
1.802760520175714e-12
1.805655242424525e-12
1.873179257341791e-12
1.867688568355268e-12
1.929021745291379e-12
1.935788880719427e-12
1.982403440044531e-12
1.988479756886394e-12
2.032415133699866e-12
2.044293892488059e-12
2.087715033815685e-12
2.089120662437182e-12
2.131189230263205e-12
2.140572515710165e-12
2.164979458995498e-12
2.175600159350713e-12
2.204182603146087e-12
2.214769568703775e-12
2.243888116328077e-12
2.241432659978517e-12
2.266619677623028e-12
2.272858529559671e-12
2.284659518027895e-12
2.288381082939852e-12
2.306240575118619e-12
2.296937997644041e-12
2.310422563956722e-12
2.307270080308582e-12
2.304681467313053e-12
2.296217089714424e-12
2.299711197084094e-12
2.288798075250953e-12
2.29023659370717e-12
2.274850799389383e-12
2.28579098544064e-12
2.305070786104116e-12
2.337572281449256e-12
2.441015184180753e-12
2.476767776850705e-12
2.662344936085837e-12
1.027985535497966e-14
2.609213627494274e-13
7.6048540975932e-13
5.218956966037008e-13
9.693859817949085e-13
8.13899740808856e-13
1.148391412326439e-12
1.063381792146185e-12
1.295462115785507e-12
1.244963173729321e-12
1.430356563465386e-12
1.401976591831736e-12
1.543401179859134e-12
1.53042185845442e-12
1.646448119395001e-12
1.633545013301622e-12
1.730135789105466e-12
1.735194800795817e-12
1.802222600123128e-12
1.806858588604349e-12
1.874111879681023e-12
1.867498494878458e-12
1.929711700418301e-12
1.936764440935269e-12
1.981444786268336e-12
1.988620962960565e-12
2.032394358869928e-12
2.045573727822344e-12
2.088694427765677e-12
2.088214284680292e-12
2.131845293228677e-12
2.141831180883594e-12
2.16406601581441e-12
2.175623847287614e-12
2.204273658404863e-12
2.215939659249587e-12
2.245246228978066e-12
2.241136378834876e-12
2.267568219899644e-12
2.273929232691117e-12
2.284195007847338e-12
2.289576280130527e-12
2.307399133384442e-12
2.296566270189162e-12
2.31134250194794e-12
2.308427601526647e-12
2.304173052350412e-12
2.29696750441412e-12
2.300023378072063e-12
2.289343042149055e-12
2.290925495278122e-12
2.273064771513991e-12
2.28388960312724e-12
2.302452127463003e-12
2.330873859254927e-12
2.436090364169636e-12
2.472743287516298e-12
2.658835209156441e-12
2.540917851418633e-14
2.457569315870572e-13
7.60020660490451e-13
5.21453834084176e-13
9.692773756463978e-13
8.161384341426031e-13
1.147450328519199e-12
1.06646537266124e-12
1.294290361061231e-12
1.248032304372299e-12
1.430537175269036e-12
1.403446838482763e-12
1.543095136307497e-12
1.53211601279573e-12
1.646868825348576e-12
1.633875577612884e-12
1.730498340803316e-12
1.736304757544267e-12
1.802049144280221e-12
1.80819422580361e-12
1.874710709764684e-12
1.867758688057462e-12
1.930457525386164e-12
1.937567259105162e-12
1.980696948524847e-12
1.98914614157771e-12
2.032448332171713e-12
2.046783905073474e-12
2.089436531692589e-12
2.087749994069871e-12
2.132446161058437e-12
2.142963407466871e-12
2.163428169683369e-12
2.175852189735527e-12
2.204434745986443e-12
2.217054270857232e-12
2.246404581588723e-12
2.241287967882479e-12
2.268467306482097e-12
2.274905927641661e-12
2.284182336436688e-12
2.29079612327482e-12
2.308394784679137e-12
2.296703570152372e-12
2.312241278529113e-12
2.3094205092919e-12
2.30398310549112e-12
2.29785562984504e-12
2.300433056732151e-12
2.289752603310047e-12
2.291112906536189e-12
2.27121142269771e-12
2.281227050250073e-12
2.298620540063773e-12
2.322955787099615e-12
2.429518595723059e-12
2.464342183689942e-12
2.662904960740437e-12
4.434082360604621e-14
2.217536811552802e-13
7.609381987679976e-13
5.203130913762861e-13
9.693907828387157e-13
8.19087400860017e-13
1.146942785572453e-12
1.069670060503117e-12
1.293681524901922e-12
1.251490302433249e-12
1.430840297719776e-12
1.405386546407192e-12
1.542907727976644e-12
1.533843581842215e-12
1.6469974288789e-12
1.634852615008489e-12
1.730780296027633e-12
1.737329538097618e-12
1.802262670146925e-12
1.809642050765098e-12
1.874946052429588e-12
1.868536873893706e-12
1.931124795659301e-12
1.938171096370014e-12
1.980338628946718e-12
1.990073423851031e-12
2.032599696448264e-12
2.047852968812247e-12
2.089912717119302e-12
2.087776192470921e-12
2.132979171221821e-12
2.143925116044791e-12
2.163119815519446e-12
2.176269352792114e-12
2.204646253035333e-12
2.218040500749769e-12
2.24729164520342e-12
2.241935351576877e-12
2.269292866321197e-12
2.275769553351139e-12
2.284700176067677e-12
2.292010115131042e-12
2.309200423960422e-12
2.297406737553722e-12
2.313125917499429e-12
2.310213783864375e-12
2.304181763780562e-12
2.29886840534941e-12
2.300974860585936e-12
2.290039432550382e-12
2.290776669255333e-12
2.269360828877347e-12
2.277874044856863e-12
2.293640556011684e-12
2.313945539381294e-12
2.421158202218137e-12
2.451009579880767e-12
2.675325280158243e-12
6.631106271514213e-14
1.905283591731323e-13
7.631822772566726e-13
5.185401810545713e-13
9.69952287349068e-13
8.22700047179737e-13
1.147044560342123e-12
1.072986685283408e-12
1.29375811003658e-12
1.255198094776036e-12
1.431285499191294e-12
1.407726111502273e-12
1.542894707996647e-12
1.535563169533573e-12
1.646826696773544e-12
1.636478260683356e-12
1.730941037562221e-12
1.738263874506417e-12
1.802885147557995e-12
1.811178542334973e-12
1.874865972698789e-12
1.869810818572104e-12
1.931679602055984e-12
1.938546736364753e-12
1.980380563433691e-12
1.991372282841349e-12
2.032883544881272e-12
2.048801077292109e-12
2.090115637137335e-12
2.088276486059413e-12
2.133437077361236e-12
2.144723501819594e-12
2.16311675436957e-12
2.176832515399505e-12
2.204929141586355e-12
2.218850750782317e-12
2.247835013495154e-12
2.243041185679288e-12
2.270110894060586e-12
2.276513918386757e-12
2.285705279774894e-12
2.293271333271657e-12
2.309842708209658e-12
2.298675152362166e-12
2.313984504814055e-12
2.310888866404117e-12
2.30477885529955e-12
2.299942669147393e-12
2.30170550508161e-12
2.290254541503255e-12
2.289966045116998e-12
2.267595614044524e-12
2.273894128002727e-12
2.287615463231167e-12
2.30393959198747e-12
2.411097403814876e-12
2.432648471495361e-12
2.694612134557637e-12
9.076573725341763e-14
1.547989011433116e-13
7.664981930684106e-13
5.163911396780072e-13
9.710844969830321e-13
8.268848400503637e-13
1.147858137748547e-12
1.07639977081493e-12
1.294498459100952e-12
1.259039793636936e-12
1.431923322208545e-12
1.410416108390259e-12
1.543101488086236e-12
1.537297788135076e-12
1.646408893628551e-12
1.638654396053833e-12
1.731039403800563e-12
1.739096489125545e-12
1.803827259923933e-12
1.812809556667373e-12
1.87452277049187e-12
1.871509478770501e-12
1.932135796165516e-12
1.93868103097487e-12
1.980762077189655e-12
1.993015214193693e-12
2.033304722241322e-12
2.049675486000076e-12
2.090098699013205e-12
2.089204532020263e-12
2.133827908509032e-12
2.14538562230129e-12
2.163363754368191e-12
2.177444579538615e-12
2.205311573915612e-12
2.219491107576949e-12
2.248030767164436e-12
2.244542816289318e-12
2.270964472997213e-12
2.277160442462108e-12
2.287085930449286e-12
2.2946090535496e-12
2.310360553330658e-12
2.300470108961252e-12
2.314887685133528e-12
2.311524045874462e-12
2.305725978512237e-12
2.301033198099148e-12
2.302648490428811e-12
2.290463528055997e-12
2.288788741455946e-12
2.265893590338107e-12
2.269390867290818e-12
2.280675644509294e-12
2.292995790284839e-12
2.399487433067086e-12
2.409480254714377e-12
2.717981781693389e-12
1.172633735123615e-13
1.175902056457838e-13
7.704245595250184e-13
5.143322562512294e-13
9.728944315159152e-13
8.314359685202934e-13
1.149379324631387e-12
1.079980606123594e-12
1.295813827496024e-12
1.26291597621763e-12
1.432733639390092e-12
1.41347841247448e-12
1.543575637375049e-12
1.539216242417221e-12
1.645855792859917e-12
1.641085919551355e-12
1.731084669290014e-12
1.739914242517032e-12
1.804986089599004e-12
1.814498157593119e-12
1.874034820537403e-12
1.873464091807972e-12
1.932482139192556e-12
1.938699052935421e-12
1.98138258673418e-12
1.994926664384298e-12
2.033904557279072e-12
2.050525958605814e-12
2.089969208385762e-12
2.09039784018731e-12
2.134199638041914e-12
2.145994237768752e-12
2.163760492166208e-12
2.178070874781747e-12
2.205685885563723e-12
2.219985105347666e-12
2.248018819065582e-12
2.246280952243545e-12
2.271896210712638e-12
2.277774357426355e-12
2.288730044698148e-12
2.296022642103648e-12
2.310839949886844e-12
2.302685663468417e-12
2.31595627002363e-12
2.31224615926137e-12
2.30687229189168e-12
2.302033152368289e-12
2.303788375008293e-12
2.2908196050414e-12
2.287438924131023e-12
2.264139878529474e-12
2.264465215573747e-12
2.272993934974468e-12
2.281105995976867e-12
2.386559196107375e-12
2.381974849229998e-12
2.742109880448749e-12
1.452102215189943e-13
8.169395713583424e-14
7.746283498869155e-13
5.127886715626156e-13
9.755664856464529e-13
8.360695727399208e-13
1.151454211183216e-12
1.083831714980753e-12
1.297693909027739e-12
1.266910091217972e-12
1.433656568930479e-12
1.416826536328263e-12
1.544276440285603e-12
1.54148708273065e-12
1.645447161673076e-12
1.643401846944057e-12
1.731051015852648e-12
1.740857466767716e-12
1.80622544004031e-12
1.816147934719418e-12
1.873637677350775e-12
1.87548348488293e-12
1.93262130486528e-12
1.938824977922114e-12
1.982107434309934e-12
1.99700472282145e-12
2.034630701627633e-12
2.051396724713143e-12
2.089937710848944e-12
2.091678672107223e-12
2.134566728855158e-12
2.146638520994739e-12
2.16419966327868e-12
2.178662258903422e-12
2.206002250526045e-12
2.220371475891012e-12
2.247991503212201e-12
2.248065776894699e-12
2.272870349845944e-12
2.278526671846357e-12
2.290460169410642e-12
2.297446031063373e-12
2.311447526072488e-12
2.305173210735151e-12
2.317258472286353e-12
2.313279532537537e-12
2.30809507921768e-12
2.302862078759074e-12
2.304971757957e-12
2.291421841455232e-12
2.286179481328472e-12
2.262163970999311e-12
2.259198496763976e-12
2.264835666198501e-12
2.268247402639643e-12
2.372490642360864e-12