/*--------------------------------*- C++ -*----------------------------------*\
| =========                 |                                                 |
| \\      /  F ield         | OpenFOAM: The Open Source CFD Toolbox           |
|  \\    /   O peration     | Version:  v1812                                 |
|   \\  /    A nd           | Web:      www.OpenFOAM.com                      |
|    \\/     M anipulation  |                                                 |
\*---------------------------------------------------------------------------*/
FoamFile
{
    version     2.0;
    format      ascii;
    class       surfaceScalarField;
    location    "20000";
    object      phi;
}
// * * * * * * * * * * * * * * * * * * * * * * * * * * * * * * * * * * * * * //

dimensions      [0 3 -1 0 0 0 0];
oriented        oriented;


internalField   nonuniform List<scalar> 
7417
(
-0.0009176802174337296
2.027301042916084e-15
-0.0009176802174335303
-1.989625676629077e-16
-0.0009176802174331837
-3.454098205081122e-16
-0.0009176802174335779
3.953378803941805e-16
-0.0009176802174332106
-3.665512984678382e-16
-0.0009176802174334773
2.667523317799502e-16
-0.0009176802174332149
-2.623511392782808e-16
-0.0009176802174334396
2.243730799303921e-16
-0.0009176802174332079
-2.313524942707432e-16
-0.0009176802174333265
1.158735973481247e-16
-0.0009176802174332007
-1.208596737269452e-16
-0.0009176802174332624
6.250673542606649e-17
-0.000917680217433156
-1.065767207273152e-16
-0.0009176802174332066
5.003035661067368e-17
-0.0009176802174331627
-4.439824066127123e-17
-0.0009176802174331785
1.590820668765392e-17
-0.0009176802174331325
-4.596844212755143e-17
-0.0009176802174331886
5.612265853171382e-17
-0.0009176802174331206
-6.78160781917452e-17
-0.0009176802174331494
2.58305366203541e-17
-0.0009176802174331695
2.400448279116667e-17
-0.0009176802174331741
4.715342213374893e-18
-0.0009176802174331748
2.105932937054657e-19
-0.0009176802174332194
4.395644795770814e-17
-0.000917680217433172
-4.724941019069821e-17
-0.0009176802174331834
1.156170711913825e-17
-0.0009176802174331725
-1.064398678734216e-17
-0.0009176802174331751
2.579140488194458e-18
-0.0009176802174331995
2.451143572897509e-17
-0.0009176802174331892
-1.008910733222364e-17
-0.0009176802174331981
8.895195397066795e-18
-0.0009176802174332316
3.459780423083488e-17
-0.0009176802174331911
-4.146314509251508e-17
-0.0009176802174331954
4.491067879322177e-18
-0.0009176802174331984
2.957638315413587e-18
-0.0009176802174331937
-7.925256108954202e-18
-0.000917680217433217
2.712972089551495e-17
-0.0009176802174331903
-2.636386922385972e-17
-0.0009176802174331881
-2.105741140764897e-18
-0.000917680217433222
3.403123822375509e-17
-0.0009176802174331873
-3.51193588651336e-17
-0.0009176802174332004
1.851985798834999e-17
-0.0009176802174332298
2.433022646204574e-17
-0.0009176802174332015
-2.870097071731876e-17
-0.0009176802174332072
5.305591939776468e-18
-0.0009176802174332401
3.257900171187818e-17
-0.0009176802174331976
-4.291889038590654e-17
-0.0009176802174331839
-1.145769282359982e-17
-0.0009176802174331821
-4.653362537753196e-18
-0.0009176802174331714
-1.080111013446502e-17
-0.0009176802174331837
1.201967823648278e-17
-0.0009176802174331152
-6.83542761112573e-17
-0.0009176802174330685
-4.693128294005892e-17
-0.0009176802174330038
-6.544735055374655e-17
-0.0009176802174328619
-1.424529414306165e-16
-0.0009176802174325943
-2.676258338934695e-16
-0.0009176802174323654
-2.286948323236289e-16
-7.137850342673625e-16
-0.0008847494650082993
4.039000343277724e-15
-0.0008847494650079937
-5.044717612559379e-16
-0.0008847494650076735
-6.642022876995803e-16
-0.0008847494650080532
7.765085921981763e-16
-0.0008847494650076896
-7.290234941602768e-16
-0.0008847494650079546
5.314602660322656e-16
-0.0008847494650076791
-5.380162788254815e-16
-0.000884749465007934
4.78455301270038e-16
-0.0008847494650077275
-4.379835196338933e-16
-0.0008847494650078069
1.935386226110029e-16
-0.0008847494650076727
-2.488151359321009e-16
-0.0008847494650077015
9.265927106022249e-17
-0.0008847494650075896
-2.189949273227621e-16
-0.0008847494650075757
3.503266641124754e-17
-0.0008847494650075524
-6.850459455001066e-17
-0.0008847494650075787
4.239601801316354e-17
-0.0008847494650074941
-1.30259884029494e-16
-0.0008847494650075591
1.21218399798622e-16
-0.0008847494650075307
-9.5915841697361e-17
-0.0008847494650075084
1.09193777221347e-18
-0.0008847494650075538
7.374361145310091e-17
-0.000884749465007582
3.25223418763852e-17
-0.0008847494650075775
-5.307503768639999e-18
-0.0008847494650076495
1.148430294171838e-16
-0.0008847494650076501
-4.617170888464382e-17
-0.0008847494650076203
-1.761806392540472e-17
-0.000884749465007624
-6.709529261249295e-18
-0.0008847494650075827
-3.88011379515839e-17
-0.0008847494650076172
5.906062317915397e-17
-0.0008847494650076388
1.17667073984105e-17
-0.0008847494650076397
1.030717510173699e-17
-0.000884749465007702
9.797326002272819e-17
-0.0008847494650076846
-5.996591569950527e-17
-0.0008847494650076603
-2.005230077690959e-17
-0.0008847494650076866
2.922312217679512e-17
-0.0008847494650076476
-4.97342590489682e-17
-0.0008847494650076973
8.035327137136153e-17
-0.0008847494650077012
-2.214453414619569e-17
-0.0008847494650076654
-3.768932116394215e-17
-0.000884749465007711
7.978950560992684e-17
-0.0008847494650076987
-4.780702398195545e-17
-0.0008847494650076666
-8.593239713280996e-18
-0.000884749465007721
7.415380588369368e-17
-0.0008847494650077181
-3.221093880674209e-17
-0.0008847494650077079
-5.555409585948449e-18
-0.0008847494650077822
1.064030628746249e-16
-0.0008847494650077641
-6.129724201189487e-17
-0.0008847494650077037
-6.966087455006757e-17
-0.0008847494650077122
1.191139288716981e-18
-0.0008847494650076762
-4.694537855147803e-17
-0.0008847494650077125
4.811634713512479e-17
-0.0008847494650076325
-1.481659330403402e-16
-0.0008847494650075316
-1.481604782098487e-16
-0.0008847494650074545
-1.436235531836111e-16
-0.0008847494650072633
-3.346343402230366e-16
-0.0008847494650068636
-6.672918922885015e-16
-0.0008847494650065386
-5.534883964040444e-16
-9.659775289191478e-16
-0.0008297181621224487
5.801121405823769e-15
-0.0008297181621223685
-5.844106051290764e-16
-0.0008297181621218791
-1.15234271179038e-15
-0.0008297181621223234
1.221512788956756e-15
-0.0008297181621219454
-1.106153363479543e-15
-0.0008297181621222361
8.22168594325992e-16
-0.0008297181621218131
-9.608279267013936e-16
-0.00082971816212208
7.454581785468492e-16
-0.0008297181621220315
-4.860095595936814e-16
-0.0008297181621220723
2.315159580409545e-16
-0.0008297181621219067
-4.105966485699298e-16
-0.0008297181621219162
1.027121133982075e-16
-0.0008297181621217989
-3.362299645842861e-16
-0.0008297181621216783
-8.592868702662507e-17
-0.000829718162121712
-3.507083668621073e-17
-0.0008297181621218458
1.761962766110409e-16
-0.0008297181621215851
-3.910033669462364e-16
-0.0008297181621216385
1.745882388551349e-16
-0.0008297181621217747
4.032661315469627e-17
-0.000829718162121632
-1.443744761212967e-16
-0.0008297181621216957
1.407534952064035e-16
-0.0008297181621218077
1.447248236117995e-16
-0.000829718162121662
-1.510759524081201e-16
-0.0008297181621217593
2.116590523506377e-16
-0.0008297181621219797
1.741060091644939e-16
-0.0008297181621219063
-9.091627574300903e-17
-0.0008297181621219145
1.799010308994696e-18
-0.0008297181621217554
-1.980446194135427e-16
-0.0008297181621217587
6.251977954374087e-17
-0.0008297181621219155
1.687362651826594e-16
-0.0008297181621218215
-8.371213873099063e-17
-0.0008297181621219372
2.145646480795528e-16
-0.0008297181621221012
1.031994181376741e-16
-0.0008297181621220263
-9.480677421304473e-17
-0.0008297181621220884
9.131566107956738e-17
-0.0008297181621219451
-1.957031922287761e-16
-0.0008297181621220169
1.554125653526136e-16
-0.0008297181621222085
1.696604965402393e-16
-0.0008297181621220432
-2.027972728779855e-16
-0.0008297181621220689
1.055892361799754e-16
-0.0008297181621221856
6.839547117394797e-17
-0.0008297181621219873
-2.020720864907613e-16
-0.0008297181621220369
1.192683440366342e-16
-0.0008297181621221674
9.773107842832502e-17
-0.0008297181621220468
-1.262910603111037e-16
-0.0008297181621221857
2.450142488298889e-16
-0.0008297181621223577
1.102707004401376e-16
-0.0008297181621222551
-1.703243410559999e-16
-0.0008297181621222916
3.52083679129701e-17
-0.0008297181621221856
-1.532171684895148e-16
-0.0008297181621222578
1.200960220443183e-16
-0.0008297181621222858
-1.200713906057504e-16
-0.0008297181621220902
-3.440267676626881e-16
-0.0008297181621220957
-1.385981899889422e-16
-0.0008297181621220889
-3.41675024158534e-16
-0.0008297181621216324
-1.123863031576051e-15
-0.0008297181621212789
-9.069906031537601e-16
-1.556989844511936e-15
-0.0007823159770494254
6.868309260008302e-15
-0.0007823159770496688
-3.411077981566511e-16
-0.0007823159770490991
-1.720825068165585e-15
-0.0007823159770494147
1.538673458808057e-15
-0.0007823159770491027
-1.417123838888256e-15
-0.0007823159770493188
1.038027895680381e-15
-0.0007823159770488012
-1.478506321317383e-15
-0.0007823159770489127
8.560620727455943e-16
-0.000782315977049163
-2.361152859750866e-16
-0.0007823159770492037
2.71396597680405e-16
-0.0007823159770489727
-6.362611503505727e-16
-0.0007823159770489167
4.812738459076878e-17
-0.0007823159770489432
-3.103351962615598e-16
-0.0007823159770487573
-2.729693827428275e-16
-0.0007823159770487274
-6.569904002925098e-17
-0.0007823159770489898
4.388707451105335e-16
-0.0007823159770486336
-7.47095290974897e-16
-0.0007823159770486225
1.635197972075297e-16
-0.0007823159770489087
3.269852031597287e-16
-0.0007823159770486763
-3.783884530639778e-16
-0.0007823159770487098
1.776879123341556e-16
-0.0007823159770489128
3.47308926674274e-16
-0.000782315977048632
-4.328036854761577e-16
-0.0007823159770486512
2.295887327370763e-16
-0.0007823159770490912
6.144534942503991e-16
-0.0007823159770490882
-9.309507788077646e-17
-0.0007823159770490865
3.462169751814267e-19
-0.0007823159770488501
-4.346019264998303e-16
-0.0007823159770488012
1.372038644093223e-17
-0.000782315977049078
4.458834053756031e-16
-0.0007823159770488813
-2.799432285066799e-16
-0.0007823159770489156
2.49831768790784e-16
-0.0007823159770492645
4.513072422714321e-16
-0.0007823159770492479
-1.118011367692549e-16
-0.0007823159770493316
1.748898388795039e-16
-0.0007823159770490862
-4.431937061459347e-16
-0.0007823159770491179
1.901035164726137e-16
-0.0007823159770494658
5.17673650807434e-16
-0.0007823159770492533
-4.151264418429308e-16
-0.0007823159770492233
7.600098783323148e-17
-0.0007823159770494699
3.146125430041988e-16
-0.0007823159770491753
-4.929499548486271e-16
-0.0007823159770491665
1.069950414721325e-16
-0.0007823159770494125
3.43104671558504e-16
-0.0007823159770491978
-3.415074681792321e-16
-0.0007823159770493005
3.473048864114668e-16
-0.0007823159770496904
4.999037347450266e-16
-0.0007823159770496665
-1.925636930582785e-16
-0.00078231597704973
9.647252078992835e-17
-0.0007823159770494815
-4.017743955678295e-16
-0.0007823159770494403
7.881566149466724e-17
-0.0007823159770497334
1.731697140646583e-16
-0.0007823159770494813
-5.964921166320507e-16
-0.0007823159770494043
-2.167458430699948e-16
-0.0007823159770496688
-7.805655072220882e-17
-0.0007823159770494243
-1.368202824559625e-15
-0.0007823159770491735
-1.15773421306615e-15
-2.37348953679917e-15
-0.0007514042832771637
7.35045514160138e-15
-0.0007514042832774044
-1.000639525409227e-16
-0.0007514042832769633
-2.161121829065637e-15
-0.0007514042832770564
1.632013030764423e-15
-0.0007514042832767739
-1.699361094686895e-15
-0.0007514042832768567
1.121083417321273e-15
-0.0007514042832764909
-1.844046269768237e-15
-0.0007514042832765672
9.32748806355888e-16
-0.0007514042832767452
-5.771239195047177e-17
-0.0007514042832767663
2.907620402855512e-16
-0.0007514042832766743
-7.269214742577937e-16
-0.000751404283276576
-5.006833671376209e-17
-0.0007514042832766039
-2.821652895122866e-16
-0.0007514042832764511
-4.25567030918575e-16
-0.00075140428327638
-1.36938758351765e-16
-0.000751404283276526
5.84928204777085e-16
-0.0007514042832763397
-9.336982691759445e-16
-0.0007514042832763582
1.820646932789296e-16
-0.0007514042832765237
4.924175177398678e-16
-0.0007514042832763387
-5.650145830987182e-16
-0.0007514042832763691
2.095736148225569e-16
-0.0007514042832764924
4.709880605695205e-16
-0.0007514042832763615
-5.635244230225816e-16
-0.0007514042832764052
2.732239685371191e-16
-0.0007514042832766906
8.996943210232869e-16
-0.0007514042832767136
-7.021213669772391e-17
-0.0007514042832767188
5.703947852872326e-18
-0.0007514042832765581
-5.952089380436727e-16
-0.000751404283276603
5.866656726981088e-17
-0.0007514042832767452
5.881028992817381e-16
-0.0007514042832766276
-3.97783944159468e-16
-0.000751404283276631
2.537814225624922e-16
-0.0007514042832768598
6.796642944248832e-16
-0.0007514042832768849
-8.644810282159157e-17
-0.0007514042832769153
2.053320527569726e-16
-0.0007514042832767426
-6.172371421327873e-16
-0.0007514042832768059
2.550877020675567e-16
-0.0007514042832769572
6.691650092960722e-16
-0.0007514042832768135
-5.588106797924723e-16
-0.0007514042832768547
1.171774718897693e-16
-0.0007514042832770569
5.164772460167217e-16
-0.0007514042832769083
-6.387250318256663e-16
-0.0007514042832769691
1.653007829424744e-16
-0.0007514042832771256
4.99522403884031e-16
-0.0007514042832769875
-4.796485481525466e-16
-0.000751404283277029
3.886458158924491e-16
-0.0007514042832772993
7.697732495818513e-16
-0.0007514042832773577
-1.33044597888218e-16
-0.0007514042832773923
1.296969446198959e-16
-0.0007514042832771994
-5.948485897881603e-16
-0.0007514042832771912
7.035713698255462e-17
-0.0007514042832774016
3.837403380871594e-16
-0.0007514042832772377
-7.607412765252374e-16
-0.0007514042832771913
-2.631521820750846e-16
-0.0007514042832773642
9.491581072879234e-17
-0.0007514042832772429
-1.489658300682215e-15
-0.0007514042832771065
-1.294119130498878e-15
-2.797099227322759e-15
-0.0007356730520632828
7.269355421728695e-15
-0.0007356730520633539
-2.910412256401317e-17
-0.000735673052063098
-2.416094002746006e-15
-0.0007356730520629965
1.531605172837804e-15
-0.0007356730520627612
-1.93404689394138e-15
-0.0007356730520627464
1.106172514272977e-15
-0.0007356730520625964
-1.994278774239167e-15
-0.0007356730520626578
9.938151109070393e-16
-0.0007356730520626534
-6.23276231474219e-17
-0.000735673052062592
2.291893570863543e-16
-0.0007356730520626354
-6.804003326518013e-16
-0.0007356730520625785
-1.060950239778634e-16
-0.0007356730520625406
-3.202244181381095e-16
-0.0007356730520624585
-5.086066779849611e-16
-0.0007356730520624513
-1.44648926780253e-16
-0.0007356730520624085
5.423789085059442e-16
-0.0007356730520623873
-9.548086864925979e-16
-0.0007356730520624369
2.316794464637371e-16
-0.0007356730520624382
4.940273953552187e-16
-0.0007356730520623688
-6.351485442068028e-16
-0.0007356730520624525
2.951896122452509e-16
-0.0007356730520624435
4.617861462647183e-16
-0.0007356730520624856
-5.219770948941337e-16
-0.0007356730520625487
3.355622062039186e-16
-0.0007356730520626074
9.587448173379599e-16
-0.0007356730520626228
-5.438294244590152e-17
-0.0007356730520626367
1.972214515364019e-17
-0.0007356730520625927
-6.39373995571646e-16
-0.0007356730520627232
1.892310345338729e-16
-0.0007356730520626853
5.503645913864663e-16
-0.0007356730520626963
-3.862693072738294e-16
-0.0007356730520627496
3.074755749206513e-16
-0.000735673052062792
7.215109965045098e-16
-0.0007356730520627908
-8.767298053085942e-17
-0.000735673052062784
1.985585784863803e-16
-0.0007356730520627336
-6.687964063521707e-16
-0.0007356730520628428
3.659511613794362e-16
-0.0007356730520627993
6.25860493345893e-16
-0.0007356730520627856
-5.723951329969056e-16
-0.0007356730520628932
2.250147783588127e-16
-0.0007356730520629611
5.841285355260528e-16
-0.0007356730520629624
-6.356369920798198e-16
-0.0007356730520630904
2.91574463044274e-16
-0.0007356730520631069
5.155353080741647e-16
-0.0007356730520631027
-4.842104524045067e-16
-0.0007356730520631666
4.521726963785205e-16
-0.0007356730520632344
8.375042269723507e-16
-0.0007356730520632816
-8.515395211761056e-17
-0.0007356730520632977
1.446995714310448e-16
-0.00073567305206325
-6.426409267727713e-16
-0.0007356730520633396
1.59945062685971e-16
-0.0007356730520633567
4.009133384045379e-16
-0.0007356730520633046
-8.130718864903751e-16
-0.0007356730520633483
-2.204402267385038e-16
-0.0007356730520633464
9.25733458037742e-17
-0.0007356730520632815
-1.554466745061303e-15
-0.0007356730520632479
-1.327495222825488e-15
-2.68201082479889e-15
-0.0007342188220561843
6.639423622880232e-15
-0.0007342188220560669
-1.462725353896136e-16
-0.0007342188220559654
-2.517110690357288e-15
-0.0007342188220557403
1.306502419233189e-15
-0.000734218822055587
-2.087255986965965e-15
-0.0007342188220555178
1.037089553922864e-15
-0.0007342188220555098
-2.001920357057283e-15
-0.0007342188220555195
1.004022589698215e-15
-0.00073421882205541
-1.712703360266737e-16
-0.0007342188220553235
1.413830539235932e-16
-0.0007342188220553834
-6.206465983990829e-16
-0.0007342188220553346
-1.5495834737565e-16
-0.0007342188220553028
-3.517807822864325e-16
-0.0007342188220552779
-5.33092481221341e-16
-0.0007342188220553189
-1.036164260321749e-16
-0.0007342188220551617
3.851848083729404e-16
-0.0007342188220552381
-8.786172774492334e-16
-0.0007342188220552704
2.640842511746839e-16
-0.0007342188220551957
4.191611122654878e-16
-0.000734218822055215
-6.16762025294443e-16
-0.0007342188220553315
4.120140522199779e-16
-0.000734218822055245
3.754533499945565e-16
-0.0007342188220553759
-3.905480291460515e-16
-0.0007342188220554339
3.938372367074731e-16
-0.0007342188220553885
9.12939443334806e-16
-0.000734218822055364
-7.906962235056161e-17
-0.0007342188220553787
3.449662265890928e-17
-0.0007342188220554333
-5.846910978035099e-16
-0.0007342188220555799
3.359076177007559e-16
-0.0007342188220554529
4.233793013278731e-16
-0.0007342188220555446
-2.948806984828709e-16
-0.0007342188220556114
3.745495053112917e-16
-0.0007342188220555571
6.670035954315809e-16
-0.0007342188220555255
-1.190513099248771e-16
-0.0007342188220555154
1.885890774544268e-16
-0.0007342188220555618
-6.228966979419042e-16
-0.000734218822055674
4.788590815258704e-16
-0.0007342188220555496
5.015003589955035e-16
-0.0007342188220556531
-4.689879229746911e-16
-0.0007342188220557718
3.436587639071284e-16
-0.0007342188220557489
5.610298662297723e-16
-0.0007342188220558369
-5.462288315653493e-16
-0.0007342188220559741
4.275725030303927e-16
-0.0007342188220559098
4.512383394121587e-16
-0.0007342188220560065
-3.873904771626168e-16
-0.0007342188220560927
5.384128647513967e-16
-0.0007342188220560525
7.96965311161773e-16
-0.0007342188220560627
-7.460165402394767e-17
-0.0007342188220560843
1.657522426331203e-16
-0.0007342188220561583
-5.6869591514693e-16
-0.0007342188220562747
2.761725020001629e-16
-0.0007342188220561991
3.251951534204292e-16
-0.0007342188220562361
-7.760008915070742e-16
-0.0007342188220563077
-1.487460831667955e-16
-0.0007342188220562239
9.056533606123827e-18
-0.000734218822056223
-1.555517269744297e-15
-0.0007342188220562964
-1.254102776469391e-15
-2.162710442486635e-15
-0.0007508396377825426
5.542918206808986e-15
-0.0007508396377822794
-4.097124640518547e-16
-0.0007508396377822921
-2.503686215697473e-15
-0.0007508396377820162
1.031311182546646e-15
-0.0007508396377819338
-2.169213081352446e-15
-0.0007508396377818314
9.346201829889446e-16
-0.0007508396377818889
-1.944511859651513e-15
-0.0007508396377818381
9.5303838808902e-16
-0.000750839637781684
-3.25094264491726e-16
-0.000750839637781601
5.83890185946317e-17
-0.0007508396377816395
-5.80642450238777e-16
-0.000750839637781578
-2.159561633502075e-16
-0.0007508396377815872
-3.426552320631885e-16
-0.0007508396377815868
-5.339481166592571e-16
-0.0007508396377816365
-5.416050983810884e-17
-0.0007508396377814373
1.861368806398217e-16
-0.0007508396377815652
-7.50648275751281e-16
-0.0007508396377815573
2.561979446915442e-16
-0.0007508396377814723
3.344879772418279e-16
-0.0007508396377815437
-5.45769854646797e-16
-0.0007508396377816566
5.259136351610318e-16
-0.0007508396377815429
2.616998505252871e-16
-0.0007508396377817121
-2.215032141197238e-16
-0.0007508396377817571
4.38300715954294e-16
-0.0007508396377816802
8.36153162892261e-16
-0.0007508396377816269
-1.322550852464766e-16
-0.0007508396377816503
5.811117391549344e-17
-0.0007508396377817587
-4.762925000748683e-16
-0.0007508396377818824
4.597213036687486e-16
-0.0007508396377817426
2.836691143201419e-16
-0.0007508396377818619
-1.753431586639538e-16
-0.0007508396377818904
4.031508660678759e-16
-0.0007508396377818217
5.97939880217975e-16
-0.000750839637781793
-1.476460190848413e-16
-0.0007508396377817905
1.860285611001835e-16
-0.0007508396377818942
-5.197946483326796e-16
-0.0007508396377819879
5.7353696532693e-16
-0.0007508396377818551
3.687920880553972e-16
-0.0007508396377820255
-2.984154014322421e-16
-0.0007508396377821213
4.394825244922947e-16
-0.0007508396377820765
5.161459671922419e-16
-0.0007508396377822146
-4.072327837308301e-16
-0.0007508396377823299
5.41787119107315e-16
-0.000750839637782245
3.661915553625305e-16
-0.0007508396377824018
-2.308285968719731e-16
-0.0007508396377824706
6.070737601218596e-16
-0.0007508396377823858
7.119028682850543e-16
-0.0007508396377824019
-5.821656984283247e-17
-0.0007508396377824474
2.106439027336865e-16
-0.0007508396377825829
-4.332991676316569e-16
-0.0007508396377826913
3.846116979914849e-16
-0.0007508396377826029
2.366954120364466e-16
-0.0007508396377827036
-6.755997471213171e-16
-0.0007508396377827597
-9.343018465409567e-17
-0.000750839637782667
-8.397114843242358e-17
-0.0007508396377827323
-1.489866017467365e-15
-0.0007508396377828857
-1.100557241846505e-15
-1.410086816673979e-15
-0.0007938902703039317
4.095515950043135e-15
-0.0007938902703035876
-7.537443037911061e-16
-0.0007938902703036777
-2.413238207289552e-15
-0.0007938902703033891
7.42672229101401e-16
-0.0007938902703033391
-2.219247616271661e-15
-0.0007938902703032111
8.06878605570028e-16
-0.0007938902703032871
-1.868183146558172e-15
-0.0007938902703031791
8.455389918171456e-16
-0.000793890270303014
-4.898344983855263e-16
-0.0007938902703029306
-2.587503280560478e-17
-0.000793890270302951
-5.607677826514696e-16
-0.0007938902703028815
-2.856614434904478e-16
-0.0007938902703029245
-2.994958207340109e-16
-0.0007938902703029276
-5.304555257795782e-16
-0.0007938902703029684
-1.33695208933186e-17
-0.0007938902703027628
-1.937822014273742e-17
-0.0007938902703029147
-5.990066984611576e-16
-0.0007938902703028647
2.062196228934136e-16
-0.0007938902703028004
2.700876056724876e-16
-0.0007938902703028929
-4.538763811637412e-16
-0.0007938902703029927
6.256090718220288e-16
-0.0007938902703028821
1.513903074248025e-16
-0.0007938902703030669
-3.619603279640937e-17
-0.000793890270303079
4.505337446255033e-16
-0.000793890270303002
7.588910454746707e-16
-0.0007938902703029516
-1.828101480525505e-16
-0.0007938902703029993
1.060170564664299e-16
-0.0007938902703031053
-3.702198538211954e-16
-0.0007938902703031967
5.512216087085701e-16
-0.0007938902703030857
1.727093415476966e-16
-0.0007938902703032172
-4.432895757361119e-17
-0.0007938902703032046
3.908695454191143e-16
-0.0007938902703031402
5.334053046516897e-16
-0.0007938902703031317
-1.55877053478504e-16
-0.00079389027030315
2.044207434271594e-16
-0.0007938902703032704
-3.995147929877702e-16
-0.0007938902703033446
6.480880587878633e-16
-0.0007938902703032391
2.631188398983736e-16
-0.0007938902703034447
-9.301364970011621e-17
-0.0007938902703035118
5.065525371667634e-16
-0.0007938902703034795
4.836002517419857e-16
-0.0007938902703036449
-2.411233322172983e-16
-0.0007938902703037342
6.30597611614703e-16
-0.0007938902703036615
2.936126189445929e-16
-0.0007938902703038467
-4.547210667036167e-17
-0.0007938902703038834
6.438100882961552e-16
-0.0007938902703037917
6.197459678700555e-16
-0.0007938902703038425
-7.315878975235748e-18
-0.000793890270303919
2.869020943447117e-16
-0.0007938902703040719
-2.804859271398027e-16
-0.0007938902703041643
4.766423283819485e-16
-0.0007938902703040956
1.681345787660343e-16
-0.0007938902703042434
-5.277145640554752e-16
-0.0007938902703042893
-4.732578878541998e-17
-0.0007938902703042255
-1.475095866097021e-16
-0.0007938902703043281
-1.387412306084738e-15
-0.0007938902703045255
-9.031796039016251e-16
-5.550630298250746e-16
-0.0008746893374014374
2.393000954245374e-15
-0.000874689337401097
-1.094448632676923e-15
-0.0008746893374012192
-2.290570632260483e-15
-0.0008746893374009371
4.609167849704997e-16
-0.0008746893374008784
-2.277615371807936e-15
-0.0008746893374007276
6.561455216716184e-16
-0.0008746893374007956
-1.800430258042946e-15
-0.0008746893374006367
6.869141476316724e-16
-0.0008746893374004701
-6.558423379225181e-16
-0.0008746893374003811
-1.148601512775819e-16
-0.0008746893374003925
-5.486516600454214e-16
-0.0008746893374003135
-3.643697335341005e-16
-0.0008746893374003771
-2.359706677376234e-16
-0.0008746893374003772
-5.304122404914891e-16
-0.0008746893374004068
1.589321901543453e-17
-0.0008746893374002104
-2.156169945347958e-16
-0.0008746893374003665
-4.42877055724497e-16
-0.0008746893374002759
1.156996571751369e-16
-0.0008746893374002498
2.441678669938431e-16
-0.0008746893374003445
-3.595721040029607e-16
-0.0008746893374004332
7.14971104234202e-16
-0.0008746893374003386
5.695118724873876e-17
-0.0008746893374005275
1.526878314682641e-16
-0.0008746893374005072
4.29960331996661e-16
-0.0008746893374004409
6.926267402361365e-16
-0.0008746893374004096
-2.1427214638384e-16
-0.0008746893374004814
1.779749946329928e-16
-0.0008746893374005664
-2.850548219935346e-16
-0.000874689337400631
6.160298678922344e-16
-0.0008746893374005606
1.024910296351757e-16
-0.0008746893374007013
9.651984276769404e-17
-0.0008746893374006634
3.529071962138411e-16
-0.0008746893374006046
4.743328993905465e-16
-0.0008746893374006176
-1.425004205334673e-16
-0.0008746893374006622
2.4907836216826e-16
-0.0008746893374007758
-2.862852402698772e-16
-0.0008746893374008382
7.110516512051731e-16
-0.0008746893374007781
2.030622985243427e-16
-0.0008746893374009989
1.277741017772745e-16
-0.0008746893374010437
5.51613437839552e-16
-0.0008746893374010418
4.815194022984333e-16
-0.0008746893374012207
-6.167655180747129e-17
-0.0008746893374012918
7.010435373850953e-16
-0.0008746893374012441
2.456469396124787e-16
-0.0008746893374014408
1.510502552163602e-16
-0.0008746893374014515
6.545017236803929e-16
-0.0008746893374013792
5.471129241843332e-16
-0.0008746893374014659
7.951287583596784e-17
-0.0008746893374015696
3.900214724160159e-16
-0.0008746893374017279
-1.222843170107443e-16
-0.000874689337401807
5.558343135358497e-16
-0.0008746893374017719
1.331044412150688e-16
-0.000874689337401954
-3.459311959646538e-16
-0.0008746893374020075
5.595517586518413e-18
-0.0008746893374019832
-1.719648544762299e-16
-0.0008746893374021019
-1.26857242343719e-15
-0.0008746893374023128
-6.921138789325803e-16
2.715499758390713e-16
-0.001004323327818141
5.269540009612958e-16
-0.001004323327817929
-1.306936510426204e-15
-0.00100432332781802
-2.198996964199179e-15
-0.00100432332781774
1.806469864685434e-16
-0.001004323327817656
-2.362189229073718e-15
-0.001004323327817483
4.841775520503111e-16
-0.001004323327817522
-1.761958069198862e-15
-0.001004323327817321
4.870846807256581e-16
-0.001004323327817163
-8.136298509066355e-16
-0.001004323327817054
-2.245882924737985e-16
-0.00100432332781706
-5.434153551611549e-16
-0.001004323327816969
-4.55082739038042e-16
-0.001004323327817039
-1.657640951393087e-16
-0.001004323327817029
-5.403337890211366e-16
-0.001004323327817052
3.91014917582208e-17
-0.001004323327816872
-3.956865922930483e-16
-0.001004323327817023
-2.929192218669246e-16
-0.001004323327816902
-5.028365316587572e-18
-0.001004323327816915
2.56489806308617e-16
-0.001004323327817
-2.748053411173394e-16
-0.001004323327817083
7.980909226557406e-16
-0.001004323327817011
-1.520104280299364e-17
-0.001004323327817198
3.398648098520346e-16
-0.001004323327817148
3.805307929877638e-16
-0.001004323327817103
6.46937605361476e-16
-0.001004323327817096
-2.206348811950779e-16
-0.001004323327817185
2.663016413098249e-16
-0.001004323327817252
-2.180226363808886e-16
-0.001004323327817312
6.765500038525467e-16
-0.001004323327817273
6.310871463148879e-17
-0.001004323327817414
2.373242478683239e-16
-0.001004323327817359
2.982030194569989e-16
-0.001004323327817317
4.322533451438443e-16
-0.001004323327817352
-1.067569200772987e-16
-0.001004323327817422
3.18949848850561e-16
-0.001004323327817526
-1.816137942370304e-16
-0.001004323327817588
7.722037609808809e-16
-0.00100432332781758
1.949586436400183e-16
-0.001004323327817803
3.506395663447899e-16
-0.001004323327817835
5.845452850800172e-16
-0.001004323327817877
5.229880371223996e-16
-0.001004323327818057
1.190084677006923e-16
-0.001004323327818122
7.657925164891469e-16
-0.001004323327818112
2.349815459872336e-16
-0.00100432332781831
3.500369953950085e-16
-0.001004323327818307
6.509399042066599e-16
-0.001004323327818279
5.190911664742681e-16
-0.00100432332781839
1.908274115170917e-16
-0.001004323327818515
5.144985971011598e-16
-0.001004323327818685
4.796414503084197e-17
-0.001004323327818759
6.289757591024568e-16
-0.001004323327818767
1.415509485070163e-16
-0.001004323327818976
-1.368273902356789e-16
-0.001004323327819032
6.200895748022067e-17
-0.001004323327819039
-1.650284166906615e-16
-0.001004323327819171
-1.136479129148638e-15
-0.001004323327819374
-4.89305127508082e-16
9.065558646574451e-16
-0.00118892335050323
-1.313449109748791e-15
-0.001188923350503252
-1.285421516221804e-15
-0.001188923350503201
-2.249694432835191e-15
-0.001188923350502949
-7.14886482689154e-17
-0.00118892335050282
-2.490493245971314e-15
-0.001188923350502634
2.983200196178766e-16
-0.001188923350502618
-1.778322077152324e-15
-0.00118892335050239
2.596555129598985e-16
-0.001188923350502239
-9.641168115502988e-16
-0.001188923350502097
-3.660159772258296e-16
-0.001188923350502096
-5.451285101337602e-16
-0.001188923350501996
-5.54397078844795e-16