/*--------------------------------*- C++ -*----------------------------------*\
| =========                 |                                                 |
| \\      /  F ield         | OpenFOAM: The Open Source CFD Toolbox           |
|  \\    /   O peration     | Version:  v1812                                 |
|   \\  /    A nd           | Web:      www.OpenFOAM.com                      |
|    \\/     M anipulation  |                                                 |
\*---------------------------------------------------------------------------*/
FoamFile
{
    version     2.0;
    format      ascii;
    class       volVectorField;
    location    "20000";
    object      U;
}
// * * * * * * * * * * * * * * * * * * * * * * * * * * * * * * * * * * * * * //

dimensions      [0 1 -1 0 0 0 0];


internalField   nonuniform List<vector> 
3770
(
(-0.9685383194130464 5.563605063748939e-14 -9.297000829378358e-08)
(-0.9685383194135561 -9.374638734711233e-15 -9.296987989787492e-08)
(-0.968538319413165 -7.969053998063797e-15 -9.296942357998378e-08)
(-0.9685383194133511 1.105010074677208e-14 -9.296990957530018e-08)
(-0.9685383194133287 -1.036166141036724e-14 -9.296933134211248e-08)
(-0.9685383194131694 8.150743774415591e-15 -9.296994117827546e-08)
(-0.9685383194133899 -7.57292681913531e-15 -9.296921392996173e-08)
(-0.9685383194130637 6.51271506173226e-15 -9.296998968486419e-08)
(-0.968538319413459 -6.565926706319159e-15 -9.296909355033296e-08)
(-0.9685383194129333 4.125138309611228e-15 -9.297003045752031e-08)
(-0.9685383194134266 -3.87230606902441e-15 -9.296898842324717e-08)
(-0.9685383194128659 2.696732728957225e-15 -9.2970052279621e-08)
(-0.9685383194133814 -2.822406416063909e-15 -9.296890430255996e-08)
(-0.9685383194128176 2.279215387261925e-15 -9.29700532647832e-08)
(-0.9685383194133441 -1.632519816665397e-15 -9.296884060106442e-08)
(-0.968538319412828 2.905287531606047e-16 -9.29700355797323e-08)
(-0.9685383194132976 -1.018767915812396e-15 -9.296879433772262e-08)
(-0.9685383194128161 1.654507909137249e-15 -9.29700026794361e-08)
(-0.9685383194133116 -2.207596005588899e-15 -9.296876200922028e-08)
(-0.9685383194127832 1.448536135574469e-15 -9.296995809534195e-08)
(-0.9685383194132963 -2.641582949318563e-16 -9.296874035861632e-08)
(-0.9685383194128492 -4.618782771080228e-16 -9.296990498558227e-08)
(-0.9685383194132918 3.238256117106518e-16 -9.296872663146257e-08)
(-0.9685383194128973 1.364134574803376e-15 -9.296984602376134e-08)
(-0.9685383194133164 -1.728285812443662e-15 -9.296871862436487e-08)
(-0.9685383194128679 5.323363881874025e-16 -9.296978342719013e-08)
(-0.9685383194132775 -5.695836602310012e-16 -9.29687146511263e-08)
(-0.9685383194128967 7.848140766353724e-16 -9.296971903019579e-08)
(-0.9685383194132523 1.025922096022638e-16 -9.29687134921263e-08)
(-0.9685383194129507 -8.073402223474069e-16 -9.29696543789283e-08)
(-0.9685383194132381 3.094529463427118e-16 -9.296871435386532e-08)
(-0.9685383194129858 8.558876251757137e-16 -9.296959081817697e-08)
(-0.9685383194132614 -1.267490444807291e-15 -9.296871683690939e-08)
(-0.9685383194129443 3.652212361856425e-16 -9.296952959168611e-08)
(-0.968538319413245 -1.498515671311874e-16 -9.296872092896399e-08)
(-0.9685383194129733 2.33473481186225e-16 -9.296947193162593e-08)
(-0.9685383194132213 4.378881230121167e-16 -9.296872701066217e-08)
(-0.9685383194130128 -7.830520502332318e-16 -9.296941916321196e-08)
(-0.9685383194131785 2.563108368376844e-16 -9.296873588469471e-08)
(-0.9685383194130205 9.493771417573383e-16 -9.296937280189041e-08)
(-0.9685383194132043 -8.9849674389183e-16 -9.296874880891315e-08)
(-0.968538319412995 9.077537808532664e-16 -9.296933463948994e-08)
(-0.9685383194132146 3.096823358156853e-16 -9.296876751986072e-08)
(-0.9685383194130393 -8.526441351611732e-16 -9.29693067846152e-08)
(-0.9685383194131791 1.599034516808798e-16 -9.296879417028189e-08)
(-0.9685383194130617 4.469768929535553e-16 -9.29692915601193e-08)
(-0.9685383194132097 -1.381716794829664e-15 -9.296883106359596e-08)
(-0.9685383194130035 -6.616314615195327e-17 -9.296929105490075e-08)
(-0.9685383194131609 -3.123390071182428e-16 -9.296887986434882e-08)
(-0.9685383194130199 2.052908398167096e-16 -9.296930585981885e-08)
(-0.9685383194131325 5.180383717510054e-16 -9.296893937408836e-08)
(-0.9685383194130257 -1.177774302337209e-15 -9.296933156860346e-08)
(-0.9685383194130119 -7.397129176038655e-16 -9.296900262579397e-08)
(-0.9685383194129316 -1.183963891349826e-15 -9.296935832374543e-08)
(-0.9685383194128485 -2.56227764949501e-15 -9.296903093180391e-08)
(-0.9685383194126275 -5.27280827287819e-15 -9.296921962300203e-08)
(-0.9685383194123588 -4.708302231851251e-15 -9.296901912471855e-08)
(-0.9685383194113458 -2.560279400569485e-14 -9.296991307246385e-08)
(-0.933667677950946 1.33640680976207e-13 -1.920716907808412e-07)
(-0.9336676779509486 -1.29253674296917e-14 -1.920718513635474e-07)
(-0.9336676779507656 -2.296470248223594e-14 -1.920709781169385e-07)
(-0.9336676779507332 2.534995364839758e-14 -1.920720024551109e-07)
(-0.9336676779509845 -2.317353662333992e-14 -1.920706964828745e-07)
(-0.9336676779504814 1.710363598052863e-14 -1.920721280639332e-07)
(-0.9336676779511088 -1.593103490109789e-14 -1.920704235460962e-07)
(-0.9336676779502888 1.357935698052449e-14 -1.920722355499815e-07)
(-0.933667677951295 -1.451486066775993e-14 -1.920701823841957e-07)
(-0.9336676779501645 7.686441853278646e-15 -1.92072302592091e-07)
(-0.9336676779512174 -8.552207662010154e-15 -1.920699870784011e-07)
(-0.9336676779500531 3.743828551156301e-15 -1.920723231773312e-07)
(-0.933667677951126 -6.232369264841796e-15 -1.920698377104762e-07)
(-0.93366767794997 2.653911119271882e-15 -1.920723011778e-07)
(-0.9336676779509719 -2.853698551557098e-15 -1.920697281531604e-07)
(-0.9336676779500093 1.541175395805937e-18 -1.920722439715076e-07)
(-0.933667677950959 -1.8827788863105e-15 -1.920696506703148e-07)
(-0.9336676779499045 3.496685049727675e-15 -1.920721593605401e-07)
(-0.9336676779510052 -4.580180052312748e-15 -1.92069597895988e-07)
(-0.9336676779499407 1.891795447845017e-15 -1.920720543816578e-07)
(-0.933667677950892 6.774725395636655e-16 -1.920695635128961e-07)
(-0.9336676779500569 -7.023564553407022e-16 -1.920719349887044e-07)
(-0.933667677950939 1.346967611929547e-15 -1.920695423802799e-07)
(-0.9336676779500881 3.224273179259139e-15 -1.920718060769165e-07)
(-0.9336676779510308 -3.367188807480738e-15 -1.920695304677957e-07)
(-0.9336676779501507 -4.531151133543311e-17 -1.920716716278071e-07)
(-0.9336676779509134 -1.102607552725871e-16 -1.920695247280806e-07)
(-0.9336676779502033 5.682077915272716e-16 -1.920715348908922e-07)
(-0.9336676779507995 9.195550510309047e-16 -1.920695229756021e-07)
(-0.9336676779502781 -1.13924941289311e-15 -1.920713985637586e-07)
(-0.9336676779508518 1.741737216562099e-15 -1.920695237940824e-07)
(-0.9336676779502943 2.4270175078203e-15 -1.92071264964007e-07)
(-0.9336676779509422 -3.527853119355029e-15 -1.92069526476213e-07)
(-0.9336676779502954 -1.723124649227245e-16 -1.92071136204995e-07)
(-0.9336676779508691 9.880636214273111e-16 -1.920695309982824e-07)
(-0.9336676779503705 6.512176998224362e-17 -1.92071014368193e-07)
(-0.9336676779507752 1.553589018313173e-15 -1.92069538034811e-07)
(-0.9336676779504669 -2.212680447924264e-15 -1.920709016900909e-07)
(-0.9336676779507946 5.414494952890833e-16 -1.920695490117244e-07)
(-0.9336676779504025 2.443081799971456e-15 -1.920708007584211e-07)
(-0.9336676779508509 -1.967751458553057e-15 -1.920695661949727e-07)
(-0.9336676779504182 1.94739272981835e-15 -1.920707147073041e-07)
(-0.933667677950768 1.928894403633173e-15 -1.920695927904774e-07)
(-0.9336676779505174 -1.835012599451878e-15 -1.92070647390751e-07)
(-0.9336676779507833 7.827560266725556e-16 -1.92069632990649e-07)
(-0.9336676779505049 1.532250861996797e-15 -1.920706034311983e-07)
(-0.9336676779509063 -3.817908481378069e-15 -1.920696918382844e-07)
(-0.9336676779504937 -1.585423241169579e-15 -1.920705879218714e-07)
(-0.9336676779507616 -2.118892385174817e-16 -1.920697745573405e-07)
(-0.9336676779505295 -1.78814057986521e-16 -1.92070605278796e-07)
(-0.9336676779506805 1.331943275644927e-15 -1.920698844070351e-07)
(-0.9336676779505885 -4.831871217031911e-15 -1.920706561292459e-07)
(-0.9336676779505328 -3.739426894630633e-15 -1.920700202751439e-07)
(-0.933667677950379 -5.581254336715369e-15 -1.920707350712473e-07)
(-0.9336676779503469 -1.108725465412812e-14 -1.920701373049621e-07)
(-0.9336676779499713 -1.973885801823209e-14 -1.920707192798904e-07)
(-0.9336676779495694 -1.768778942825481e-14 -1.920705024588021e-07)
(-0.9336676779485897 -3.813143841925702e-14 -1.920718182033999e-07)
(-0.8752343128503661 2.33978732397359e-13 -3.516500139890949e-07)
(-0.8752343128500992 -2.875974342724038e-14 -3.516503252074122e-07)
(-0.8752343128507097 -3.934891018241653e-14 -3.516483290464298e-07)
(-0.8752343128495863 4.657937457870398e-14 -3.516508469625286e-07)
(-0.8752343128509955 -4.247112389106497e-14 -3.516476541367074e-07)
(-0.8752343128493654 3.31689894125905e-14 -3.516511485417431e-07)
(-0.8752343128511231 -3.460780838829378e-14 -3.516471521114203e-07)
(-0.8752343128489068 2.481075828489574e-14 -3.516512961309788e-07)
(-0.8752343128512927 -2.353453824892388e-14 -3.516467898221665e-07)
(-0.8752343128491519 1.519161051627842e-14 -3.516513212542298e-07)
(-0.8752343128511058 -1.619955459885581e-14 -3.51646534990699e-07)
(-0.8752343128489938 4.647945644170384e-15 -3.51651254907703e-07)
(-0.8752343128509559 -1.376739421922283e-14 -3.516463594282583e-07)
(-0.8752343128489181 -2.112937338866361e-16 -3.516511220393688e-07)
(-0.875234312850561 -3.125854162251744e-15 -3.516462414467701e-07)
(-0.8752343128490888 3.69870052120326e-15 -3.516509414919143e-07)
(-0.8752343128507662 -9.179770651220196e-15 -3.516461647981963e-07)
(-0.8752343128486215 4.968603343336471e-15 -3.51650727440814e-07)
(-0.8752343128507772 -2.452528982384491e-15 -3.516461172621546e-07)
(-0.8752343128490163 1.895606301134988e-16 -3.516504906637859e-07)
(-0.8752343128504023 3.410521862599843e-15 -3.516460895676228e-07)
(-0.8752343128491733 2.226444558726907e-15 -3.516502394647433e-07)
(-0.8752343128506255 -3.362653229600403e-15 -3.516460746657605e-07)
(-0.8752343128489115 5.134743866281473e-15 -3.516499802837968e-07)
(-0.8752343128507626 1.750975313947323e-15 -3.516460672543824e-07)
(-0.8752343128494451 -1.432638590690847e-15 -3.516497181368909e-07)
(-0.8752343128505468 6.760880196510617e-16 -3.516460634356772e-07)
(-0.8752343128495126 -2.855408996007623e-15 -3.51649456966251e-07)
(-0.8752343128501813 1.364422497306316e-15 -3.516460604802122e-07)
(-0.8752343128495215 3.873916502792726e-15 -3.51649199905802e-07)
(-0.8752343128505194 8.070895483446132e-16 -3.516460566597016e-07)
(-0.8752343128493394 5.596003480794457e-15 -3.516489495309708e-07)
(-0.8752343128507174 -1.323001082789738e-15 -3.516460511434819e-07)
(-0.8752343128497283 -3.524925511063951e-15 -3.51648708088401e-07)
(-0.8752343128505341 4.53745370482094e-15 -3.516460439395486e-07)
(-0.8752343128498818 -2.192479569590686e-15 -3.516484777313984e-07)
(-0.8752343128502187 3.338018832936536e-15 -3.516460359006874e-07)
(-0.8752343128500235 1.693278310998505e-15 -3.516482607657711e-07)
(-0.8752343128506366 -3.581855351268214e-15 -3.516460287999062e-07)
(-0.8752343128496866 3.186280720901592e-15 -3.516480599417575e-07)
(-0.875234312850646 1.124416251660469e-15 -3.516460255009257e-07)
(-0.8752343128499795 -9.872346610750733e-16 -3.516478788052344e-07)
(-0.8752343128502105 3.888933595553914e-15 -3.516460302336248e-07)
(-0.8752343128500669 9.655979531906005e-16 -3.516477221769075e-07)
(-0.8752343128505092 -2.458183055588204e-15 -3.516460490429723e-07)
(-0.8752343128498238 4.639387131172106e-15 -3.516475967979144e-07)
(-0.8752343128507641 -9.450452059469387e-17 -3.516460905055696e-07)
(-0.8752343128502165 -5.001121363327624e-15 -3.516475122832323e-07)
(-0.8752343128505282 1.649922369487012e-15 -3.516461668395601e-07)
(-0.8752343128503133 -2.767265536523271e-15 -3.516474825481728e-07)
(-0.875234312850299 1.042443880992293e-15 -3.516462955101633e-07)
(-0.8752343128504461 -7.27958812957519e-15 -3.516475283286759e-07)
(-0.8752343128503813 -9.04937553886425e-15 -3.516465042500457e-07)
(-0.8752343128500376 -1.082796425745569e-14 -3.516476835738064e-07)
(-0.8752343128503672 -2.135309596673475e-14 -3.516467750739624e-07)
(-0.8752343128500184 -4.242258077642187e-14 -3.516479372014958e-07)
(-0.8752343128494792 -3.186022048358534e-14 -3.516478138465619e-07)
(-0.8752343128484916 -5.471639330533203e-14 -3.516498972186872e-07)
(-0.8242046086370711 3.02329423728119e-13 -4.854229181366004e-07)
(-0.8242046086361751 -2.20152649507797e-14 -4.854242551167485e-07)
(-0.8242046086380409 -6.681088375567439e-14 -4.854197501387785e-07)
(-0.8242046086354538 6.735253030566251e-14 -4.854250907645009e-07)
(-0.8242046086381123 -5.839265199134523e-14 -4.854189057231605e-07)
(-0.824204608635318 4.308851030027577e-14 -4.854253272749698e-07)
(-0.8242046086381268 -5.603532914705165e-14 -4.854184271423142e-07)
(-0.8242046086346209 3.560234476137858e-14 -4.854253063687345e-07)
(-0.8242046086380068 -2.040271188237418e-14 -4.854181420760261e-07)
(-0.8242046086354627 1.806559867384261e-14 -4.854251389263879e-07)
(-0.8242046086378456 -2.048771639479913e-14 -4.854179716291166e-07)
(-0.8242046086351494 2.618511067721478e-15 -4.854248831034154e-07)
(-0.8242046086375736 -1.76100754813938e-14 -4.854178721508052e-07)
(-0.8242046086353587 -1.129629802607327e-14 -4.854245722396864e-07)
(-0.8242046086370568 -4.169248783599676e-15 -4.854178177135084e-07)
(-0.8242046086353862 1.533021997596563e-14 -4.854242269125281e-07)
(-0.8242046086375394 -2.60251861237772e-14 -4.854177917057408e-07)
(-0.8242046086347106 7.65936608173521e-15 -4.854238608002983e-07)
(-0.8242046086374245 8.431988823877376e-15 -4.854177827563455e-07)
(-0.8242046086354105 -1.021996115667596e-14 -4.854234835347171e-07)
(-0.8242046086368681 8.797340208732187e-15 -4.854177827196693e-07)
(-0.8242046086355014 9.559655706573854e-15 -4.85423102155266e-07)
(-0.8242046086372818 -1.802342880238773e-14 -4.854177856510097e-07)
(-0.8242046086349508 8.759068928569667e-15 -4.854227218647706e-07)
(-0.8242046086372629 2.046593292423084e-14 -4.85417787242505e-07)
(-0.8242046086359397 -2.295132339632646e-15 -4.854223465002015e-07)
(-0.8242046086372017 -1.17161621184467e-16 -4.854177844531462e-07)
(-0.8242046086359811 -1.332464248220821e-14 -4.854219788794467e-07)
(-0.8242046086366764 2.040104500916344e-15 -4.85417775266882e-07)
(-0.8242046086358809 1.52612328568992e-14 -4.854216210365246e-07)
(-0.8242046086372662 -8.400961066530804e-15 -4.85417758504451e-07)
(-0.8242046086354806 1.140485641468815e-14 -4.854212744553964e-07)
(-0.8242046086372975 1.219790371352488e-14 -4.854177337063697e-07)
(-0.8242046086362546 -9.645194908447502e-15 -4.854209402598718e-07)
(-0.8242046086372384 8.158828208032882e-15 -4.854177010390672e-07)
(-0.8242046086364518 -1.0720027026681e-14 -4.85420619418993e-07)
(-0.8242046086367094 7.311084353760892e-15 -4.854176612749522e-07)
(-0.8242046086365106 1.552145993297271e-14 -4.854203129358697e-07)
(-0.8242046086374524 -1.523781958866302e-14 -4.854176158196767e-07)
(-0.8242046086360747 3.7940922972821e-15 -4.854200220928408e-07)
(-0.8242046086373496 9.236914915511521e-15 -4.854175668543906e-07)
(-0.8242046086366361 -1.459292825391309e-14 -4.854197487597153e-07)
(-0.8242046086367133 7.340765366236204e-15 -4.854175175924805e-07)
(-0.8242046086366028 1.002564207279691e-14 -4.854194958790356e-07)
(-0.8242046086372524 -1.404134627182013e-14 -4.854174727956854e-07)
(-0.8242046086361583 1.29571469409372e-14 -4.85419268239583e-07)
(-0.8242046086374345 1.744098318198468e-14 -4.854174397656156e-07)
(-0.8242046086370093 -1.00995258452001e-14 -4.854190738854536e-07)
(-0.824204608637366 3.286319853902525e-15 -4.854174302196901e-07)
(-0.8242046086371612 -1.25067512081081e-14 -4.854189267966564e-07)
(-0.8242046086368374 9.918160577814103e-16 -4.854174639338713e-07)
(-0.8242046086370558 2.874315222105527e-15 -4.854188523251156e-07)
(-0.8242046086374768 -1.780134532773716e-14 -4.854175776671124e-07)
(-0.8242046086365286 -9.178090733043567e-15 -4.854189010084574e-07)
(-0.8242046086372916 -1.506568280556909e-14 -4.854177968975099e-07)
(-0.8242046086370806 -6.31934959427017e-14 -4.854191000340305e-07)
(-0.8242046086368463 -4.886392588322825e-14 -4.854187817416796e-07)
(-0.8242046086358377 -9.389194733242305e-14 -4.854214244326513e-07)
(-0.7889252258599934 3.404642626784294e-13 -5.740961150328679e-07)
(-0.788925225857722 -7.634070739224074e-15 -5.741000878951334e-07)
(-0.7889252258608604 -9.328687542004e-14 -5.740921123773149e-07)
(-0.7889252258571889 7.823032954721012e-14 -5.741007056929845e-07)
(-0.7889252258605741 -7.184493218469726e-14 -5.740915362775116e-07)
(-0.7889252258570187 4.801118371493983e-14 -5.741005973669398e-07)
(-0.7889252258603913 -7.571326096052979e-14 -5.740913039804702e-07)
(-0.7889252258565682 4.152611156380967e-14 -5.741002868022233e-07)
(-0.7889252258602657 -1.618685807069332e-14 -5.740912061072199e-07)
(-0.7889252258571937 1.653424735669583e-14 -5.740998847587602e-07)
(-0.7889252258601087 -1.957799727996873e-14 -5.740911744658499e-07)
(-0.788925225857145 2.947103136874402e-15 -5.740994364554167e-07)
(-0.7889252258597733 -1.976577778141148e-14 -5.740911776193001e-07)
(-0.7889252258573315 -2.255097132100414e-14 -5.740989646016483e-07)
(-0.78892522585935 -5.589177303283028e-15 -5.740911985308012e-07)
(-0.7889252258572563 2.548365658632604e-14 -5.740984823744253e-07)
(-0.7889252258595992 -3.915590560919403e-14 -5.740912266764232e-07)
(-0.7889252258569245 8.970831763623759e-15 -5.740979983227492e-07)
(-0.7889252258595649 1.873117259179063e-14 -5.740912549491724e-07)
(-0.7889252258573484 -2.061810482407346e-14 -5.740975183609404e-07)
(-0.7889252258591236 1.164574063715215e-14 -5.74091278336761e-07)
(-0.7889252258574322 1.714495500416554e-14 -5.740970466642556e-07)
(-0.7889252258593676 -2.825815239898641e-14 -5.740912933065504e-07)
(-0.7889252258571917 1.064298343152509e-14 -5.740965861189116e-07)
(-0.7889252258594122 3.77197719848141e-14 -5.740912974564727e-07)
(-0.788925225857838 -4.467133082110803e-16 -5.740961386137114e-07)
(-0.7889252258594186 -5.933773679268553e-16 -5.740912892630267e-07)
(-0.788925225857886 -2.543031027847825e-14 -5.740957052730425e-07)
(-0.7889252258590574 3.695058115156176e-15 -5.740912678938631e-07)
(-0.7889252258579847 2.399329574469241e-14 -5.740952866238734e-07)
(-0.7889252258593595 -1.557871968248863e-14 -5.740912330472954e-07)
(-0.7889252258577487 1.552369452261888e-14 -5.740948827639772e-07)
(-0.7889252258593353 2.740266800813663e-14 -5.740911848323123e-07)
(-0.7889252258582595 -1.198698263866295e-14 -5.740944934855449e-07)
(-0.7889252258593685 7.76019153862487e-15 -5.740911236733602e-07)
(-0.7889252258583401 -2.025244061082524e-14 -5.740941184037837e-07)
(-0.788925225858996 1.084583004649387e-14 -5.740910502477554e-07)
(-0.7889252258584668 2.667357581124399e-14 -5.740937570553164e-07)
(-0.7889252258593226 -2.491639806634569e-14 -5.740909654615136e-07)
(-0.7889252258581729 5.085117121340353e-15 -5.740934090280832e-07)
(-0.7889252258593774 1.957566879423523e-14 -5.740908704844644e-07)
(-0.7889252258586313 -2.611300980975768e-14 -5.740930741052284e-07)
(-0.7889252258590523 9.663576251624518e-15 -5.740907668589529e-07)
(-0.7889252258587479 2.011218692328697e-14 -5.740927525221603e-07)
(-0.7889252258593983 -2.371997624467753e-14 -5.74090656771382e-07)
(-0.7889252258584639 1.615434434927219e-14 -5.740924454032753e-07)
(-0.7889252258594577 3.364777857951405e-14 -5.740905436346075e-07)
(-0.7889252258590553 -8.50598967931559e-15 -5.74092155629799e-07)
(-0.7889252258595661 2.77597360294989e-15 -5.740904333000333e-07)
(-0.7889252258591423 -2.245491537132529e-14 -5.740918896440121e-07)
(-0.7889252258591565 5.185505136906331e-15 -5.740903366230895e-07)
(-0.7889252258591117 1.070034256430911e-14 -5.740916613001876e-07)
(-0.7889252258596143 -2.88495787018555e-14 -5.740902758248586e-07)
(-0.7889252258587706 -5.90632242429489e-15 -5.740915029165065e-07)
(-0.788925225859501 -3.169230758628023e-15 -5.740902811582315e-07)
(-0.7889252258591266 -7.368298019662853e-14 -5.740914213101862e-07)
(-0.7889252258593047 -6.174163156966817e-14 -5.740907167772037e-07)
(-0.7889252258582566 -1.256500745655471e-13 -5.740932285811283e-07)
(-0.7658144255861155 3.446835780569442e-13 -6.297117532837534e-07)
(-0.7658144255822942 -6.763834485810502e-16 -6.297191265718568e-07)
(-0.7658144255865353 -1.091110541854877e-13 -6.297079688121611e-07)
(-0.7658144255820732 7.803852850534103e-14 -6.297191682616288e-07)
(-0.7658144255859478 -8.349476164266321e-14 -6.297078293371985e-07)
(-0.7658144255819133 4.911551195729871e-14 -6.297186736926707e-07)
(-0.7658144255856385 -8.752640112217117e-14 -6.297078629554441e-07)
(-0.7658144255818481 4.223808284260945e-14 -6.297181043170771e-07)
(-0.7658144255855468 -1.081631940056101e-14 -6.297079361336737e-07)
(-0.7658144255820299 1.467671716824749e-14 -6.297175155789634e-07)
(-0.7658144255852666 -2.225366908487039e-14 -6.297080198255562e-07)
(-0.7658144255822318 5.19837289169581e-16 -6.297169247650473e-07)
(-0.7658144255850526 -1.812677147115366e-14 -6.297081027298062e-07)
(-0.7658144255822453 -2.649208052001972e-14 -6.297163398605639e-07)
(-0.7658144255848023 -6.563199221272534e-15 -6.297081787415227e-07)
(-0.7658144255822908 2.734272098168164e-14 -6.297157657377016e-07)
(-0.7658144255846638 -4.445816439765305e-14 -6.29708243756467e-07)
(-0.7658144255822951 9.804756246105716e-15 -6.297152058110697e-07)
(-0.7658144255847151 2.264473703641704e-14 -6.297082948191567e-07)
(-0.7658144255823551 -2.585057400020891e-14 -6.297146624844512e-07)
(-0.7658144255845243 1.444731478467088e-14 -6.297083298651045e-07)
(-0.7658144255825494 2.068513510395431e-14 -6.297141372995773e-07)
(-0.765814425584494 -2.961599845252589e-14 -6.297083476001748e-07)
(-0.7658144255826618 1.047866825003462e-14 -6.29713631053352e-07)
(-0.7658144255845886 4.591388574880186e-14 -6.297083473793131e-07)
(-0.7658144255828226 2.008429521723091e-15 -6.297131439130054e-07)
(-0.7658144255845867 -2.152629292203456e-16 -6.297083290703196e-07)
(-0.7658144255828794 -3.128682780703208e-14 -6.297126755434405e-07)
(-0.7658144255844755 6.221687571704465e-15 -6.297082929183634e-07)
(-0.7658144255831578 2.67541343631908e-14 -6.297122252195769e-07)
(-0.7658144255843965 -1.756577208222326e-14 -6.29708239424889e-07)
(-0.76581442558319 1.591771361416463e-14 -6.297117919282704e-07)
(-0.765814425584486 3.422538244067579e-14 -6.297081692270319e-07)
(-0.7658144255832992 -9.586298867576031e-15 -6.297113744410886e-07)
(-0.7658144255844676 8.15326661564641e-15 -6.297080830189792e-07)
(-0.765814425583299 -2.659019623578327e-14 -6.297109713667546e-07)
(-0.7658144255843553 1.399680084162434e-14 -6.297079814612196e-07)
(-0.7658144255835259 2.965209476317451e-14 -6.297105811809228e-07)
(-0.7658144255842652 -2.630604725237631e-14 -6.297078651215267e-07)
(-0.7658144255835047 8.265384479249355e-15 -6.297102022452098e-07)
(-0.7658144255844709 2.506495514849436e-14 -6.297077344160354e-07)
(-0.7658144255836657 -3.004730227384461e-14 -6.297098328054516e-07)
(-0.7658144255844621 1.196571429469087e-14 -6.297075895801969e-07)
(-0.7658144255839312 2.386523956704681e-14 -6.297094710101474e-07)
(-0.7658144255845047 -2.560265525827553e-14 -6.297074306673974e-07)
(-0.7658144255839257 1.938307841069601e-14 -6.297091149635525e-07)
(-0.7658144255846204 4.012899596298622e-14 -6.297072576300305e-07)
(-0.7658144255840827 -5.348579833574167e-15 -6.297087628904917e-07)
(-0.7658144255847078 5.072819621343434e-15 -6.29707070591814e-07)
(-0.7658144255841265 -2.87550012472394e-14 -6.297084135894893e-07)
(-0.7658144255846052 6.58015449032303e-15 -6.297068705515452e-07)
(-0.7658144255843051 1.66030416366163e-14 -6.297080675634958e-07)
(-0.76581442558465 -3.51175944563506e-14 -6.297066614645192e-07)
(-0.7658144255841987 -8.452187417689028e-15 -6.297077313562224e-07)
(-0.7658144255847317 2.746066205993848e-15 -6.297064511730834e-07)
(-0.7658144255841869 -7.366056161656803e-14 -6.297073843909477e-07)
(-0.7658144255846435 -6.344898044617476e-14 -6.297063659607787e-07)
(-0.7658144255836588 -1.323335263449017e-13 -6.29708315629164e-07)
(-0.749670238487518 3.248401699437764e-13 -6.668314645562791e-07)
(-0.7496702384824033 -3.904737037873919e-15 -6.668418709725656e-07)
(-0.749670238487491 -1.164854933823981e-13 -6.668283512175217e-07)
(-0.7496702384824473 7.107145242286611e-14 -6.668413198906025e-07)
(-0.7496702384867323 -9.236343273664586e-14 -6.668286024265335e-07)
(-0.7496702384823967 4.67048690474289e-14 -6.668405147231841e-07)
(-0.7496702384863652 -9.123171126043085e-14 -6.668288430608096e-07)
(-0.7496702384825795 4.307785076772477e-14 -6.668397543679295e-07)
(-0.7496702384862126 -1.171815547635023e-14 -6.668290411588425e-07)
(-0.7496702384825066 1.261817440731282e-14 -6.668390337325298e-07)
(-0.7496702384859122 -2.300242668601955e-14 -6.668292057554102e-07)
(-0.7496702384827202 -4.640573830167012e-15 -6.668383450993121e-07)
(-0.7496702384857378 -1.688602836779549e-14 -6.668293425047913e-07)
(-0.749670238482728 -2.735935559209723e-14 -6.668376846115151e-07)
(-0.7496702384856221 -5.59310446925085e-15 -6.668294538194692e-07)
(-0.7496702384828615 2.23937216099108e-14 -6.668370508063388e-07)
(-0.749670238485264 -4.332756646271313e-14 -6.668295404616121e-07)
(-0.7496702384830525 1.158319044232631e-14 -6.668364432154384e-07)
(-0.7496702384852907 2.137506793547838e-14 -6.668296026447449e-07)
(-0.7496702384829416 -2.697285626070488e-14 -6.668358615476181e-07)
(-0.7496702384852987 1.798674309191858e-14 -6.668296406080995e-07)
(-0.7496702384831956 1.828373665891412e-14 -6.668353052854949e-07)
(-0.7496702384851091 -2.406122543853108e-14 -6.668296548451625e-07)
(-0.7496702384834821 1.425209651388993e-14 -6.66834773573944e-07)
(-0.7496702384852035 4.633639462429154e-14 -6.668296461316397e-07)
(-0.7496702384834155 -1.40700125430405e-17 -6.668342652270721e-07)
(-0.7496702384851286 2.603763855055726e-16 -6.668296154628436e-07)
(-0.749670238483467 -3.045348033294365e-14 -6.668337787786626e-07)
(-0.7496702384852263 1.171093119161207e-14 -6.668295639620748e-07)
(-0.7496702384837715 2.322685816878257e-14 -6.668333125592293e-07)
(-0.7496702384849651 -1.519950964665811e-14 -6.668294927853102e-07)
(-0.7496702384839644 1.706673086037268e-14 -6.668328647476161e-07)
(-0.7496702384850856 3.364881167365099e-14 -6.668294030139399e-07)
(-0.7496702384838714 -7.784778893419731e-15 -6.668324333996346e-07)
(-0.7496702384850087 7.87548439889259e-15 -6.668292955902914e-07)
(-0.7496702384838594 -2.8103630881633e-14 -6.66832016449515e-07)
(-0.7496702384850975 1.917022644894172e-14 -6.668291712199882e-07)
(-0.7496702384840902 2.58075894662764e-14 -6.668316116859672e-07)
(-0.7496702384848442 -2.39078432898367e-14 -6.66829030291266e-07)
(-0.7496702384843053 1.330152287337559e-14 -6.668312166899821e-07)
(-0.7496702384850721 2.647353565931383e-14 -6.668288727605161e-07)
(-0.7496702384842754 -2.780559060857885e-14 -6.668308287310006e-07)
(-0.7496702384852434 1.714140686531391e-14 -6.668286980222797e-07)
(-0.7496702384845536 2.256523463350012e-14 -6.668304446096117e-07)
(-0.7496702384851172 -2.191232496894206e-14 -6.668285047094239e-07)
(-0.749670238484755 2.28754632787552e-14 -6.668300604197961e-07)
(-0.7496702384852814 3.872310802385202e-14 -6.668282903945227e-07)
(-0.7496702384846831 -3.372077948017984e-15 -6.668296711680046e-07)
(-0.7496702384852941 7.217984092169008e-15 -6.668280511197413e-07)
(-0.7496702384847361 -2.844586450395993e-14 -6.668292701451649e-07)
(-0.7496702384854409 1.07611049270804e-14 -6.668277805683625e-07)
(-0.7496702384849697 1.631428546805949e-14 -6.668288478037196e-07)
(-0.7496702384852916 -3.672136741961121e-14 -6.668274686387052e-07)
(-0.7496702384850482 -8.960594922756233e-15 -6.668283902769853e-07)
(-0.7496702384854327 1.326592060279057e-15 -6.668270980510066e-07)
(-0.7496702384848682 -7.140667226759505e-14 -6.668278522936526e-07)
(-0.7496702384854715 -6.049746382472437e-14 -6.668266603451472e-07)
(-0.7496702384846473 -1.157824607976412e-13 -6.668280451213217e-07)
(-0.7372903303323418 2.8303451552912e-13 -6.93948147349035e-07)
(-0.737290330326393 -1.417983410469263e-14 -6.939607151883914e-07)
(-0.7372903303320006 -1.170502717681641e-13 -6.939456537954012e-07)
(-0.7372903303266379 5.873005302273326e-14 -6.939597068117171e-07)
(-0.7372903303312012 -9.811938921631028e-14 -6.939461896559966e-07)
(-0.737290330326701 4.326511018366805e-14 -6.939586812363969e-07)
(-0.7372903303308076 -9.027188734180868e-14 -6.93946573626345e-07)
(-0.7372903303269829 4.268906833111898e-14 -6.939577880779913e-07)
(-0.737290330330562 -1.630445000264914e-14 -6.939468566695287e-07)
(-0.7372903303268057 8.43943938676005e-15 -6.939569760446961e-07)
(-0.7372903303302952 -2.263775654860553e-14 -6.939470754722191e-07)
(-0.7372903303269601 -8.498413595674382e-15 -6.93956219952014e-07)
(-0.7372903303301086 -1.634752819152783e-14 -6.93947247212222e-07)
(-0.7372903303270409 -2.724978330755076e-14 -6.939555080282759e-07)
(-0.7372903303300524 -3.277316502525788e-15 -6.939473799789431e-07)
(-0.7372903303271811 1.417617474807261e-14 -6.939548345531171e-07)
(-0.7372903303296282 -3.894870230748149e-14 -6.939474778788357e-07)
(-0.7372903303274633 1.229833532088668e-14 -6.93954196323518e-07)
(-0.73729033032958 1.812990278692327e-14 -6.939475434340819e-07)
(-0.737290330327331 -2.486715043760267e-14 -6.939535910361224e-07)
(-0.7372903303296918 2.261623432282563e-14 -6.939475786570526e-07)
(-0.7372903303275697 1.311080964311099e-14 -6.939530165739566e-07)
(-0.7372903303294553 -1.568896478618534e-14 -6.939475854676415e-07)
(-0.7372903303279196 1.733744357034183e-14 -6.9395247076915e-07)
(-0.7372903303295203 4.258639742942966e-14 -6.939475657958911e-07)
(-0.7372903303277927 -2.449749904393973e-15 -6.939519513633676e-07)
(-0.7372903303293952 1.495152681542855e-15 -6.939475215586462e-07)
(-0.7372903303278572 -2.645311673663356e-14 -6.939514560074843e-07)