/*--------------------------------*- C++ -*----------------------------------*\
| =========                 |                                                 |
| \\      /  F ield         | OpenFOAM: The Open Source CFD Toolbox           |
|  \\    /   O peration     | Version:  v1812                                 |
|   \\  /    A nd           | Web:      www.OpenFOAM.com                      |
|    \\/     M anipulation  |                                                 |
\*---------------------------------------------------------------------------*/
FoamFile
{
    version     2.0;
    format      ascii;
    class       volVectorField;
    location    "20000";
    object      wallShearStress;
}
// * * * * * * * * * * * * * * * * * * * * * * * * * * * * * * * * * * * * * //

dimensions      [0 2 -2 0 0 0 0];


internalField   uniform (0 0 0);

boundaryField
{
    inlet
    {
        type            cyclic;
    }
    outlet
    {
        type            cyclic;
    }
    bottomWall
    {
        type            calculated;
        value           nonuniform List<vector> 
58
(
(-0.0005942139758528125 -1.705361865192616e-15 1.755916315742716e-09)
(-0.0005942139758431644 2.197951395791699e-16 1.755913890740542e-09)
(-0.0005942139758505704 2.288533541981998e-16 1.755905272304942e-09)
(-0.0005942139758470499 -3.008191545046931e-16 1.755914451255452e-09)
(-0.0005942139758474735 2.859548893293949e-16 1.755903530216429e-09)
(-0.0005942139758504852 -2.136277069611035e-16 1.755915048138053e-09)
(-0.0005942139758463178 2.052365550582441e-16 1.755901312663531e-09)
(-0.0005942139758524817 -1.735525283231563e-16 1.755915964277702e-09)
(-0.0005942139758450106 1.832986459182464e-16 1.755899039064138e-09)
(-0.0005942139758549447 -9.94318743908629e-17 1.755916734347251e-09)
(-0.0005942139758456236 1.068007339230721e-16 1.755897053538177e-09)
(-0.0005942139758562179 -6.167277668806287e-17 1.755917146499337e-09)
(-0.0005942139758464777 7.772276743749886e-17 1.755895464758206e-09)
(-0.00059421397585713 -5.226127201502739e-17 1.755917165106008e-09)
(-0.000594213975847182 3.969882344211054e-17 1.7558942616337e-09)
(-0.0005942139758569354 -9.264087980931186e-19 1.755916831090019e-09)
(-0.0005942139758480617 2.72673870264346e-17 1.75589338786206e-09)
(-0.0005942139758571594 -4.358648046105488e-17 1.755916209705037e-09)
(-0.0005942139758477971 6.012949474767698e-17 1.755892777276499e-09)
(-0.0005942139758577808 -3.433554785818374e-17 1.755915367649198e-09)
(-0.0005942139758480862 -2.421022895979188e-18 1.755892368363459e-09)
(-0.0005942139758565347 1.222985147035778e-17 1.755914364569868e-09)
(-0.0005942139758481709 -1.477063067765619e-17 1.755892109099921e-09)
(-0.0005942139758556256 -3.77233318380836e-17 1.755913250963175e-09)
(-0.0005942139758477068 4.755517573256885e-17 1.755891957870576e-09)
(-0.0005942139758561802 -8.081381618219931e-18 1.755912068707277e-09)
(-0.0005942139758484413 1.040004491771131e-17 1.755891882828371e-09)
(-0.0005942139758556365 -1.629815955132589e-17 1.755910852446945e-09)
(-0.000594213975848917 -1.005002245296814e-17 1.755891860938441e-09)
(-0.0005942139758546171 2.231564735157558e-17 1.755909631384179e-09)
(-0.0005942139758491861 -1.263895501385944e-17 1.755891877214031e-09)
(-0.0005942139758539517 -2.47668574484525e-17 1.755908430917895e-09)
(-0.0005942139758487452 3.76523993587144e-17 1.755891924111063e-09)
(-0.000594213975854737 -6.934402616093714e-18 1.755907274538584e-09)
(-0.0005942139758490557 -2.588898510606514e-19 1.755892001397336e-09)
(-0.0005942139758541894 -2.603023240554215e-18 1.755906185518131e-09)
(-0.0005942139758495022 -1.64458568160411e-17 1.755892116261832e-09)
(-0.0005942139758534424 2.561602839602292e-17 1.755905188885767e-09)
(-0.0005942139758503128 -7.525702015151917e-18 1.755892283864901e-09)
(-0.0005942139758532974 -2.746770766309997e-17 1.755904313263592e-09)
(-0.0005942139758498236 2.615490538874641e-17 1.755892527963469e-09)
(-0.0005942139758537804 -2.427724153041037e-17 1.755903592493713e-09)
(-0.0005942139758496301 -1.387889599278139e-17 1.755892881355479e-09)
(-0.0005942139758529428 2.631789353777622e-17 1.755903066401158e-09)
(-0.0005942139758503 -7.114185471626359e-18 1.755893384699625e-09)
(-0.0005942139758525189 -1.542210143661454e-17 1.755902778857452e-09)
(-0.0005942139758497227 4.277874107907396e-17 1.755894081500381e-09)
(-0.0005942139758536187 8.352574640643853e-18 1.755902769315435e-09)
(-0.0005942139758506438 5.621162721864568e-18 1.755895003195881e-09)
(-0.0005942139758533082 -1.231724857402956e-18 1.755903048934612e-09)
(-0.0005942139758511804 -1.386463500739329e-17 1.755896127151064e-09)
(-0.0005942139758531988 4.628602913694139e-17 1.755903534494151e-09)
(-0.0005942139758534589 3.158360506547058e-17 1.755897321780431e-09)
(-0.0005942139758549773 5.230920824407269e-17 1.755904039816151e-09)
(-0.0005942139758565461 1.063622240865559e-16 1.755897856393538e-09)
(-0.0005942139758607234 2.002016823032639e-16 1.755901420187498e-09)
(-0.0005942139758657963 2.950143932868978e-16 1.755897633394175e-09)
(-0.0005942139758849532 5.500735631183664e-16 1.755914517306122e-09)
)
;
    }
    topWall
    {
        type            calculated;
        value           nonuniform List<vector> 
58
(
(0.005434211824695248 4.01891437715679e-16 3.379251714513087e-09)
(0.005434211824708541 8.483300974158768e-17 3.379281582644166e-09)
(0.005434211824719433 -5.710026817197992e-17 3.379292485223756e-09)
(0.005434211824720227 4.430750051535329e-16 3.379296241790357e-09)
(0.005434211824739116 -8.40294605523164e-19 3.379295331149212e-09)
(0.005434211824736386 1.715951634733836e-16 3.379293716470311e-09)
(0.005434211824746005 9.46583715996434e-17 3.379291584816176e-09)
(0.005434211824747666 1.992318703627196e-16 3.379289708929588e-09)
(0.005434211824752568 -6.106710575953763e-17 3.379287935591773e-09)
(0.005434211824754774 1.614566207628493e-16 3.379286400674377e-09)
(0.005434211824761467 9.982746116138785e-17 3.379284998767934e-09)
(0.005434211824762588 5.980353255268802e-17 3.379283743749635e-09)
(0.005434211824764472 -3.172386063191307e-18 3.3792825812932e-09)
(0.005434211824763842 6.121209672126908e-17 3.379281504400976e-09)
(0.005434211824765986 -5.350656351695167e-17 3.379280484067535e-09)
(0.005434211824765492 3.706639425356177e-18 3.379279513121806e-09)
(0.00543421182476632 -1.096140687528748e-17 3.379278576841522e-09)
(0.005434211824766081 -1.089564903547404e-17 3.37927766875711e-09)
(0.005434211824767869 -2.035997715017111e-17 3.37927678116287e-09)
(0.005434211824765813 -3.114353185290117e-17 3.37927591041747e-09)
(0.005434211824766055 4.628851531428469e-17 3.37927505187392e-09)
(0.005434211824768198 -5.506526798598633e-18 3.379274202997309e-09)
(0.005434211824765744 -4.100487654854957e-17 3.379273361696597e-09)
(0.005434211824766525 9.508777512699592e-17 3.379272526214454e-09)
(0.005434211824769928 3.171967646024658e-17 3.379271695796127e-09)
(0.005434211824767396 -2.746355975987393e-17 3.379270868850781e-09)
(0.005434211824768419 4.691752408405876e-17 3.379270045880356e-09)
(0.005434211824770259 2.803860602280311e-17 3.379269224555168e-09)
(0.005434211824768999 -6.364105054608489e-17 3.379268407608825e-09)
(0.005434211824768305 2.205796642245068e-17 3.379267590305103e-09)
(0.005434211824770573 -8.700151891376327e-18 3.379266779527053e-09)
(0.005434211824769255 -3.793425323979397e-17 3.379265965351007e-09)
(0.005434211824768566 6.777422621244311e-17 3.379265162479342e-09)
(0.005434211824770076 8.687166895918256e-18 3.379264349115331e-09)
(0.005434211824769379 -7.282621209305264e-17 3.379263558372245e-09)
(0.005434211824768494 4.160243583007775e-17 3.379262741650402e-09)
(0.005434211824770396 -4.985477019735006e-17 3.379261972213458e-09)
(0.005434211824768154 -2.674624186881728e-17 3.379261141982094e-09)
(0.005434211824768657 1.278058940929944e-16 3.379260412358845e-09)
(0.005434211824771403 3.000038027774703e-17 3.379259544732418e-09)
(0.005434211824770652 1.801223633368968e-17 3.379258895953856e-09)
(0.005434211824771124 -2.813469053552521e-17 3.379257937134736e-09)
(0.005434211824770206 -2.734112992414617e-17 3.37925745667963e-09)
(0.005434211824771576 1.105920906082962e-16 3.379256284120916e-09)
(0.005434211824771315 2.730067644498264e-18 3.37925616273599e-09)
(0.005434211824771005 -4.4793474694558e-17 3.379254503429375e-09)
(0.005434211824769518 -5.726971441563832e-17 3.37925516119661e-09)
(0.005434211824770416 -4.357005565079742e-17 3.37925240727518e-09)
(0.005434211824767242 -7.915267473722362e-17 3.379254765640027e-09)
(0.005434211824766327 -6.378866838767872e-17 3.379249572016015e-09)
(0.005434211824761361 3.52056666755519e-17 3.379255652812769e-09)
(0.005434211824766602 9.043463071803999e-18 3.379245078687666e-09)
(0.005434211824756265 -6.834612668519015e-17 3.379259232673956e-09)
(0.00543421182476149 -1.098444827877661e-16 3.379237096482956e-09)
(0.005434211824746016 -1.282867772395762e-16 3.379268859182888e-09)
(0.005434211824754434 -3.336082443906882e-16 3.379224931676096e-09)
(0.005434211824725948 -1.640174259053066e-16 3.379278223867837e-09)
(0.005434211824736729 -7.710952310583739e-16 3.37922415785722e-09)
)
;
    }
    left
    {
        type            cyclic;
    }
    right
    {
        type            cyclic;
    }
}


// ************************************************************************* //
