/*--------------------------------*- C++ -*----------------------------------*\
| =========                 |                                                 |
| \\      /  F ield         | OpenFOAM: The Open Source CFD Toolbox           |
|  \\    /   O peration     | Version:  v1812                                 |
|   \\  /    A nd           | Web:      www.OpenFOAM.com                      |
|    \\/     M anipulation  |                                                 |
\*---------------------------------------------------------------------------*/
FoamFile
{
    version     2.0;
    format      ascii;
    class       volScalarField;
    location    "10000";
    object      nut;
}
// * * * * * * * * * * * * * * * * * * * * * * * * * * * * * * * * * * * * * //

dimensions      [0 2 -1 0 0 0 0];


internalField   nonuniform List<scalar> 
3770
(
5.719875661946093e-06
5.719875661911841e-06
5.719875661885952e-06
5.719875662021698e-06
5.719875662040863e-06
5.719875661940881e-06
5.719875661924469e-06
5.719875661958742e-06
5.719875661984332e-06
5.71987566193833e-06
5.719875661923153e-06
5.719875661941505e-06
5.719875661923913e-06
5.719875661911733e-06
5.719875661908362e-06
5.719875661991787e-06
5.719875661958999e-06
5.719875661911203e-06
5.719875661961683e-06
5.719875661958148e-06
5.719875661949302e-06
5.719875661939641e-06
5.719875661913212e-06
5.719875661976985e-06
5.719875662018731e-06
5.71987566196133e-06
5.719875661974223e-06
5.719875661992587e-06
5.719875661984059e-06
5.719875661959534e-06
5.719875661940369e-06
5.719875661997801e-06
5.719875661976726e-06
5.719875661982198e-06
5.71987566196926e-06
5.719875661978181e-06
5.719875661988064e-06
5.719875661943831e-06
5.719875661958927e-06
5.719875661990313e-06
5.719875661959226e-06
5.719875661899403e-06
5.719875661929624e-06
5.719875661983745e-06
5.719875661974601e-06
5.71987566196643e-06
5.719875661990636e-06
5.719875661978447e-06
5.719875661958888e-06
5.719875661941067e-06
5.719875661905847e-06
5.719875661895719e-06
5.719875661933815e-06
5.719875661989513e-06
5.719875661936469e-06
5.719875661992704e-06
5.719875661996199e-06
5.719875661958969e-06
1.102549604149084e-06
1.102549604733891e-06
1.10254960390772e-06
1.102549604814816e-06
1.102549604441665e-06
1.102549604438549e-06
1.102549604542386e-06
1.102549605000259e-06
1.102549604442535e-06
1.102549604355785e-06
1.102549604417327e-06
1.102549604779374e-06
1.102549604629793e-06
1.102549604635718e-06
1.102549604389902e-06
1.102549604899298e-06
1.10254960465261e-06
1.102549604706394e-06
1.102549604519836e-06
1.10254960425586e-06
1.102549604653262e-06
1.102549604935575e-06
1.102549604342217e-06
1.102549604854765e-06
1.10254960481861e-06
1.102549604698239e-06
1.102549604542264e-06
1.102549604794936e-06
1.102549604499055e-06
1.102549604587505e-06
1.102549604822577e-06
1.102549604728088e-06
1.102549604522169e-06
1.10254960476381e-06
1.102549604515511e-06
1.102549604643392e-06
1.102549604732951e-06
1.102549604392104e-06
1.1025496043143e-06
1.102549604263286e-06
1.102549604397589e-06
1.102549604288277e-06
1.102549604431883e-06
1.102549604371551e-06
1.102549604492992e-06
1.102549604463251e-06
1.102549604318924e-06
1.102549604405902e-06
1.102549604149832e-06
1.102549604302672e-06
1.102549604211087e-06
1.102549603956125e-06
1.102549604229632e-06
1.102549604501724e-06
1.102549604037218e-06
1.102549604355903e-06
1.102549604659619e-06
1.102549604087113e-06
3.290191103629098e-06
3.290191107620499e-06
3.290191102183455e-06
3.290191108260051e-06
3.290191105762276e-06
3.290191106400354e-06
3.290191105593587e-06
3.290191108743768e-06
3.290191105558978e-06
3.290191105974443e-06
3.290191104281442e-06
3.290191106027247e-06
3.290191105561276e-06
3.290191106671564e-06
3.290191103925106e-06
3.29019110806058e-06
3.290191106270724e-06
3.290191107163589e-06
3.290191105513923e-06
3.290191103960254e-06
3.290191106253831e-06
3.290191108371248e-06
3.290191105199246e-06
3.290191107969768e-06
3.290191107872357e-06
3.290191105684858e-06
3.29019110391559e-06
3.290191106376194e-06
3.290191106967786e-06
3.290191106064396e-06
3.290191106813335e-06
3.290191108843213e-06
3.29019110576569e-06
3.29019110617551e-06
3.290191104982431e-06
3.290191105025863e-06
3.290191106136707e-06
3.290191104864818e-06
3.290191104421791e-06
3.290191104628415e-06
3.29019110423821e-06
3.290191103419769e-06
3.29019110414299e-06
3.290191104245331e-06
3.290191104825701e-06
3.290191104375941e-06
3.290191103866485e-06
3.290191104080663e-06
3.290191103115647e-06
3.290191104062994e-06
3.290191103624357e-06
3.290191103246048e-06
3.290191103057476e-06
3.290191104967165e-06
3.290191103131991e-06
3.290191104483508e-06
3.290191106054489e-06
3.290191103359343e-06
1.130177470867412e-05
1.130177472445405e-05
1.130177470530626e-05
1.130177472156617e-05
1.130177470707542e-05
1.130177470661878e-05
1.130177470787717e-05
1.130177472552462e-05
1.130177471514445e-05
1.130177471687813e-05
1.130177470851225e-05
1.130177470029088e-05
1.130177470403817e-05
1.130177471849599e-05
1.130177471548099e-05
1.13017747238404e-05
1.130177471448399e-05
1.130177471768301e-05
1.130177471827847e-05
1.130177471146553e-05
1.130177472014031e-05
1.130177472601074e-05
1.130177471837961e-05
1.130177472222405e-05
1.130177472026582e-05
1.130177471415663e-05
1.130177471210127e-05
1.130177471236272e-05
1.130177472141638e-05
1.130177471662457e-05
1.130177471510307e-05
1.130177472458685e-05
1.130177471634378e-05
1.130177471521318e-05
1.130177471269249e-05
1.13017747112168e-05
1.130177471260794e-05
1.130177471327238e-05
1.130177470768526e-05
1.130177471056057e-05
1.130177470906946e-05
1.130177470443346e-05
1.130177470994229e-05
1.130177470770321e-05
1.130177470699779e-05
1.130177470975284e-05
1.130177470899902e-05
1.130177470697261e-05
1.130177470712291e-05
1.130177470867166e-05
1.13017747082432e-05
1.1301774713094e-05
1.130177471178883e-05
1.130177471169909e-05
1.130177470521949e-05
1.130177470682789e-05
1.130177471133426e-05
1.130177470346896e-05
3.007120222451388e-05
3.007120227362729e-05
3.007120223707816e-05
3.007120225106139e-05
3.007120221929437e-05
3.007120220983673e-05
3.007120220796544e-05
3.007120226361987e-05
3.007120222885265e-05
3.007120223516478e-05
3.007120223445035e-05
3.007120218818978e-05
3.0071202202679e-05
3.007120224874703e-05
3.00712022586236e-05
3.007120226792309e-05
3.007120223446598e-05
3.007120225607248e-05
3.007120226705411e-05
3.007120223454122e-05
3.007120226292477e-05
3.007120226878384e-05
3.0071202243269e-05
3.007120225152092e-05
3.007120224882774e-05
3.007120223053077e-05
3.007120224812685e-05
3.007120221314075e-05
3.00712022533363e-05
3.007120225753807e-05
3.007120222859137e-05
3.007120226144555e-05
3.007120225968739e-05
3.007120223555948e-05
3.007120224481531e-05
3.007120222113911e-05
3.007120222700287e-05
3.007120222942272e-05
3.007120222336906e-05
3.007120222674607e-05
3.007120223641066e-05
3.007120222527107e-05
3.007120222996663e-05
3.007120220173329e-05
3.007120221693239e-05
3.00712022260652e-05
3.007120221637203e-05
3.007120222380856e-05
3.007120223777055e-05
3.007120221655462e-05
3.007120222883215e-05
3.00712022413124e-05
3.007120222555984e-05
3.007120223080294e-05
3.007120220272138e-05
3.007120221761163e-05
3.007120222926075e-05
3.007120221397919e-05
6.589212905701113e-05
6.589212917457493e-05
6.589212910701833e-05
6.589212910688448e-05
6.589212909413904e-05
6.589212902284117e-05
6.589212901597936e-05
6.589212914413142e-05
6.589212910046475e-05
6.589212909158832e-05
6.589212909647303e-05
6.589212896095857e-05
6.589212900175574e-05
6.589212910869905e-05
6.589212914832602e-05
6.589212916278913e-05
6.589212907056208e-05
6.589212915526177e-05
6.589212918527927e-05
6.589212909685324e-05
6.589212916082433e-05
6.58921291648726e-05
6.589212908783402e-05
6.589212914852113e-05
6.589212914928817e-05
6.589212907523616e-05
6.589212912805421e-05
6.589212901590111e-05
6.58921291272983e-05
6.58921291499549e-05
6.589212907431569e-05
6.589212914813951e-05
6.589212916470012e-05
6.589212910839151e-05
6.589212911708237e-05
6.589212902218997e-05
6.589212906343575e-05
6.589212909806023e-05
6.589212909077686e-05
6.589212906384646e-05
6.589212909423937e-05
6.589212906355672e-05
6.589212907268033e-05
6.589212900260681e-05
6.589212904165858e-05
6.589212905817216e-05
6.589212901843897e-05
6.589212908597742e-05
6.589212911140115e-05
6.58921290360868e-05
6.589212910228505e-05
6.589212910808194e-05
6.589212903796312e-05
6.58921290799648e-05
6.589212899892665e-05
6.589212906521433e-05
6.58921290744739e-05
6.589212908091169e-05
0.0001259745761388377
0.0001259745763899382
0.0001259745763033912
0.0001259745762796689
0.0001259745762817735
0.0001259745761037584
0.0001259745760755617
0.0001259745763348097
0.0001259745763347284
0.0001259745762611418
0.0001259745762627539
0.0001259745759508913
0.0001259745760441164
0.0001259745762572351
0.000125974576349839
0.0001259745763820905
0.0001259745761723552
0.0001259745763777995
0.0001259745764663434
0.0001259745762791182
0.0001259745763819513
0.0001259745763897021
0.0001259745761975596
0.0001259745763699951
0.000125974576413244
0.0001259745762422127
0.0001259745763218952
0.0001259745760661452
0.0001259745762815535
0.0001259745763703686
0.0001259745761935401
0.000125974576355074
0.0001259745764139737
0.000125974576289369
0.0001259745763016799
0.0001259745760457657
0.0001259745761618007
0.000125974576273773
0.0001259745762465669
0.0001259745761935512
0.0001259745762373868
0.0001259745761771468
0.0001259745761879485
0.0001259745760833808
0.0001259745761212911
0.0001259745761394589
0.0001259745760595881
0.0001259745762329531
0.0001259745763045996
0.0001259745761073303
0.0001259745762719953
0.000125974576306531
0.0001259745761489268
0.0001259745762238327
0.0001259745760192027
0.0001259745761804428
0.0001259745762299921
0.0001259745762477059
0.0002182482244080312
0.0002182482248892661
0.0002182482248703431
0.0002182482247058407
0.0002182482247457761
0.0002182482244298937
0.0002182482243423557
0.000218248224767013
0.0002182482248774955
0.0002182482246874721
0.0002182482246941908
0.0002182482240971562
0.0002182482242999272
0.0002182482246778106
0.0002182482248693306
0.0002182482248960008
0.0002182482245176424
0.000218248224919327
0.0002182482250987272
0.0002182482247719164
0.0002182482249051504
0.0002182482249139147
0.0002182482245264783
0.0002182482248709006
0.0002182482250133718
0.0002182482246907366
0.0002182482247959951
0.0002182482243126907
0.0002182482247135553
0.0002182482248911602
0.0002182482245319679
0.0002182482248469283
0.000218248224984474
0.0002182482247487559
0.0002182482247655204
0.0002182482243023378
0.0002182482244892731
0.000218248224726384
0.00021824822468452
0.0002182482245715565
0.0002182482246032281
0.0002182482245085657
0.0002182482245004407
0.0002182482244399789
0.0002182482243917946
0.0002182482243881899
0.0002182482242805577
0.0002182482246486078
0.000218248224799288
0.0002182482243920783
0.0002182482247063228
0.0002182482248196219
0.0002182482245302444
0.0002182482246284731
0.0002182482241901432
0.0002182482245058249
0.0002182482246815618
0.0002182482246962565
0.0003518954532428202
0.000351895454062848
0.0003518954542152765
0.0003518954538140594
0.0003518954538401331
0.000351895453425117
0.0003518954532124802
0.0003518954538539346
0.0003518954541129347
0.0003518954537452027
0.0003518954537629147
0.0003518954527862401
0.0003518954531868442
0.0003518954537700588
0.0003518954540530116
0.000351895454088055
0.0003518954535092392
0.0003518954541895571
0.0003518954544716618
0.0003518954539194345
0.0003518954541202521
0.0003518954541202711
0.0003518954534791482
0.0003518954540568035
0.0003518954543304291
0.0003518954537994624
0.000351895453932762
0.0003518954531495087
0.0003518954538061399
0.0003518954540994699
0.00035189545349071
0.0003518954540108193
0.0003518954542519259
0.0003518954538739949
0.0003518954538872779
0.0003518954532136119
0.0003518954534707133
0.000351895453846434
0.0003518954537661439
0.0003518954535547042
0.0003518954535297483
0.0003518954534485923
0.0003518954534387006
0.0003518954533739823
0.0003518954531850706
0.0003518954531315713
0.0003518954530770079
0.0003518954537486524
0.0003518954540007435
0.0003518954533445683
0.0003518954538528591
0.0003518954540406657
0.0003518954535733308
0.0003518954536872983
0.00035189545290999
0.000351895453558218
0.0003518954538364472
0.0003518954538321579
0.0005388405440206514
0.000538840545238121
0.0005388405456343046
0.0005388405449097701
0.0005388405449062577
0.0005388405443717955
0.0005388405440519105
0.0005388405449392219
0.0005388405453258343
0.0005388405447265977
0.0005388405447581855
0.0005388405433617306
0.0005388405440572624
0.0005388405449152596
0.0005388405452636033
0.0005388405452572475
0.0005388405444871411
0.0005388405454834037
0.0005388405458751496
0.0005388405450922082
0.000538840545286187
0.0005388405453022842
0.0005388405444034493
0.0005388405452499935
0.0005388405456543205
0.0005388405448671021
0.000538840545031993
0.0005388405439248244
0.0005388405448722918
0.0005388405452945337
0.000538840544423539
0.0005388405451667344
0.0005388405454932407
0.0005388405448877643
0.0005388405449587047
0.0005388405441633104
0.0005388405444851483
0.0005388405449615477
0.0005388405447688047
0.0005388405445198365
0.0005388405443903496
0.0005388405443565288
0.0005388405443196578
0.0005388405441659914
0.0005388405441145891
0.0005388405436557768
0.0005388405438010903
0.0005388405448913395
0.0005388405452390419
0.000538840544356147
0.000538840545022955
0.0005388405452755601
0.0005388405445945817
0.0005388405447243873
0.0005388405435903847
0.0005388405445572957
0.0005388405449858025
0.0005388405449753247
0.0007947407647197391
0.0007947407663791894
0.0007947407669989675
0.0007947407659054523
0.0007947407658828605
0.0007947407651898962
0.0007947407648482981
0.0007947407658744918
0.0007947407663567206
0.0007947407654994642
0.000794740765548445
0.0007947407637837579
0.0007947407649110119
0.0007947407659235981
0.0007947407662237169
0.0007947407662563605
0.0007947407653829727
0.0007947407666619587
0.0007947407671314405
0.0007947407661858505
0.0007947407663146168
0.0007947407663267425
0.0007947407652270845
0.0007947407663214976
0.0007947407668400765
0.0007947407657747901
0.0007947407659614393
0.0007947407645800628
0.0007947407658037985
0.0007947407663339043
0.0007947407652750424
0.0007947407661511132
0.0007947407665635488
0.0007947407658460219
0.0007947407658951605
0.0007947407651401941
0.0007947407654674175
0.0007947407659568031
0.0007947407655782297
0.0007947407655539964
0.0007947407652614862
0.0007947407652201295
0.00079474076507263
0.0007947407648523378
0.0007947407649241263
0.0007947407641561717
0.0007947407644342325
0.0007947407659900709
0.0007947407664200821
0.0007947407654146779
0.0007947407661625307
0.0007947407663916574
0.0007947407654896703
0.0007947407656433395
0.0007947407641908099
0.0007947407654143331
0.0007947407660028143
0.0007947407660081622
0.001136673854210835
0.001136673856225666
0.001136673857110419
0.001136673855704519
0.001136673855681384
0.001136673854842866
0.001136673854543012
0.001136673855459849
0.00113667385597691
0.001136673854891716
0.001136673854963354
0.001136673853000749
0.001136673854641422
0.001136673855716057
0.001136673855762245
0.001136673855872862
0.001136673855097136
0.001136673856495864
0.001136673856941321
0.001136673856046736
0.001136673856003407
0.001136673855986825
0.001136673854835009
0.001136673856138481
0.001136673856677978
0.001136673855359842
0.001136673855531093
0.001136673854006858
0.001136673855362455
0.001136673856010762
0.001136673854923344
0.00113667385580044
0.001136673856244966
0.001136673855350461
0.001136673855459155
0.001136673855084548
0.001136673855256167
0.001136673855597073
0.001136673855177083
0.001136673855199555
0.001136673854800758
0.001136673854711685
0.00113667385451312
0.001136673854248732
0.001136673854533746
0.001136673853640637
0.001136673853874429
0.001136673855871695
0.001136673856381871
0.001136673855412309
0.001136673856072902
0.001136673856181641
0.001136673855109623
0.001136673855297857
0.001136673853646215
0.00113667385499586
0.001136673855713186
0.001136673855743921
0.001576046587592022
0.001576046589873412
0.001576046590999772
0.001576046589468196
0.001576046589484397
0.00157604658852838
0.001576046588337766
0.001576046588737661
0.001576046589244472
0.001576046588037104
0.00157604658812189
0.001576046586252014
0.001576046588278816
0.001576046589152974
0.001576046589048785
0.001576046589264931
0.001576046588796147
0.001576046589992296
0.001576046590357863
0.001576046589507029
0.001576046589401604
0.001576046589410125
0.00157604658839009
0.001576046589641679
0.001576046590213647
0.001576046588732962
0.001576046588841454
0.001576046587381905
0.001576046588595321
0.001576046589371489
0.00157604658853721
0.001576046589259717
0.001576046589633615
0.001576046588520074
0.001576046589065449
0.00157604658887166
0.001576046588689512
0.001576046588816057
0.001576046588523478
0.001576046588614052
0.00157604658825911
0.001576046588018944
0.001576046588191578
0.001576046587830405
0.001576046588091006
0.001576046587454559
0.001576046587328883
0.001576046589578093
0.001576046590192459
0.001576046589371581
0.00157604658967038
0.001576046589662401
0.001576046588587293
0.001576046588804251
0.001576046587153682
0.00157604658842101
0.001576046589235449
0.001576046589267766
0.00211046560532565
0.002110465607770321
0.00211046560902178
0.002110465607559434
0.002110465607666043
0.002110465606585975
0.002110465606751531
0.002110465606360111
0.002110465606608344
0.002110465605485486
0.002110465605555479
0.002110465604094292
0.002110465606103394
0.002110465606974486
0.00211046560689757
0.002110465606922914
0.002110465606946352
0.002110465607699379
0.002110465607780382
0.002110465607043871
0.002110465607001046
0.002110465607151224
0.002110465606397108
0.002110465607367514
0.002110465607878888
0.002110465606324889
0.002110465606359505
0.002110465605360158
0.002110465605905937
0.002110465606763961
0.002110465606661465
0.002110465606969181
0.002110465607199455
0.002110465605776626
0.002110465606770584
0.002110465606857573
0.002110465606470581
0.002110465606588706
0.002110465606463257
0.002110465606530127
0.0021104656059624
0.002110465606074184
0.002110465606416386
0.002110465605431508
0.002110465605807008
0.002110465605921502
0.002110465605240868
0.002110465607477254
0.002110465608234014
0.002110465607563278
0.002110465607486878
0.002110465607330428
0.002110465606398613
0.002110465606610626
0.00211046560521335
0.00211046560611035
0.002110465607132968
0.002110465607109459
0.002722173640310344
0.002722173642711594
0.002722173643991384
0.002722173642331064
0.002722173642490653
0.002722173641360471
0.002722173641673658
0.002722173640911755
0.002722173641046125
0.002722173640322426
0.002722173640282937
0.002722173639364793
0.002722173640987566
0.002722173641936589
0.00272217364220019
0.002722173641559315
0.002722173642150539
0.002722173642381345
0.002722173642245319
0.002722173641882252
0.002722173641892477
0.002722173642289463
0.002722173641819061
0.002722173642167811
0.002722173642553217
0.002722173641148743
0.002722173641088383
0.002722173640970471
0.002722173640440072
0.002722173641613136
0.002722173642080437
0.002722173641541487
0.00272217364177549
0.002722173640373043
0.002722173641513137
0.002722173642049525
0.002722173640962842
0.002722173640912452
0.002722173641591728
0.002722173641825761
0.002722173640923412
0.002722173641574174
0.002722173641881046
0.00272217363998584
0.002722173641129623
0.00272217364165492
0.00272217364025795
0.002722173642469811
0.002722173643313203
0.002722173642726602
0.002722173642407882
0.002722173642113502
0.002722173641428443
0.002722173641570316
0.002722173640668363
0.002722173640827888
0.002722173641932817
0.002722173642069652
0.003384809331935142
0.003384809334184364
0.003384809335408833
0.003384809333721657
0.003384809333906754
0.003384809332971131
0.003384809333180308
0.003384809332130339
0.003384809332575795
0.003384809332418643
0.003384809331725422
0.003384809331593842
0.003384809332660465
0.003384809332910646
0.003384809333480641
0.003384809332666687
0.003384809333568078
0.00338480933425662
0.003384809333751852
0.003384809333657131
0.003384809333144872
0.003384809333664817
0.003384809334143706
0.003384809333538155
0.003384809333782342
0.003384809333006706
0.003384809332986986
0.003384809332971182
0.003384809331926558
0.003384809333162
0.003384809333759407
0.003384809332839081
0.00338480933308577
0.003384809331925585
0.003384809332901693
0.003384809333511419
0.00338480933237767
0.003384809332290835
0.003384809333076046
0.00338480933350839
0.003384809332759212
0.00338480933355237
0.003384809333712039
0.003384809331663879
0.003384809333087397
0.003384809333647612
0.003384809331925356
0.003384809334043719
0.003384809334884506
0.003384809334236095
0.00338480933397957
0.00338480933366463
0.003384809333116637
0.003384809332988791
0.003384809332564818
0.003384809332489622
0.003384809333544588
0.003384809333713754
0.004071471991258071
0.004071471993299691
0.004071471994445248
0.00407147199283787
0.004071471992968511
0.004071471992348119
0.004071471992448262
0.004071471991561155
0.004071471991992658
0.004071471991848397
0.004071471990946099
0.004071471991888208
0.00407147199297933
0.004071471991702756
0.00407147199170322
0.004071471991702372
0.004071471992642814
0.004071471993385004
0.004071471992951673
0.00407147199303126
0.004071471992473737
0.004071471992948598
0.004071471993685742
0.004071471992866321
0.004071471992865675
0.004071471991814872
0.004071471992363532
0.00407147199279636
0.004071471991313733
0.004071471992464992
0.004071471993008537
0.004071471991949801
0.004071471992120116
0.004071471991391067
0.004071471992032086
0.004071471992676234
0.004071471991669472
0.004071471991425522
0.00407147199233435
0.004071471992854288
0.004071471992215723
0.004071471993028522
0.004071471993109236
0.00407147199121917
0.004071471992654712
0.00407147199310794
0.004071471991267154
0.004071471993260734
0.004071471994136322
0.004071471993252997
0.004071471993247791
0.004071471992975864
0.004071471992492483
0.004071471992417774
0.004071471992423425
0.004071471991728398
0.004071471992638341
0.004071471993068365
0.004758736007115883
0.004758736008871696
0.004758736009892794
0.004758736008528074
0.004758736008488048
0.00475873600764436
0.004758736007839911
0.004758736007196176
0.004758736008093246
0.004758736008119499
0.004758736007090773
0.00475873600828817
0.004758736009056425
0.004758736007462653
0.004758736008067894
0.004758736008611398
0.00475873600815373
0.004758736009177092
0.004758736009239271
0.004758736008838791
0.004758736008400466
0.004758736008649707
0.004758736009222988
0.004758736008608417
0.004758736008615092
0.004758736007668723
0.004758736008291274
0.00475873600876942
0.004758736007376094
0.004758736008339953
0.004758736008742938
0.004758736007752889
0.004758736007697395
0.004758736007499344
0.004758736007768904
0.004758736008231552
0.004758736007916057
0.004758736007636787
0.004758736008171122
0.004758736008654198
0.004758736008018851
0.004758736008818
0.004758736008937408
0.004758736007261692
0.004758736008596531
0.00475873600896607
0.004758736007210712
0.004758736008986775
0.004758736009705672
0.004758736008304125
0.004758736008947697
0.004758736009185919
0.004758736008569743
0.004758736008672181
0.004758736008632303
0.004758736007783241
0.004758736008500533
0.004758736008853319
0.005427733291299563
0.005427733292718162
0.005427733293610452
0.005427733292480229
0.005427733292358111
0.005427733291486467
0.005427733291690543
0.005427733291087292
0.005427733292178626
0.005427733292414806
0.005427733291661119
0.005427733292730465
0.005427733293153203
0.005427733291627014
0.005427733292366487
0.005427733292902102
0.005427733291920568
0.00542773329314799
0.00542773329341747
0.005427733292639306
0.005427733292438876
0.005427733292386014
0.005427733292756504
0.005427733292729377
0.005427733292775084
0.005427733292041532
0.005427733292522954
0.005427733292900684
0.005427733291745343
0.005427733292521935
0.005427733292956354
0.005427733291906487
0.0054277332919425
0.005427733292260258
0.00542773329189149
0.005427733292316908
0.005427733292502499
0.005427733292107213
0.005427733292323075
0.005427733292678587
0.005427733292077208
0.005427733292802791
0.005427733292995736
0.005427733291518475
0.005427733292717922
0.005427733293064739
0.005427733291492215
0.005427733293022968
0.005427733293608362
0.005427733292145133
0.005427733292967649
0.005427733293483379
0.005427733292614334
0.005427733292819128
0.005427733292999117
0.005427733292360989
0.005427733292850433
0.005427733292901593
0.00606453232514262
0.006064532326213502
0.006064532326982709
0.006064532325977367
0.006064532325839581
0.006064532325089418
0.006064532325265308
0.006064532324697468
0.006064532325818653
0.006064532326174893
0.006064532325635807
0.006064532326534849
0.006064532326772814
0.006064532325444395
0.006064532326123983
0.006064532326583408
0.006064532325565193
0.006064532326796354
0.006064532327073128
0.006064532326435724
0.006064532326450085
0.006064532326582872
0.006064532326676571
0.006064532326646179
0.006064532326603731
0.00606453232599683
0.006064532326303584
0.006064532326639932
0.006064532325861851
0.006064532326383871
0.006064532326540101
0.006064532325876522
0.006064532325784635
0.006064532325841933
0.006064532325761179
0.006064532325997156
0.006064532326329809
0.006064532326256685
0.006064532326189287
0.006064532326290993
0.006064532325964924
0.006064532326484972
0.006064532326633536
0.006064532325390243
0.006064532326432383
0.006064532326784272
0.006064532325423526
0.006064532326715022
0.006064532327229862
0.006064532325962945
0.006064532326689891
0.00606453232717621
0.006064532326457279
0.006064532326820601
0.00606453232685621
0.006064532325776841
0.006064532326296386
0.00606453232656191
0.006660138922483841
0.00666013892323093
0.006660138923890398
0.006660138922989123
0.006660138922855961
0.006660138922263733
0.006660138922400672
0.006660138921901792
0.006660138922934559
0.006660138923305291
0.006660138922835849
0.006660138923614998
0.006660138923835608
0.006660138922793083
0.006660138923330591
0.006660138923703268
0.006660138922856835
0.006660138923978295
0.0066601389242523
0.006660138923724711
0.00666013892376828
0.006660138923910205
0.006660138923778163
0.006660138923934325
0.00666013892396755
0.006660138923377593
0.006660138923547483
0.006660138923851756
0.006660138923440417
0.006660138923754836
0.00666013892385389
0.006660138923269411
0.006660138923316319
0.006660138923065282
0.006660138923360264
0.006660138923828421
0.006660138923587017
0.006660138923377806
0.006660138923540279
0.006660138923519752
0.006660138923498293
0.006660138923672496
0.006660138923649066
0.006660138922810085
0.006660138923671465
0.006660138924014718
0.006660138922889173
0.006660138923935664
0.006660138924394553
0.006660138923410801
0.006660138923946696
0.006660138924306444
0.006660138923639899
0.006660138923985598
0.006660138924010909
0.0066601389229272
0.00666013892338044
0.006660138923682905
0.007209831219989984
0.007209831220455903
0.007209831221008129
0.007209831220195096
0.007209831220100598
0.007209831219694356
0.007209831219771647
0.007209831219369131
0.007209831220237333
0.007209831220548884
0.00720983122006769
0.007209831220749818
0.007209831221047131
0.007209831220345958
0.007209831220717556
0.00720983122098861
0.007209831220332114
0.007209831221333257
0.007209831221640177
0.007209831221236116
0.00720983122125536
0.007209831221370829
0.007209831221316978
0.007209831221440682
0.007209831221376917
0.007209831220956826
0.007209831220922307
0.007209831221057219
0.007209831220943627
0.007209831221187157
0.007209831221262358
0.00720983122086043
0.007209831220901837
0.007209831220621067
0.007209831221006703
0.007209831221443354
0.007209831221202122
0.007209831221151453
0.007209831221181425
0.007209831220790051
0.007209831220854202
0.007209831221114671
0.007209831221079028
0.007209831220488389
0.007209831221156395
0.007209831221461433
0.007209831220599776
0.007209831221387466
0.007209831221756354
0.007209831220988536
0.007209831221350498
0.007209831221627142
0.007209831221084912
0.007209831221253344
0.007209831221238981
0.007209831220356499
0.007209831220668062
0.007209831220931703
0.007711985042710832
0.007711985042947579
0.007711985043374515
0.007711985042579402
0.007711985042535432
0.007711985042410385
0.007711985042463621
0.007711985042133108
0.007711985042804082
0.007711985043025476
0.007711985042587375
0.007711985043119184
0.007711985043464138
0.007711985043129611
0.007711985043355936
0.00771198504351238
0.007711985043072131
0.007711985043941205
0.007711985044271138
0.007711985043960915
0.00771198504389799
0.007711985043982678
0.00771198504404606
0.007711985044029563
0.007711985043850645
0.00771198504377549
0.007711985043715716
0.00771198504390332
0.007711985043985534
0.007711985043946725
0.00771198504395182
0.007711985043717594
0.007711985043705115
0.007711985043449781
0.00771198504376498
0.00771198504408269
0.00771198504386582
0.007711985044040699
0.00771198504405735
0.00771198504359658
0.00771198504359873
0.007711985043889384
0.007711985043906615
0.007711985043454321
0.00771198504394049
0.007711985044186686
0.007711985043586066
0.007711985044128828
0.007711985044396064
0.007711985043869274
0.007711985044050471
0.007711985044182905
0.007711985043739873
0.007711985043652276
0.007711985043612621
0.007711985043060059
0.007711985043190017
0.007711985043367836
0.008166823680489333
0.008166823680561439
0.008166823680899124
0.008166823680263467
0.008166823680226898
0.008166823680175406
0.008166823680201055
0.008166823680005885
0.008166823680488966
0.008166823680612903
0.008166823680299707
0.008166823680616378
0.008166823680914481
0.008166823680882129
0.008166823681043605
0.008166823681128922
0.008166823680922941
0.008166823681645702
0.008166823681969897
0.008166823681736332
0.008166823681693325
0.008166823681710442
0.008166823681703777
0.008166823681744541
0.008166823681689082
0.008166823681671433
0.008166823681527213
0.008166823681699529
0.008166823681795098
0.008166823681651577