/*--------------------------------*- C++ -*----------------------------------*\
| =========                 |                                                 |
| \\      /  F ield         | OpenFOAM: The Open Source CFD Toolbox           |
|  \\    /   O peration     | Version:  v1812                                 |
|   \\  /    A nd           | Web:      www.OpenFOAM.com                      |
|    \\/     M anipulation  |                                                 |
\*---------------------------------------------------------------------------*/
FoamFile
{
    version     2.0;
    format      ascii;
    class       volScalarField;
    location    "10000";
    object      nuTilda;
}
// * * * * * * * * * * * * * * * * * * * * * * * * * * * * * * * * * * * * * //

dimensions      [0 2 -1 0 0 0 0];


internalField   nonuniform List<scalar> 
3770
(
0.0004956171847025215
0.0004956171847043753
0.0004956171847062274
0.0004956171847031207
0.0004956171847015918
0.0004956171847022997
0.0004956171847025507
0.000495617184700966
0.0004956171847011337
0.0004956171847035126
0.0004956171847034184
0.0004956171847016157
0.0004956171847013072
0.0004956171847043929
0.0004956171847052502
0.0004956171847008583
0.0004956171846987897
0.0004956171847004964
0.000495617184702993
0.0004956171847033816
0.0004956171847028811
0.0004956171847036156
0.0004956171847046381
0.0004956171847024986
0.0004956171847001685
0.0004956171847025817
0.0004956171847036269
0.0004956171847027974
0.0004956171847028895
0.0004956171847023904
0.0004956171847013623
0.0004956171847028586
0.0004956171847042246
0.0004956171847028706
0.0004956171847015899
0.0004956171847021773
0.00049561718470223
0.0004956171847041883
0.0004956171847031205
0.0004956171847023167
0.0004956171847037503
0.0004956171847048163
0.0004956171847027847
0.0004956171847021713
0.0004956171847026296
0.0004956171847010711
0.0004956171847000815
0.0004956171847028936
0.0004956171847048693
0.0004956171847020711
0.0004956171847037122
0.0004956171847049474
0.0004956171847041053
0.0004956171847028502
0.0004956171847026471
0.0004956171847027077
0.0004956171847022478
0.0004956171847024752
0.0003277214034505479
0.0003277214035223062
0.000327721403492659
0.0003277214035130481
0.0003277214034653709
0.0003277214034608802
0.0003277214034752052
0.0003277214034825677
0.0003277214034429472
0.00032772140347536
0.0003277214034789964
0.0003277214034768479
0.0003277214034609135
0.000327721403508348
0.0003277214035097315
0.0003277214034759804
0.0003277214034105133
0.0003277214034445962
0.0003277214034813761
0.0003277214034719241
0.0003277214034879161
0.0003277214035223331
0.0003277214034944057
0.0003277214034971237
0.0003277214034628077
0.0003277214034870928
0.0003277214034987962
0.0003277214035038674
0.0003277214034826081
0.0003277214034763187
0.0003277214034746703
0.0003277214034968575
0.000327721403508416
0.0003277214035046639
0.000327721403462872
0.0003277214034745711
0.0003277214034867917
0.0003277214034955236
0.0003277214034702069
0.0003277214034550404
0.0003277214034874263
0.000327721403493367
0.0003277214034704347
0.0003277214034569626
0.0003277214034760962
0.0003277214034453912
0.0003277214034177164
0.0003277214034746391
0.0003277214034913317
0.0003277214034502818
0.0003277214034671167
0.0003277214034716263
0.0003277214034764837
0.0003277214034825799
0.0003277214034384257
0.0003277214034681638
0.0003277214034863792
0.0003277214034418702
0.0004311975598863646
0.0004311975601010102
0.0004311975600185542
0.0004311975600420379
0.0004311975599448058
0.0004311975599957649
0.0004311975599572506
0.0004311975599630569
0.0004311975597976232
0.0004311975599841671
0.0004311975599892845
0.0004311975599686398
0.0004311975599846233
0.0004311975600867684
0.0004311975600747928
0.0004311975599507286
0.0004311975597387734
0.000431197559881043
0.0004311975599793469
0.0004311975599850412
0.0004311975599780827
0.0004311975600724176
0.0004311975600154814
0.0004311975599784398
0.0004311975598921841
0.0004311975599850378
0.0004311975599967715
0.0004311975599925523
0.000431197560011862
0.0004311975599602962
0.0004311975599391373
0.0004311975600256553
0.0004311975600443967
0.0004311975600152299
0.0004311975599228197
0.0004311975599220217
0.0004311975599167556
0.0004311975599944858
0.0004311975599794901
0.0004311975598816292
0.0004311975599443479
0.0004311975600036055
0.0004311975598754269
0.0004311975598916467
0.0004311975599723736
0.0004311975598525305
0.0004311975597944131
0.0004311975599524579
0.0004311975600124863
0.0004311975598850829
0.000431197559945464
0.0004311975600133307
0.0004311975599920924
0.0004311975599344226
0.0004311975598415238
0.0004311975599231933
0.0004311975599375908
0.000431197559861455
0.0005887494464919196
0.0005887494467727755
0.000588749446608005
0.000588749446652357
0.0005887494465354797
0.0005887494465215738
0.0005887494465263014
0.0005887494466787744
0.0005887494465122537
0.0005887494465605032
0.0005887494465539649
0.0005887494464184126
0.0005887494465430694
0.0005887494466765892
0.0005887494467083798
0.0005887494466172004
0.0005887494463314453
0.0005887494465647049
0.0005887494466565325
0.000588749446578844
0.0005887494466480781
0.0005887494467262475
0.0005887494466395532
0.0005887494465432715
0.0005887494465679397
0.0005887494466220039
0.0005887494465577906
0.0005887494465550257
0.0005887494466135958
0.0005887494466518677
0.0005887494466026232
0.0005887494466618138
0.0005887494466870003
0.0005887494466153475
0.0005887494465926851
0.0005887494465234141
0.0005887494464352108
0.0005887494465755153
0.0005887494465593607
0.0005887494464627248
0.0005887494465625724
0.000588749446585791
0.0005887494464426253
0.0005887494464320475
0.0005887494465468724
0.0005887494464096233
0.0005887494464301907
0.0005887494465910584
0.0005887494466164479
0.0005887494464993923
0.000588749446601817
0.0005887494466119269
0.0005887494465578928
0.0005887494464586039
0.0005887494463671929
0.0005887494465559383
0.000588749446525333
0.0005887494464082805
0.0007559349214701688
0.000755934921810709
0.0007559349215687015
0.0007559349215746631
0.0007559349214779833
0.000755934921522705
0.000755934921485405
0.000755934921709244
0.0007559349214715144
0.0007559349216070872
0.000755934921555323
0.0007559349212512461
0.0007559349214556077
0.0007559349215368478
0.0007559349217300108
0.0007559349217135248
0.0007559349213707244
0.0007559349217306816
0.000755934921763524
0.0007559349216289194
0.0007559349217077611
0.0007559349217575179
0.0007559349216130607
0.0007559349215589151
0.000755934921683076
0.0007559349216253963
0.0007559349216302675
0.0007559349214865053
0.0007559349215550075
0.0007559349217029925
0.0007559349215700351
0.0007559349216126811
0.0007559349217208985
0.0007559349215826849
0.0007559349216103618
0.0007559349214141448
0.0007559349214041943
0.0007559349215547344
0.0007559349214807146
0.0007559349215152141
0.0007559349215726655
0.0007559349215400255
0.0007559349214768288
0.0007559349212790762
0.0007559349214612583
0.0007559349213917427
0.0007559349213417537
0.0007559349215858395
0.0007559349216055443
0.0007559349213632308
0.0007559349216041752
0.0007559349215995725
0.0007559349214961455
0.0007559349214797113
0.0007559349212264269
0.0007559349215107979
0.0007559349214727464
0.0007559349213923206
0.0009273636152368876
0.0009273636156535631
0.0009273636153341785
0.0009273636153970046
0.0009273636153800874
0.0009273636152863193
0.000927363615214316
0.0009273636155314008
0.000927363615394574
0.0009273636154049562
0.0009273636153860988
0.0009273636148854555
0.0009273636151308959
0.0009273636152940839
0.0009273636155939971
0.000927363615609324
0.0009273636151967965
0.0009273636156018142
0.0009273636157216664
0.000927363615499146
0.0009273636156210903
0.0009273636156346402
0.0009273636153878201
0.0009273636154642293
0.0009273636156359347
0.0009273636154492894
0.0009273636154951337
0.0009273636151626601
0.0009273636154474486
0.0009273636155866634
0.0009273636153122688
0.0009273636155303884
0.0009273636156162866
0.0009273636153108091
0.0009273636154564309
0.0009273636150249396
0.0009273636152905395
0.0009273636153059649
0.0009273636153948249
0.0009273636153364761
0.0009273636153840955
0.0009273636153082752
0.0009273636152710432
0.000927363615029671
0.000927363615144911
0.0009273636151968702
0.0009273636149949022
0.0009273636154006189
0.0009273636154596683
0.0009273636151706486
0.0009273636154316539
0.0009273636154562041
0.0009273636152690834
0.0009273636153046702
0.0009273636149438507
0.0009273636152450046
0.0009273636151969438
0.0009273636153183693
0.001103497142374595
0.001103497142899591
0.001103497142739713
0.001103497142758873
0.00110349714267527
0.001103497142449245
0.001103497142323455
0.001103497142834085
0.001103497142761417
0.001103497142505873
0.00110349714265643
0.00110349714191448
0.001103497142204412
0.001103497142533485
0.001103497142859422
0.001103497142932032
0.001103497142396423
0.001103497142940767
0.001103497143150306
0.00110349714279354
0.001103497142956777
0.001103497142955176
0.001103497142528973
0.001103497142857795
0.001103497143041865
0.001103497142721393
0.001103497142789978
0.001103497142206411
0.001103497142690891
0.001103497142916249
0.001103497142451035
0.001103497142834576
0.001103497142980564
0.001103497142567094
0.001103497142747206
0.001103497142126769
0.001103497142513228
0.00110349714256191
0.001103497142671403
0.001103497142560858
0.001103497142597905
0.001103497142472002
0.001103497142437077
0.001103497142232621
0.001103497142322443
0.001103497142335435
0.00110349714210104
0.001103497142588156
0.001103497142777666
0.00110349714232421
0.001103497142686554
0.001103497142790206
0.001103497142500296
0.0011034971425572
0.00110349714199692
0.001103497142426433
0.00110349714245582
0.001103497142615757
0.001286644623380208
0.001286644624079265
0.001286644624153116
0.001286644623947915
0.001286644623841323
0.001286644623510423
0.001286644623286657
0.001286644623955849
0.001286644624072869
0.001286644623630175
0.001286644623817532
0.001286644622817808
0.001286644623193719
0.001286644623739233
0.001286644624119118
0.00128664462415374
0.001286644623506031
0.001286644624185715
0.001286644624507026
0.001286644624013317
0.001286644624191433
0.001286644624179628
0.001286644623536331
0.001286644624072669
0.001286644624366834
0.001286644623903733
0.001286644623986117
0.001286644623169298
0.00128664462387158
0.001286644624155621
0.001286644623491289
0.001286644624070419
0.001286644624280183
0.001286644623796381
0.00128664462394242
0.001286644623182964
0.001286644623617984
0.001286644623743577
0.001286644623818163
0.001286644623649745
0.001286644623655039
0.001286644623435416
0.001286644623396638
0.001286644623403647
0.001286644623327042
0.001286644623288338
0.001286644623089726
0.001286644623754896
0.001286644624025865
0.001286644623366372
0.001286644623855208
0.001286644624057044
0.001286644623654594
0.001286644623713216
0.001286644622913459
0.001286644623586341
0.001286644623664965
0.001286644623817003
0.001481135923710177
0.001481135924701862
0.001481135924928735
0.001481135924487041
0.001481135924316733
0.001481135923936715
0.001481135923642983
0.001481135924434645
0.001481135924724341
0.001481135924111518
0.001481135924304364
0.001481135923068014
0.001481135923615274
0.001481135924281407
0.001481135924709694
0.001481135924718664
0.001481135923995363
0.001481135924821222
0.001481135925219382
0.00148113592460253
0.001481135924756543
0.001481135924745147
0.00148113592392549
0.001481135924662696
0.001481135925041334
0.00148113592443907
0.001481135924527257
0.001481135923516292
0.001481135924391971
0.001481135924745059
0.001481135923917163
0.001481135924647543
0.001481135924924116
0.00148113592445062
0.001481135924492882
0.001481135923649928
0.00148113592411029
0.001481135924287077
0.001481135924258877
0.001481135924001513
0.001481135923984067
0.001481135923803042
0.00148113592379064
0.001481135923780987
0.001481135923612899
0.001481135923499248
0.001481135923437217
0.001481135924331796
0.001481135924654401
0.001481135923849386
0.001481135924437201
0.001481135924690559
0.001481135924178302
0.001481135924226948
0.001481135923203954
0.001481135924116582
0.001481135924248577
0.001481135924385698
0.001694205796389952
0.001694205797595362
0.001694205798022206
0.001694205797348256
0.001694205797143429
0.001694205796750628
0.001694205796393229
0.001694205797255965
0.001694205797641839
0.001694205796859819
0.001694205797063186
0.001694205795645861
0.001694205796442608
0.001694205797209095
0.00169420579761541
0.001694205797578713
0.001694205796829418
0.001694205797779303
0.001694205798222516
0.001694205797517106
0.001694205797504377
0.00169420579758545
0.001694205796679578
0.001694205797582454
0.001694205798010161
0.00169420579728032
0.001694205797364901
0.001694205796215119
0.001694205797194374
0.001694205797633295
0.00169420579671321
0.001694205797462145
0.001694205797838689
0.001694205797301261
0.001694205797341184
0.001694205796502142
0.001694205796968746
0.001694205797163333
0.001694205796975478
0.001694205796829456
0.00169420579661883
0.001694205796550362
0.001694205796552458
0.001694205796438599
0.001694205796508191
0.00169420579596274
0.001694205796120871
0.00169420579727709
0.001694205797624514
0.001694205796752195
0.001694205797367854
0.001694205797634396
0.001694205797024591
0.001694205797060652
0.001694205795866009
0.001694205796947094
0.001694205797138309
0.001694205797275577
0.001936268317442524
0.001936268318821746
0.001936268319417273
0.001936268318535563
0.001936268318336694
0.00193626831781713
0.001936268317527424
0.0019362683183824
0.001936268318791223
0.001936268317853428
0.001936268318069766
0.001936268316557177
0.001936268317680816
0.001936268318401638
0.001936268318711895
0.00193626831871114
0.001936268318014652
0.001936268319024918
0.001936268319468168
0.001936268318741148
0.001936268318602611
0.001936268318704362
0.001936268317791533
0.001936268318765505
0.001936268319249634
0.001936268318400647
0.001936268318471443
0.001936268317246641
0.001936268318302234
0.001936268318786306
0.001936268317832938
0.001936268318588865
0.001936268319009234
0.001936268318436268
0.001936268318482042
0.001936268317741442
0.001936268318162584
0.001936268318392919
0.001936268318007283
0.001936268318074521
0.001936268317712864
0.001936268317624197
0.001936268317744364
0.00193626831761398
0.001936268317697565
0.001936268316930236
0.001936268317167397
0.001936268318561303
0.001936268318926158
0.001936268318093471
0.001936268318642939
0.001936268318855871
0.001936268318173261
0.001936268318200804
0.00193626831689484
0.001936268318069023
0.001936268318312202
0.001936268318458203
0.002219974943053315
0.002219974944581719
0.002219974945342463
0.002219974944288708
0.00221997494415245
0.002219974943522281
0.002219974943306855
0.002219974944017086
0.002219974944396203
0.002219974943344797
0.002219974943555349
0.002219974942057694
0.002219974943548251
0.002219974944233222
0.002219974944346086
0.002219974944343796
0.002219974943810963
0.00221997494476297
0.002219974945151266
0.002219974944481457
0.002219974944237813
0.002219974944328584
0.002219974943508572
0.002219974944500758
0.002219974944976766
0.0022199749440246
0.002219974944071422
0.002219974942836016
0.002219974943883582
0.002219974944420275
0.002219974943525006
0.002219974944248077
0.002219974944658399
0.002219974944003876
0.002219974944145025
0.002219974943601001
0.002219974943852837
0.002219974944115066
0.002219974943841861
0.002219974943729454
0.002219974943289628
0.002219974943218172
0.002219974943425096
0.002219974943265951
0.002219974943422939
0.002219974942663475
0.002219974942809007
0.002219974944396053
0.002219974944792105
0.002219974944090182
0.002219974944441483
0.002219974944558268
0.002219974943856839
0.002219974943883949
0.002219974942534311
0.002219974943713069
0.002219974944015134
0.00221997494415444
0.002557930723915436
0.002557930725609291
0.002557930726491461
0.002557930725229766
0.002557930725281062
0.002557930724637241
0.002557930724499235
0.002557930724810205
0.002557930725176081
0.002557930724105154
0.002557930724259454
0.002557930722902455
0.002557930724572487
0.002557930725188894
0.00255793072521473
0.002557930725212743
0.002557930724928811
0.002557930725680883
0.002557930725970587
0.002557930725364877
0.002557930725124846
0.002557930725216657
0.00255793072451228
0.002557930725422063
0.002557930725891692
0.00255793072484685
0.002557930724871916
0.00255793072374867
0.002557930724660751
0.002557930725216275
0.002557930724534078
0.002557930725179188
0.002557930725496601
0.002557930724688698
0.00255793072509622
0.002557930724736572
0.002557930724578312
0.002557930724889393
0.00255793072481098
0.002557930724617062
0.00255793072431734
0.002557930724187159
0.002557930724503192
0.002557930724198145
0.00255793072441037
0.002557930724022493
0.002557930723822174
0.00255793072546385
0.002557930725926289
0.002557930725355945
0.00255793072527959
0.002557930725380258
0.00255793072480049
0.002557930724825423
0.002557930723524107
0.002557930724585163
0.002557930725010776
0.002557930725098054
0.00295945323463147
0.002959453236498047
0.002959453237431977
0.002959453236266655
0.002959453236380545
0.002959453235621096
0.002959453235755518
0.002959453235505014
0.00295945323569887
0.002959453234885025
0.002959453234888514
0.002959453233727144
0.002959453235295449
0.002959453235975113
0.002959453236025811
0.002959453235862162
0.002959453235961172
0.00295945323640612
0.002959453236448019
0.002959453235953988
0.002959453235987887
0.002959453236093789
0.002959453235445883
0.002959453236127327
0.002959453236551521
0.002959453235316383
0.002959453235400209
0.002959453234692277
0.002959453235053385
0.002959453235614342
0.00295945323541047
0.00295945323580036
0.00295945323607868
0.002959453235109362
0.002959453235806469
0.002959453235847925
0.002959453235493281
0.002959453235586966
0.002959453235682905
0.002959453235600847
0.002959453235162608
0.002959453235388107
0.002959453235586215
0.002959453234670228
0.002959453235115891
0.002959453235247413
0.002959453234634133
0.002959453236309909
0.002959453236880487
0.002959453236387172
0.002959453236038299
0.002959453236029585
0.002959453235588901
0.002959453235606951
0.002959453234470751
0.002959453235228194
0.002959453236026665
0.002959453235990922
0.00342724984374957
0.003427249845639939
0.003427249846593233
0.003427249845115722
0.003427249845363449
0.003427249844713861
0.00342724984493734
0.003427249844378892
0.003427249844542964
0.003427249843998014
0.003427249843862209
0.003427249843037151
0.003427249844295688
0.003427249844993016
0.003427249845249504
0.00342724984457513
0.003427249845137068
0.003427249845326672
0.003427249845249328
0.00342724984493824
0.003427249844939312
0.003427249845346761
0.003427249844903159
0.003427249845116563
0.003427249845490579
0.003427249844526266
0.003427249844554381
0.003427249844360609
0.003427249843849111
0.003427249844760908
0.003427249844996508
0.00342724984446945
0.003427249844811478
0.00342724984382815
0.003427249844716149
0.003427249845133114
0.003427249844209295
0.003427249844006575
0.003427249844776791
0.00342724984501376
0.003427249844228236
0.003427249844766578
0.003427249845007816
0.003427249843501759
0.003427249844438986
0.003427249844844809
0.003427249843769542
0.003427249845492857
0.003427249846152068
0.003427249845678648
0.003427249845202333
0.003427249845052975
0.003427249844766045
0.003427249844740807
0.00342724984390566
0.003427249844086197
0.003427249845100056
0.003427249845181637
0.003955212816847416
0.003955212818697186
0.003955212819650126
0.003955212818098314
0.00395521281836013
0.003955212817827483
0.003955212817988117
0.003955212817183733
0.003955212817528261
0.003955212817322504
0.003955212816822944
0.003955212816679783
0.003955212817429433
0.003955212817579579
0.00395521281806799
0.003955212817357854
0.003955212818160622
0.003955212818764567
0.003955212818438815
0.003955212818324451
0.003955212817806151
0.003955212818260148
0.003955212818556796
0.003955212817965804
0.003955212818292693
0.003955212817759639
0.00395521281766522
0.003955212817648142
0.003955212816845715
0.003955212817859662
0.003955212818229496
0.003955212817328155
0.003955212817681725
0.00395521281683118
0.003955212817656996
0.003955212818188883
0.003955212817230952
0.003955212816946048
0.003955212817813924
0.003955212818235111
0.003955212817581122
0.003955212818201406
0.003955212818309588
0.003955212816661833
0.003955212817817576
0.003955212818257879
0.003955212816890481
0.003955212818624631
0.003955212819321511
0.003955212818774942
0.003955212818373629
0.003955212818150859
0.003955212817926278
0.003955212817711303
0.003955212817384586
0.003955212817349534
0.003955212818221909
0.003955212818353533
0.004528583246879798
0.004528583248635796
0.004528583249595047
0.004528583248112741
0.004528583248261392
0.004528583247846866
0.004528583247952166
0.004528583247239439
0.004528583247502808
0.004528583247344971
0.004528583246650411
0.004528583247423644
0.004528583248338982
0.004528583247209951
0.004528583247209488
0.004528583247202406
0.004528583248040704
0.004528583248627649
0.004528583248192348
0.004528583248331316
0.004528583247871115
0.004528583248300897
0.004528583248945232
0.004528583248312863
0.00452858324830734
0.004528583247354439
0.004528583247820236
0.004528583248192906
0.004528583246932052
0.004528583247922918
0.004528583248321704
0.00452858324730292
0.00452858324753924
0.004528583246971979
0.004528583247558414
0.004528583248123629
0.00452858324722209
0.004528583246864429
0.004528583247831559
0.00452858324832377
0.004528583247762497
0.004528583248424737
0.004528583248468992
0.004528583246888421
0.004528583248097171
0.004528583248463128
0.004528583246910124
0.00452858324862534
0.004528583249364293
0.004528583248600823
0.00452858324846517
0.004528583248179667
0.00452858324795671
0.004528583247986539
0.00452858324793143
0.004528583247276334
0.004528583248084055
0.004528583248448038
0.005126930196452498
0.00512693019801987
0.005126930198927398
0.005126930197740265
0.005126930197677261
0.005126930196852164
0.005126930197073322
0.005126930196588301
0.005126930197349448
0.00512693019734933
0.005126930196437241
0.005126930197481535
0.005126930198166475
0.005126930196720779
0.005126930197273017
0.005126930197763243
0.005126930197348096
0.005126930198248265
0.005126930198228643
0.005126930197883843
0.005126930197520273
0.005126930197763652
0.005126930198332415
0.005126930197857066
0.005126930197834125
0.005126930196927908
0.005126930197497197
0.005126930197929161
0.005126930196691911
0.0051269301975554
0.005126930197915183
0.005126930197046449
0.005126930197012429
0.005126930196752953
0.005126930197034751
0.005126930197413495
0.005126930197137345
0.005126930196866867
0.005126930197399651
0.00512693019786695
0.005126930197298409
0.005126930197985145
0.005126930198074132
0.005126930196615928
0.005126930197785999
0.005126930198096112
0.005126930196553693
0.005126930198136465
0.005126930198761634
0.005126930197497663
0.00512693019804334
0.005126930198227977
0.005126930197718672
0.005126930197877732
0.005126930197831302
0.005126930197036968
0.00512693019769394
0.005126930198005287
0.005728753483030165
0.005728753484331935
0.005728753485154703
0.005728753484143355
0.005728753483999645
0.005728753483136954
0.00572875348336139
0.005728753482871819
0.005728753483855003
0.005728753484060194
0.005728753483366023
0.005728753484329776
0.005728753484717583
0.005728753483301562
0.005728753483994029
0.005728753484492538
0.005728753483591851
0.005728753484704405
0.005728753484884595
0.005728753484135766
0.005728753483979023
0.00572875348397098
0.005728753484382466
0.005728753484398358
0.005728753484411112
0.005728753483677845
0.005728753484138867
0.005728753484505801
0.005728753483433244
0.005728753484151436
0.005728753484545974
0.005728753483574588
0.005728753483610492
0.005728753483896319
0.005728753483590622
0.005728753483966852
0.005728753484140472
0.005728753483742271
0.005728753483966956
0.005728753484319434
0.005728753483769018
0.005728753484416655
0.005728753484581582
0.005728753483252695
0.005728753484340374
0.005728753484644374
0.005728753483219453
0.00572875348462026
0.00572875348514443
0.005728753483800785
0.00572875348455047
0.005728753485019184
0.005728753484204397
0.005728753484415724
0.005728753484601867
0.005728753483991786
0.005728753484450911
0.005728753484499503
0.00631555878531548
0.006315558786317466
0.006315558787042418
0.006315558786123393
0.006315558785968409
0.006315558785221086
0.00631555878541033
0.006315558784919668
0.006315558785959339
0.00631555878628721
0.00631555878578298
0.006315558786611189
0.006315558786831613
0.006315558785581764
0.006315558786227429
0.006315558786660581
0.006315558785710972
0.006315558786851726
0.006315558787070265
0.006315558786488215
0.006315558786543191
0.006315558786663836
0.006315558786760704
0.006315558786745476
0.006315558786699604
0.006315558786087095
0.006315558786392993
0.006315558786724716
0.006315558785972826
0.006315558786466719
0.006315558786596917
0.006315558785958087
0.006315558785889966
0.006315558785953847
0.006315558785892427
0.006315558786129686
0.006315558786437273
0.006315558786355964
0.006315558786326906
0.006315558786417395
0.006315558786101414
0.006315558786571768
0.0063155587867033
0.006315558785558238
0.006315558786528372
0.006315558786848383
0.006315558785585192
0.006315558786791456
0.006315558787264166
0.006315558786075521
0.006315558786759139
0.006315558787218033
0.006315558786553765
0.006315558786879649
0.006315558786909556
0.006315558785898701
0.006315558786391963
0.006315558786640991
0.006873946178089113
0.00687394617879758
0.006873946179426417
0.006873946178587054
0.006873946178443047
0.006873946177851671
0.006873946177997182
0.006873946177549893
0.006873946178523885
0.006873946178871939
0.006873946178426299
0.00687394617915746
0.006873946179365373
0.006873946178372224
0.006873946178888681
0.006873946179244243
0.00687394617844727
0.00687394617950261
0.006873946179744159
0.006873946179259138
0.00687394617932325
0.006873946179452253
0.006873946179327456
0.00687394617946708
0.006873946179495569
0.006873946178919679
0.006873946179088866
0.006873946179385713
0.006873946178977886
0.006873946179283707
0.006873946179378233
0.006873946178804656
0.006873946178858136
0.006873946178632041
0.00687394617891451
0.006873946179360676
0.006873946179122601
0.006873946178907028
0.006873946179083368
0.006873946179080292
0.006873946179059109
0.00687394617919897
0.006873946179176213
0.006873946178401211
0.006873946179218772
0.006873946179539471
0.006873946178475505
0.006873946179467958
0.006873946179897641
0.006873946178954246
0.006873946179469115
0.006873946179819302
0.006873946179196997
0.006873946179510789
0.006873946179527534
0.006873946178502288
0.006873946178936493
0.00687394617922319
0.007395675456515248
0.007395675456961031
0.007395675457490365
0.007395675456720758
0.007395675456622898
0.0073956754562182
0.007395675456299031
0.007395675455929187
0.007395675456756857
0.007395675457052165
0.007395675456590255
0.007395675457239485
0.007395675457523567
0.007395675456847516
0.007395675457208456
0.007395675457469957
0.007395675456844351
0.007395675457798688
0.007395675458081106
0.007395675457702588
0.007395675457732836
0.00739567545784117
0.007395675457793192
0.007395675457902711
0.007395675457836768
0.007395675457427341
0.007395675457391201
0.007395675457525334
0.007395675457407496
0.007395675457655453
0.007395675457730803
0.007395675457330287
0.007395675457374619
0.007395675457111927
0.007395675457482208
0.007395675457902962
0.007395675457677057
0.007395675457609134
0.007395675457641454
0.007395675457281757
0.007395675457343462
0.007395675457581288
0.00739567545754632
0.007395675456991088
0.007395675457633134
0.007395675457922969
0.007395675457098806
0.007395675457853774
0.007395675458204235
0.007395675457464746
0.007395675457814621
0.00739567545808222
0.007395675457568184
0.007395675457721238
0.007395675457703116
0.007395675456860719
0.007395675457162039
0.007395675457414565
0.007876542244079333
0.007876542244306983
0.007876542244716053
0.007876542243949293
0.007876542243911374
0.007876542243795338
0.007876542243843846
0.007876542243527561
0.007876542244171997
0.007876542244383002
0.007876542243960507
0.00787654224447127
0.007876542244802361
0.007876542244471913
0.007876542244695204
0.007876542244850415
0.00787654224442642
0.007876542245262448
0.007876542245569006
0.007876542245267676
0.007876542245209962
0.00787654224529803
0.007876542245363679
0.007876542245339079
0.00787654224516241
0.007876542245095843
0.007876542245039954
0.007876542245219879
0.007876542245299501
0.007876542245268521
0.007876542245272936
0.007876542245046841
0.007876542245033827
0.007876542244783622
0.007876542245089218
0.007876542245397848
0.007876542245193692
0.007876542245355334
0.007876542245370854
0.007876542244930425
0.007876542244932536
0.00787654224521411
0.007876542245229592
0.007876542244793047
0.007876542245263803
0.007876542245500221
0.007876542244920971
0.007876542245445452
0.007876542245702223
0.007876542245192655
0.007876542245368035
0.00787654224549383
0.007876542245062698
0.00787654224497694
0.00787654224494278
0.007876542244411951
0.007876542244539854
0.007876542244711685
0.008314949856072978
0.008314949856142348
0.008314949856466839
0.008314949855849747
0.008314949855818111
0.008314949855772535
0.008314949855795084
0.008314949855606895
0.008314949856073561
0.008314949856191812
0.008314949855888131
0.008314949856195025
0.008314949856481289
0.008314949856443068
0.008314949856606142
0.008314949856692334
0.008314949856490825
0.00831494985719022
0.008314949857497297
0.008314949857266688
0.008314949857224538
0.008314949857243967
0.008314949857237778
0.008314949857280998
0.008314949857231448
0.008314949857212924
0.00831494985707066
0.008314949857236728
0.008314949857326037
0.008314949857185335
0.008314949857178731
0.008314949857017546
0.00831494985698859
0.008314949856875689
0.008314949857070226
0.008314949857248672
0.008314949857098625
0.008314949857346066
0.008314949857405904
0.00831494985716053
0.008314949857114907
0.008314949857226755
0.008314949857302131
0.008314949857063669