/*--------------------------------*- C++ -*----------------------------------*\
| =========                 |                                                 |
| \\      /  F ield         | OpenFOAM: The Open Source CFD Toolbox           |
|  \\    /   O peration     | Version:  v1812                                 |
|   \\  /    A nd           | Web:      www.OpenFOAM.com                      |
|    \\/     M anipulation  |                                                 |
\*---------------------------------------------------------------------------*/
FoamFile
{
    version     2.0;
    format      ascii;
    class       volScalarField;
    location    "10000";
    object      nuTilda_0;
}
// * * * * * * * * * * * * * * * * * * * * * * * * * * * * * * * * * * * * * //

dimensions      [0 2 -1 0 0 0 0];


internalField   nonuniform List<scalar> 
3770
(
0.0004956171847058555
0.0004956171847042295
0.0004956171847028485
0.0004956171847078626
0.0004956171847089382
0.000495617184705778
0.0004956171847052138
0.0004956171847067496
0.0004956171847074408
0.0004956171847052944
0.0004956171847048827
0.0004956171847060269
0.0004956171847056169
0.0004956171847042204
0.0004956171847038328
0.0004956171847077515
0.000495617184707491
0.000495617184705519
0.000495617184706152
0.0004956171847059177
0.000495617184705828
0.000495617184705298
0.0004956171847041809
0.0004956171847067659
0.0004956171847087715
0.0004956171847062804
0.0004956171847063047
0.000495617184707121
0.0004956171847068407
0.0004956171847062924
0.0004956171847060792
0.0004956171847072527
0.0004956171847061763
0.0004956171847067928
0.0004956171847068466
0.0004956171847069091
0.0004956171847071802
0.0004956171847052273
0.0004956171847060285
0.0004956171847072167
0.0004956171847058248
0.0004956171847037173
0.0004956171847052855
0.0004956171847070738
0.0004956171847066521
0.0004956171847069388
0.0004956171847079799
0.0004956171847066754
0.0004956171847054376
0.0004956171847058605
0.000495617184704278
0.0004956171847035655
0.0004956171847049627
0.0004956171847070134
0.000495617184705532
0.0004956171847071547
0.0004956171847074119
0.0004956171847062473
0.000327721404452477
0.000327721404486615
0.0003277214044143975
0.0003277214044977566
0.000327721404476606
0.0003277214044777982
0.0003277214044833299
0.0003277214045263866
0.0003277214044841923
0.0003277214044647274
0.0003277214044696293
0.0003277214045063405
0.0003277214044967994
0.0003277214044815236
0.0003277214044566233
0.0003277214045185528
0.0003277214045159246
0.0003277214045098721
0.0003277214044790243
0.0003277214044559425
0.0003277214044901013
0.0003277214045066562
0.0003277214044570085
0.0003277214045070542
0.000327721404514937
0.000327721404494848
0.0003277214044754276
0.0003277214044988508
0.0003277214044765463
0.0003277214044874431
0.0003277214045113639
0.0003277214044945496
0.0003277214044702125
0.0003277214044954899
0.0003277214044847832
0.0003277214044935835
0.0003277214044983996
0.0003277214044615941
0.0003277214044623268
0.0003277214044623277
0.0003277214044648476
0.0003277214044519935
0.0003277214044739399
0.0003277214044724478
0.0003277214044781216
0.0003277214044854344
0.0003277214044803422
0.0003277214044699509
0.0003277214044389109
0.0003277214044678348
0.0003277214044530994
0.0003277214044262442
0.0003277214044518102
0.0003277214044768211
0.0003277214044454103
0.0003277214044671459
0.0003277214044912474
0.0003277214044492185
0.0004311975630888667
0.0004311975631924737
0.0004311975629808259
0.000431197563240436
0.0004311975631631413
0.0004311975631741132
0.0004311975631515352
0.0004311975632882593
0.00043119756320363
0.0004311975631592598
0.0004311975630830132
0.0004311975631667998
0.0004311975631409185
0.0004311975631554844
0.000431197563038605
0.0004311975632623255
0.0004311975632547293
0.0004311975632462463
0.0004311975631406063
0.0004311975630702995
0.0004311975631736025
0.0004311975632351266
0.0004311975631146164
0.0004311975632490199
0.0004311975632737047
0.0004311975631462195
0.0004311975630643931
0.0004311975631741287
0.0004311975631936851
0.0004311975631712377
0.000431197563211314
0.0004311975632716103
0.0004311975631298394
0.0004311975631576771
0.0004311975631361968
0.0004311975631383767
0.0004311975631890461
0.0004311975631069469
0.0004311975630924814
0.0004311975631344483
0.0004311975630962041
0.000431197563040271
0.0004311975631151627
0.0004311975631142197
0.0004311975631126523
0.0004311975631331083
0.0004311975631302029
0.0004311975630865445
0.0004311975630239003
0.0004311975631083978
0.0004311975630688067
0.000431197563029357
0.0004311975630281897
0.0004311975631316273
0.0004311975630820454
0.0004311975631141081
0.0004311975631784283
0.0004311975630853589
0.0005887494512314413
0.000588749451415364
0.000588749451132363
0.0005887494514051611
0.0005887494511883331
0.0005887494511849745
0.0005887494512056468
0.0005887494514662647
0.0005887494513390837
0.0005887494513533795
0.000588749451207489
0.0005887494511080032
0.000588749451131981
0.0005887494513425699
0.000588749451278387
0.0005887494514573732
0.0005887494513888397
0.0005887494513662013
0.0005887494513455353
0.0005887494512513196
0.0005887494513813714
0.0005887494514587371
0.0005887494513530966
0.0005887494514538818
0.000588749451410829
0.0005887494512842956
0.0005887494512697301
0.0005887494512752986
0.0005887494514156825
0.0005887494513178394
0.0005887494513076384
0.0005887494514554264
0.0005887494513009281
0.0005887494513052633
0.0005887494512683382
0.0005887494512657541
0.0005887494513203601
0.0005887494512844399
0.0005887494511910138
0.0005887494512747618
0.0005887494512144286
0.0005887494511244602
0.0005887494512706463
0.0005887494512345999
0.0005887494511830868
0.0005887494512785084
0.0005887494512581724
0.0005887494511676242
0.0005887494511616562
0.0005887494512288582
0.0005887494511864626
0.0005887494512689072
0.0005887494512641638
0.0005887494512963191
0.0005887494512126684
0.0005887494511769977
0.0005887494512671816
0.0005887494511677125
0.0007559349275765847
0.0007559349278869583
0.0007559349276520222
0.0007559349277719778
0.0007559349275283237
0.0007559349274302665
0.000755934927426885
0.0007559349278348511
0.00075593492761398
0.0007559349276219998
0.0007559349276337349
0.0007559349273355986
0.0007559349273910966
0.0007559349277649088
0.0007559349277840419
0.0007559349278709172
0.0007559349276979533
0.0007559349277615466
0.0007559349278459771
0.0007559349276089794
0.0007559349278292999
0.0007559349278631567
0.0007559349276906479
0.0007559349277814548
0.0007559349277148511
0.0007559349275752051
0.0007559349277270669
0.0007559349274716655
0.0007559349277986532
0.0007559349277839482
0.0007559349275774991
0.0007559349278493979
0.0007559349277964883
0.0007559349276339152
0.0007559349277050787
0.0007559349275665829
0.0007559349276212074
0.0007559349275900655
0.0007559349275629334
0.0007559349275804267
0.0007559349276448212
0.000755934927558942
0.0007559349276218563
0.0007559349274441255
0.0007559349275135177
0.0007559349276173473
0.0007559349275501129
0.0007559349275302753
0.0007559349276452748
0.0007559349275442506
0.0007559349275677488
0.0007559349276782558
0.0007559349275766946
0.0007559349276281536
0.0007559349274710249
0.0007559349275022478
0.0007559349276171135
0.0007559349275116778
0.0009273636226467347
0.0009273636230909343
0.0009273636228643678
0.000927363622841148
0.0009273636227828519
0.0009273636224564337
0.0009273636224476174
0.0009273636229810255
0.0009273636228095995
0.0009273636227610468
0.0009273636227924819
0.0009273636222877588
0.0009273636224057196
0.0009273636228872428
0.0009273636229797475
0.0009273636230472885
0.0009273636227295549
0.000927363623011969
0.0009273636231205554
0.0009273636227538374
0.0009273636230331438
0.0009273636230487262
0.0009273636227482361
0.0009273636230272972
0.0009273636229695581
0.0009273636226625579
0.0009273636229128468
0.0009273636224657579
0.0009273636229261401
0.0009273636229906051
0.0009273636227070764
0.0009273636230016301
0.0009273636230544409
0.0009273636228796882
0.0009273636228713249
0.0009273636225469357
0.0009273636226599281
0.0009273636228292519
0.0009273636227605843
0.000927363622645519
0.0009273636227819204
0.0009273636226541749
0.0009273636227136106
0.0009273636224463401
0.0009273636226022059
0.0009273636226669574
0.0009273636225387709
0.0009273636227342672
0.0009273636228414724
0.0009273636225648321
0.000927363622805487
0.0009273636228259529
0.0009273636225389866
0.0009273636227383318
0.0009273636224585495
0.0009273636226852495
0.0009273636227492573
0.0009273636227381981
0.001103497151022369
0.001103497151652492
0.001103497151427378
0.001103497151341974
0.001103497151380371
0.001103497150878651
0.001103497150833043
0.001103497151495427
0.001103497151522504
0.001103497151376108
0.001103497151324768
0.001103497150576
0.001103497150774189
0.00110349715135284
0.001103497151535433
0.001103497151614417
0.001103497151124635
0.001103497151596986
0.001103497151809996
0.001103497151327115
0.001103497151604647
0.001103497151630798
0.001103497151157836
0.001103497151602483
0.001103497151675776
0.001103497151232616
0.001103497151469456
0.001103497150846048
0.001103497151373768
0.001103497151581718
0.001103497151173915
0.001103497151562037
0.001103497151701248
0.001103497151446113
0.001103497151418917
0.001103497150808841
0.001103497151045893
0.001103497151396656
0.001103497151265778
0.001103497151132626
0.001103497151263176
0.00110349715111199
0.001103497151160736
0.001103497150892997
0.001103497150984156
0.001103497151039152
0.001103497150864084
0.00110349715125223
0.00110349715141708
0.001103497150937474
0.001103497151343894
0.001103497151418727
0.001103497151008324
0.001103497151233816
0.001103497150770145
0.001103497151140001
0.001103497151292266
0.001103497151290472
0.001286644633164316
0.001286644634022556
0.001286644633948128
0.0012866446336412
0.001286644633778497
0.001286644633163783
0.001286644633046447
0.001286644633782782
0.001286644633997268
0.001286644633725279
0.00128664463366597
0.001286644632654381
0.001286644632983346
0.001286644633658637
0.00128664463395938
0.001286644634008598
0.001286644633373206
0.001286644634050964
0.001286644634346539
0.001286644633771317
0.001286644634015119
0.0012866446340406
0.001286644633381954
0.001286644633981741
0.001286644634200819
0.001286644633623192
0.001286644633839219
0.001286644633023354
0.0012866446336901
0.001286644633996387
0.001286644633413026
0.001286644633925913
0.001286644634167215
0.00128664463380359
0.001286644633784641
0.001286644632993368
0.001286644633261129
0.001286644633771843
0.00128664463364283
0.001286644633443105
0.001286644633515932
0.001286644633380072
0.001286644633376411
0.001286644633230512
0.001286644633147234
0.00128664463315424
0.001286644632979252
0.001286644633583239
0.001286644633831056
0.001286644633132117
0.001286644633679556
0.00128664463386666
0.001286644633343392
0.001286644633552321
0.001286644632836042
0.001286644633313001
0.001286644633697327
0.00128664463367107
0.001481135934535199
0.001481135935610654
0.001481135935791965
0.001481135935246751
0.001481135935369192
0.00148113593477162
0.001481135934508744
0.001481135935343038
0.001481135935692996
0.001481135935284221
0.001481135935232501
0.001481135933975752
0.001481135934473683
0.001481135935255685
0.001481135935589129
0.001481135935649694
0.001481135934900782
0.001481135935791641
0.001481135936136696
0.001481135935390171
0.001481135935692383
0.0014811359356974
0.001481135934875956
0.001481135935616654
0.001481135935954641
0.001481135935240863
0.001481135935447606
0.001481135934448253
0.001481135935273743
0.00148113593565916
0.001481135934900873
0.001481135935538659
0.001481135935861427
0.001481135935372969
0.001481135935378935
0.001481135934507791
0.001481135934779639
0.001481135935393753
0.001481135935258331
0.001481135934981758
0.001481135934943461
0.001481135934873262
0.001481135934860482
0.001481135934745607
0.001481135934471458
0.001481135934422696
0.001481135934349409
0.001481135935194262
0.001481135935517119
0.001481135934661574
0.001481135935339941
0.001481135935574776
0.001481135934938741
0.001481135935127198
0.001481135934144044
0.001481135934937915
0.001481135935392207
0.001481135935324364
0.001694205808177249
0.00169420580945912
0.001694205809859357
0.001694205809075278
0.001694205809169998
0.001694205808540608
0.001694205808223687
0.001694205809165652
0.001694205809571205
0.001694205809032514
0.001694205808981655
0.001694205807528293
0.001694205808207777
0.001694205809151735
0.001694205809488483
0.001694205809496653
0.001694205808679365
0.001694205809746174
0.001694205810131589
0.001694205809273125
0.001694205809577464
0.001694205809562574
0.001694205808623984
0.001694205809483676
0.001694205809896005
0.00169420580904291
0.001694205809254981
0.001694205808115434
0.001694205809092896
0.001694205809527277
0.00169420580863842
0.001694205809414525
0.001694205809732264
0.001694205809064429
0.00169420580915394
0.001694205808341656
0.0016942058086082
0.001694205809245242
0.001694205809040847
0.001694205808729595
0.001694205808633546
0.001694205808615035
0.001694205808557345
0.001694205808376836
0.001694205808263822
0.00169420580782531
0.001694205807971341
0.001694205809081739
0.001694205809446286
0.001694205808515793
0.001694205809239647
0.001694205809497579
0.001694205808749086
0.001694205808930951
0.001694205807772093
0.001694205808729663
0.001694205809294749
0.001694205809211551
0.001936268330128567
0.001936268331634676
0.001936268332151721
0.001936268331143903
0.001936268331225224
0.001936268330564414
0.001936268330257657
0.001936268331187854
0.001936268331620983
0.001936268330970327
0.001936268330915482
0.001936268329339811
0.001936268330257318
0.001936268331244621
0.00193626833148262
0.001936268331528014
0.001936268330718701
0.001936268331909323
0.00193626833230543
0.001936268331413919
0.001936268331669627
0.001936268331628799
0.001936268330630115
0.001936268331587004
0.001936268332027629
0.001936268331040195
0.00193626833125728
0.001936268330046912
0.001936268331135798
0.001936268331592333
0.001936268330672767
0.001936268331452169
0.001936268331782629
0.001936268331118178
0.001936268331159986
0.001936268330538743
0.001936268330751385
0.001936268331295291
0.001936268330991838
0.00193626833092044
0.001936268330721983
0.001936268330715146
0.001936268330444019
0.001936268330214282
0.001936268330265913
0.00193626832964189
0.001936268329890833
0.001936268331245913
0.001936268331631972
0.001936268330717812
0.001936268331437323
0.001936268331632557
0.001936268330776001
0.001936268330972111
0.001936268329709618
0.001936268330731159
0.00193626833140431
0.001936268331329127
0.00221997495661845
0.002219974958262409
0.002219974958923105
0.002219974957767296
0.002219974957829509
0.002219974957141299
0.002219974956888419
0.002219974957626424
0.002219974958057266
0.002219974957327708
0.002219974957279454
0.002219974955684168
0.002219974956854812
0.002219974957820591
0.002219974957805115
0.002219974957954253
0.002219974957283328
0.00221997495849907
0.002219974958828115
0.002219974958092185
0.00221997495820081
0.002219974958116684
0.002219974957140183
0.002219974958201398
0.002219974958595987
0.002219974957487871
0.002219974957684354
0.002219974956494759
0.002219974957587685
0.002219974958085986
0.002219974957246805
0.00221997495792302
0.002219974958235777
0.002219974957489512
0.002219974957538104
0.002219974957409956
0.002219974957466887
0.002219974957742565
0.002219974957368879
0.002219974957475642
0.002219974957244046
0.002219974957174024
0.00221997495676777
0.002219974956523759
0.00221997495679676
0.002219974956124042
0.002219974956336533
0.002219974957917001
0.00221997495832709
0.002219974957513068
0.0022199749581544
0.002219974958219693
0.002219974957268649
0.002219974957501253
0.002219974956219714
0.002219974957215084
0.002219974957965735
0.002219974957911579
0.002557930738314885
0.002557930740059321
0.002557930740880732
0.002557930739817789
0.002557930739796079
0.002557930739007769
0.002557930738858964
0.002557930739152526
0.002557930739549097
0.002557930738777428
0.002557930738762932
0.002557930737305958
0.00255793073871227
0.002557930739409016
0.002557930739239738
0.002557930739546096
0.002557930739131961
0.002557930740164704
0.002557930740428355
0.002557930739755192
0.002557930739815046
0.00255793073974733
0.00255793073892138
0.002557930739895306
0.002557930740293611
0.002557930739114084
0.002557930739245223
0.002557930738163566
0.002557930739081698
0.002557930739693208
0.002557930739109798
0.002557930739567886
0.002557930739819214
0.002557930738951378
0.002557930739366136
0.002557930739405323
0.002557930739286036
0.002557930739194252
0.00255793073884999
0.002557930739146036
0.00255793073890606
0.002557930738680622
0.002557930738649493
0.002557930738405359
0.002557930738588354
0.002557930738028183
0.002557930738025011
0.002557930739769404
0.002557930740233706
0.002557930739572052
0.002557930740059477
0.002557930739960814
0.002557930738949038
0.002557930739233162
0.00255793073803692
0.002557930738901666
0.002557930739679927
0.002557930739649683
0.002959453249726258
0.002959453251540676
0.002959453252494593
0.002959453251465928
0.002959453251507299
0.002959453250629904
0.002959453250743465
0.002959453250396768
0.002959453250575981
0.002959453249692071
0.002959453249802062
0.002959453248770694
0.002959453250221983
0.002959453250851585
0.002959453250667351
0.002959453250898797
0.002959453250821941
0.002959453251531899
0.002959453251615199
0.002959453250989184
0.002959453250880018
0.002959453251001661
0.002959453250525758
0.002959453251315111
0.002959453251655439
0.002959453250558558
0.002959453250517559
0.002959453249711828
0.00295945325018152
0.002959453250927759
0.002959453250997644
0.002959453251045996
0.002959453251097804
0.002959453249905778
0.002959453250715306
0.002959453250808875
0.002959453250590398
0.002959453250674012
0.00295945325035813
0.002959453250562434
0.002959453250146607
0.002959453250066725
0.002959453250394109
0.002959453249853705
0.002959453249947697
0.002959453249981427
0.002959453249585021
0.002959453251281767
0.002959453251851829
0.002959453251332156
0.002959453251613046
0.002959453251368255
0.00295945325036203
0.002959453250686506
0.002959453249730025
0.002959453250311464
0.002959453251049911
0.002959453251053137
0.003427249859303194
0.003427249861138695
0.003427249862204798
0.00342724986121181
0.003427249861135977
0.003427249859882978
0.003427249860159768
0.003427249859510364
0.003427249859518629
0.003427249858925293
0.003427249859064779
0.003427249858528638
0.003427249859799828
0.003427249860605919
0.003427249860728071
0.003427249860513393
0.003427249860808963
0.003427249860972584
0.003427249860820416
0.003427249860583829
0.00342724986060295
0.0034272498607526
0.003427249860511762
0.00342724986087742
0.00342724986105762
0.00342724985975502
0.003427249859586336
0.003427249859659765
0.003427249859406548
0.003427249860322174
0.003427249860893705
0.003427249860648252
0.003427249860571428
0.003427249859303774
0.003427249860190703
0.003427249860609306
0.003427249859889374
0.003427249860115041
0.003427249860252766
0.003427249860346226
0.003427249859778248
0.003427249860233505
0.003427249860468637
0.003427249859042746
0.003427249859857435
0.003427249860271468
0.003427249859163952
0.003427249860883785
0.003427249861536155
0.003427249861106591
0.003427249861228181
0.003427249860869664
0.003427249859937086
0.003427249860267391
0.003427249859780625
0.003427249859813527
0.003427249860424792
0.003427249860571745
0.003955212832528796
0.003955212834328154
0.003955212835432692
0.003955212834462651
0.003955212834357422
0.003955212833061571
0.00395521283325525
0.003955212832278645
0.003955212832685436
0.003955212832736566
0.003955212832018933
0.003955212831994449
0.003955212833142544
0.003955212833471206
0.003955212833881792
0.003955212833324792
0.003955212833903841
0.003955212834367567
0.003955212833757186
0.003955212833765695
0.003955212833580129
0.003955212833935079
0.003955212834542835
0.003955212834273317
0.003955212834177277
0.003955212833314468
0.003955212833479444
0.00395521283347623
0.003955212832509542
0.003955212833502709
0.003955212834261403
0.003955212833859048
0.003955212833708094
0.003955212832540509
0.003955212833268088
0.003955212833685492
0.003955212832837514
0.003955212833261498
0.003955212833376273
0.003955212833570461
0.003955212833058636
0.003955212833767148
0.003955212833948347
0.003955212832225098
0.003955212833398488
0.003955212833893857
0.003955212832402823
0.003955212834115993
0.003955212834776105
0.003955212834288151
0.00395521283452289
0.00395521283418718
0.003955212833226217
0.003955212833377804
0.003955212832987872
0.003955212832865793
0.003955212833698742
0.003955212833851405
0.00452858326226354
0.0045285832639637
0.004528583265003667
0.004528583263994691
0.00452858326398365
0.004528583263073797
0.004528583263093899
0.004528583262189139
0.004528583262904353
0.0045285832628957
0.004528583261875149
0.004528583262782123
0.004528583263767164
0.004528583262806632
0.00452858326280986
0.004528583262830133
0.004528583263516124
0.004528583264303963
0.00452858326414981
0.004528583263983223
0.004528583263455124
0.004528583263780048
0.004528583264359841
0.004528583263438322
0.004528583263454191
0.004528583262741291
0.004528583263218352
0.00452858326357749
0.004528583262295431
0.004528583263251939
0.004528583263931501
0.004528583263407029
0.004528583263252207
0.004528583262447631
0.004528583262865548
0.00452858326336503
0.004528583262644287
0.004528583262929351
0.004528583263073775
0.00452858326335811
0.004528583262866111
0.004528583263664656
0.004528583263814986
0.004528583262092175
0.00452858326337335
0.004528583263829588
0.004528583262196753
0.004528583263855137
0.004528583264630979
0.00452858326390768
0.004528583264336526
0.004528583264280541
0.004528583263241319
0.004528583262868404
0.004528583263071147
0.004528583262681595
0.004528583263356535
0.004528583263734056
0.005126930211081558
0.005126930212586767
0.005126930213480604
0.005126930212166224
0.005126930212258509
0.005126930211869229
0.005126930211820595
0.005126930210852744
0.00512693021180579
0.00512693021193762
0.005126930211026808
0.005126930212167452
0.005126930212830058
0.005126930211570404
0.005126930212033769
0.005126930212476243
0.00512693021211452
0.005126930213053837
0.005126930213455854
0.00512693021305359
0.005126930212549199
0.005126930212665917
0.005126930212892765
0.005126930212025861
0.005126930212165715
0.005126930211639489
0.005126930212110276
0.005126930212496343
0.005126930211271539
0.005126930212083555
0.005126930212428794
0.00512693021151016
0.005126930211390564
0.005126930211604538
0.005126930211644543
0.005126930212200133
0.005126930211904213
0.005126930211763103
0.005126930211962202
0.005126930212208913
0.005126930211670665
0.005126930212479424
0.005126930212663514
0.005126930211052134
0.005126930212296282
0.005126930212704821
0.005126930211086064
0.005126930212621056
0.005126930213314268
0.005126930212172378
0.005126930212857879
0.005126930213192149
0.005126930212474818
0.005126930212248798
0.005126930212264885
0.005126930211705951
0.005126930212243521
0.005126930212562553
0.0057287534964876
0.00572875349772782
0.005728753498482776
0.005728753497331029
0.005728753497425044
0.005728753497061584
0.00572875349700422
0.005728753496070831
0.005728753497140865
0.005728753497420538
0.005728753496777822
0.005728753497823895
0.005728753498194207
0.005728753496958394
0.005728753497516757
0.005728753497940576
0.005728753497082383
0.005728753498242907
0.005728753498904142
0.005728753498444273
0.005728753498096622
0.005728753497793708
0.005728753497663994
0.005728753497381544
0.005728753497606665
0.005728753497346781
0.005728753497645571
0.005728753497846953
0.00572875349691531
0.00572875349755901
0.005728753497964841
0.005728753497097619
0.005728753497110977
0.005728753497425328
0.005728753496895486
0.005728753497357195
0.005728753497498428
0.005728753497377851
0.005728753497397824
0.005728753497542142
0.005728753497007281
0.00572875349775702
0.005728753498002639
0.005728753496541665
0.005728753497672679
0.00572875349806631
0.005728753496576721
0.005728753497939604
0.005728753498533949
0.005728753497260554
0.005728753498011949
0.005728753498491642
0.005728753497841709
0.005728753497872306
0.00572875349789659
0.005728753497494173
0.005728753497858689
0.005728753497892992
0.00631555879726573
0.006315558798215246
0.006315558798853406
0.006315558797780533
0.006315558797876933
0.006315558797592711
0.006315558797541773
0.006315558796697425
0.006315558797770226
0.006315558798131793
0.006315558797652352
0.006315558798558455
0.006315558798788173
0.006315558797668119
0.006315558798188518
0.006315558798568331
0.006315558797639528
0.006315558798825086
0.006315558799409531
0.006315558798724064
0.006315558798388431
0.00631555879853635
0.006315558798542306
0.006315558798404581
0.00631555879841857
0.006315558798254923
0.006315558798368582
0.006315558798524122
0.006315558798034386
0.006315558798451468
0.006315558798724021
0.006315558798286121
0.006315558798054914
0.006315558798019598
0.006315558797829423
0.006315558797900587
0.006315558798226276
0.006315558798269524
0.006315558797924592
0.006315558798053984
0.006315558797856185
0.006315558798453463
0.006315558798647865
0.006315558797392486
0.006315558798358109
0.006315558798747595
0.006315558797457117
0.006315558798620221
0.006315558799152248
0.006315558798056053
0.006315558798671767
0.006315558799070565
0.006315558798362584
0.006315558798802672
0.006315558798862849
0.006315558797913592
0.006315558798314353
0.006315558798544872
0.006873946188284481
0.006873946188955398
0.006873946189510544
0.006873946188536989
0.006873946188607395
0.006873946188394505
0.00687394618834976
0.006873946187625245
0.006873946188610423
0.006873946188981009
0.006873946188564422
0.006873946189346757
0.006873946189558722
0.006873946188670904
0.006873946189081423
0.00687394618939305
0.006873946188571807
0.006873946189666222
0.006873946190108297
0.006873946189470595
0.006873946189265448
0.006873946189452746
0.006873946189329676
0.006873946189560644
0.006873946189622819
0.0068739461892691
0.006873946189335091
0.006873946189519341
0.006873946189340206
0.006873946189540515
0.006873946189623121
0.006873946189305203
0.006873946189250901
0.006873946188897235
0.006873946189132832
0.006873946189529567
0.006873946189410836
0.006873946189407038
0.006873946189314327
0.006873946189120254
0.006873946189109905
0.006873946189537863
0.006873946189522598
0.006873946188548315
0.006873946189314252
0.006873946189674058
0.006873946188626895
0.006873946189566029
0.006873946190036901
0.006873946189265972
0.006873946189675652
0.006873946189901885
0.006873946189198469
0.006873946189659334
0.006873946189759846
0.006873946188760478
0.006873946189120401
0.006873946189393445
0.007395675464784174
0.007395675465210606
0.007395675465703079
0.007395675464849053
0.007395675464861318
0.007395675464701942
0.007395675464681406
0.007395675464110399
0.0073956754649449
0.007395675465266888
0.007395675464846542
0.007395675465516191
0.007395675465793351
0.007395675465220343
0.007395675465488795
0.007395675465708199
0.007395675465073962
0.007395675466037172
0.00739567546646713
0.007395675465990151
0.007395675465850756
0.007395675465984878
0.007395675465888555
0.007395675466119017
0.007395675466126105
0.007395675465841019
0.00739567546585072
0.007395675465907189
0.007395675465924649
0.007395675465949209
0.007395675465972949
0.007395675465816773
0.007395675465792138
0.00739567546545634
0.007395675465791882
0.007395675466152054
0.007395675465866254
0.007395675466077801
0.00739567546605692
0.007395675465502898
0.007395675465557287
0.007395675465946684
0.00739567546592555
0.00739567546525392
0.007395675465826704
0.007395675466132677
0.007395675465340687
0.00739567546604406
0.007395675466414646
0.007395675465776325
0.007395675466060416
0.007395675466274993
0.0073956754657156
0.007395675465977174
0.007395675466022121
0.007395675465188645
0.007395675465431058
0.007395675465668655
0.007876542250310429
0.007876542250536174
0.007876542250966569
0.007876542250243495
0.007876542250131994
0.007876542249945648
0.007876542250039207
0.007876542249699674
0.007876542250351504
0.007876542250592653
0.00787654225019452
0.007876542250711344
0.007876542251049964
0.007876542250871012
0.007876542250996476
0.007876542251069391
0.00787654225066018
0.00787654225148331
0.007876542251968585
0.007876542251721064
0.007876542251616511
0.007876542251591406
0.007876542251576833
0.007876542251700498
0.007876542251603693
0.007876542251441092
0.00787654225135875
0.007876542251545141
0.007876542251614485
0.007876542251476363
0.007876542251488945
0.007876542251279485
0.007876542251283772
0.007876542251114992
0.007876542251375516
0.007876542251628564
0.00787654225135187
0.007876542251622615
0.00787654225164631
0.007876542251164905
0.007876542251166269
0.007876542251410091
0.007876542251443857
0.007876542251038593
0.007876542251450052
0.007876542251689852
0.007876542251144432
0.007876542251620874
0.007876542251878837
0.007876542251424711
0.0078765422515792
0.007876542251730201
0.007876542251389534
0.007876542251330346
0.007876542251229178
0.007876542250694318
0.007876542250771341
0.007876542250927437
0.008314949860200599
0.008314949860276269
0.008314949860637738
0.008314949860074628
0.008314949859969922
0.008314949859841747
0.008314949859908452
0.008314949859711608
0.008314949860182675
0.008314949860331131
0.008314949860046838
0.008314949860337241
0.008314949860659938
0.008314949860758749
0.008314949860783669
0.008314949860796242
0.008314949860642682
0.00831494986132515
0.008314949861755471
0.008314949861620919
0.008314949861590277
0.008314949861552836
0.008314949861541682
0.008314949861509548
0.008314949861380186
0.008314949861390532
0.008314949861305014
0.00831494986148037
0.008314949861629959
0.008314949861528496
0.008314949861453346
0.008314949861257031
0.008314949861218534
0.008314949861122635
0.008314949861267776
0.008314949861399041
0.008314949861206188
0.008314949861497299
0.008314949861575991
0.008314949861318156
0.008314949861296319
0.008314949861304745
0.008314949861371214
0.008314949861217861