/*--------------------------------*- C++ -*----------------------------------*\
| =========                 |                                                 |
| \\      /  F ield         | OpenFOAM: The Open Source CFD Toolbox           |
|  \\    /   O peration     | Version:  v1812                                 |
|   \\  /    A nd           | Web:      www.OpenFOAM.com                      |
|    \\/     M anipulation  |                                                 |
\*---------------------------------------------------------------------------*/
FoamFile
{
    version     2.0;
    format      ascii;
    class       volScalarField;
    location    "10000";
    object      p;
}
// * * * * * * * * * * * * * * * * * * * * * * * * * * * * * * * * * * * * * //

dimensions      [0 2 -2 0 0 0 0];


internalField   nonuniform List<scalar> 
3770
(
-1.143893861511072e-14
-6.145591941510829e-13
3.098998859826008e-11
2.500419517290388e-11
4.332387570687742e-11
4.136544073515979e-11
5.251536867528112e-11
5.114466301270168e-11
5.910294780608245e-11
5.883246840710567e-11
6.414013016460366e-11
6.285694892063731e-11
6.618445440363799e-11
6.609512931152533e-11
7.014905471700301e-11
6.978190682288477e-11
7.155018998923469e-11
7.079490630346788e-11
7.385425138528216e-11
7.349285505675076e-11
7.443613559729349e-11
7.425822243646118e-11
7.527205664777475e-11
7.458840486116311e-11
7.629375633582142e-11
7.621573151668574e-11
7.708186365586279e-11
7.661690524080687e-11
7.715183885270362e-11
7.721512269177922e-11
7.861923105549958e-11
7.787896812695328e-11
7.871429563037825e-11
7.794956328735648e-11
7.690728473737288e-11
7.691121312141803e-11
7.612668715314101e-11
7.517829911234949e-11
7.520711977764492e-11
7.428557963508667e-11
7.349739873741006e-11
7.242396734160678e-11
7.224366845718213e-11
7.055307708490532e-11
6.944742421424963e-11
6.797717092241428e-11
6.52885866872561e-11
6.259351642817198e-11
6.208241669077291e-11
5.934651109863161e-11
5.648337886880545e-11
5.444439097747385e-11
5.20171437106674e-11
5.051624864461003e-11
4.87725643366389e-11
5.310379504823527e-11
5.159883314384038e-11
7.856102901426468e-11
1.328023886898409e-14
-6.692877866366123e-13
3.098559161596852e-11
2.500873583853022e-11
4.331747320717089e-11
4.136612041502526e-11
5.251424857794246e-11
5.114340963737548e-11
5.910174101752277e-11
5.882976715352955e-11
6.413979206160347e-11
6.285653927398272e-11
6.618518007183014e-11
6.60929027783633e-11
7.014948665384172e-11
6.978367936260035e-11
7.155240812394422e-11
7.079356207871118e-11
7.38530571938225e-11
7.349381916216772e-11
7.443906685468249e-11
7.425671137274954e-11
7.527303129952479e-11
7.458863217217676e-11
7.629433618206555e-11
7.621533528363346e-11
7.708394164605992e-11
7.661693670344823e-11
7.715336137245471e-11
7.721409361908699e-11
7.861888393454428e-11
7.788116140480846e-11
7.871450780328169e-11
7.795039417989083e-11
7.691093412856485e-11
7.691000470808247e-11
7.612799490212809e-11
7.517985400966763e-11
7.520703674450958e-11
7.428697711135644e-11
7.349880898788628e-11
7.241993978718844e-11
7.224398128691459e-11
7.055495205900401e-11
6.944759908184256e-11
6.797918230044765e-11
6.529179146439886e-11
6.259271725455043e-11
6.208208594467954e-11
5.935076167871047e-11
5.648490229558678e-11
5.444445614503096e-11
5.201819006926189e-11
5.051807463518087e-11
4.876748566941322e-11
5.310154818080834e-11
5.156877520657541e-11
7.861025584935129e-11
6.150264252828151e-14
-7.633037366145505e-13
3.097871233574891e-11
2.502217750782522e-11
4.330755222797006e-11
4.13712667764323e-11
5.251194345866565e-11
5.1144251743487e-11
5.910042555680447e-11
5.882769697044745e-11
6.413976161891475e-11
6.285719183223098e-11
6.618507120851609e-11
6.609031692811741e-11
7.01499772401081e-11
6.978797701205901e-11
7.155523970787109e-11
7.079134061940426e-11
7.385036610432459e-11
7.34957785730438e-11
7.444385226788325e-11
7.425442843053193e-11
7.527327869067608e-11
7.458888577460145e-11
7.629514686115821e-11
7.621492020991742e-11
7.708714128253474e-11
7.661715032574751e-11
7.715478696664031e-11
7.721300876614397e-11
7.861736446276989e-11
7.788529413243663e-11
7.871492629681969e-11
7.795126904314141e-11
7.691771695613475e-11
7.690734634706512e-11
7.612886031690137e-11
7.518308876336853e-11
7.520633815377798e-11
7.428979039869266e-11
7.35013955824481e-11
7.241293919456386e-11
7.224510606099351e-11
7.055822474939919e-11
6.944735628375219e-11
6.798273989252462e-11
6.529620456579722e-11
6.258954588791077e-11
6.208176305813888e-11
5.935775732484535e-11
5.648641148815338e-11
5.444392872823357e-11
5.2018748066401e-11
5.051965969374919e-11
4.87586488903548e-11
5.309366129866198e-11
5.152815316790458e-11
7.868193900567629e-11
1.245882479729022e-13
-8.844164645953989e-13
3.097038427231749e-11
2.504281246977164e-11
4.329676695111225e-11
4.137997845064165e-11
5.250937494067891e-11
5.114737603448578e-11
5.909982173580797e-11
5.882653039508978e-11
6.413993646065046e-11
6.285747649200161e-11
6.618495764223495e-11
6.608853075966898e-11
7.0150784462109e-11
6.979418229462362e-11
7.155863376368388e-11
7.078903208861026e-11
7.384592974644489e-11
7.349811200005436e-11
7.445124703237227e-11
7.425142092523545e-11
7.527200417818167e-11
7.458908963791489e-11
7.629669973124799e-11
7.621383966734538e-11
7.709092578909715e-11
7.66178668247643e-11
7.715618379428859e-11
7.721256792923502e-11
7.861456716642314e-11
7.78902145283688e-11
7.871532730833208e-11
7.795160796801838e-11
7.692773555606959e-11
7.690381546437452e-11
7.612850408957591e-11
7.51876639348941e-11
7.52051055289998e-11
7.429424665248805e-11
7.350578745005171e-11
7.240470308945582e-11
7.224659314733237e-11
7.056199872277122e-11
6.944648196344414e-11
6.798695349718842e-11
6.530068799872866e-11
6.258443511516776e-11
6.208200139672789e-11
5.936682645078685e-11
5.648767232052661e-11
5.444283323943063e-11
5.20184036828609e-11
5.052045763512576e-11
4.874618340539634e-11
5.307870286187845e-11
5.14782909891036e-11
7.877024368757267e-11
2.035229253067254e-13
-1.01915821299056e-12
3.095736099600413e-11
2.506959131503378e-11
4.328389369316115e-11
4.138920385150897e-11
5.250835165116113e-11
5.115395201058191e-11
5.909958903182312e-11
5.88265470665196e-11
6.413711990900525e-11
6.285286949746679e-11
6.618722966156387e-11
6.609209264734536e-11
7.015473019672383e-11
6.979878683280702e-11
7.156204317196606e-11
7.079014439710656e-11
7.383806174180687e-11
7.349961482078152e-11
7.446391431949494e-11
7.424598452583803e-11
7.526780506331014e-11
7.459117349909943e-11
7.630000427751593e-11
7.621214852523936e-11
7.709313093270995e-11
7.661809368772955e-11
7.716083294447141e-11
7.721174959021591e-11
7.86103437716266e-11
7.789780026264501e-11
7.871481595327144e-11
7.795095715873051e-11
7.693926671696104e-11
7.689632037608533e-11
7.612897522225983e-11
7.519509197301248e-11
7.52045725713619e-11
7.430123204683285e-11
7.351198995429009e-11
7.239651915737033e-11
7.224689355788675e-11
7.056480501716688e-11
6.944638676087668e-11
6.799147739821728e-11
6.530453265530471e-11
6.257829984948026e-11
6.208314718415284e-11
5.937769759398357e-11
5.649134847994855e-11
5.444145354599017e-11
5.201648522047378e-11
5.051900083091458e-11
4.872975932467152e-11
5.305792967245589e-11
5.141415541179857e-11
7.886618577577462e-11
2.918476855732349e-13
-1.151533192275412e-12
3.093970864571038e-11
2.510162816207935e-11
4.32622638720374e-11
4.139179822087852e-11
5.251459388705089e-11
5.116790640372314e-11
5.909885307653972e-11
5.882731697913692e-11
6.412490438500032e-11
6.283540158808952e-11
6.61967809364988e-11
6.610892277075599e-11
7.016563787021278e-11
6.97965046725839e-11
7.156565319823723e-11
7.080191844821532e-11
7.382494794467915e-11
7.349698085652015e-11
7.448465550371403e-11
7.423465601355003e-11
7.526032189790585e-11
7.460099981269714e-11
7.630426971250064e-11
7.620825181605005e-11
7.708819393662048e-11
7.661511655056706e-11
7.717657662542493e-11
7.720821096595288e-11
7.860500737912374e-11
7.791446306515652e-11
7.871284066495645e-11
7.794825435187869e-11
7.69461923882502e-11
7.687925584750957e-11
7.613696635054888e-11
7.520982949107725e-11
7.520394349887149e-11
7.431075341084791e-11
7.35181834254455e-11
7.238842344435125e-11
7.224366008405369e-11
7.056419168598435e-11
6.945023864846288e-11
6.799508467522181e-11
6.530987174845226e-11
6.25796629298319e-11
6.208024744935788e-11
5.938757213368201e-11
5.650409301686342e-11
5.443869578007764e-11
5.201057983244807e-11
5.051021536091681e-11
4.870781350958831e-11
5.30363219485196e-11
5.134015886487593e-11
7.895914625411952e-11
3.775884250803316e-13
-1.259496065623575e-12
3.091917226264198e-11
2.513474603168578e-11
4.322371203755059e-11
4.137581937969164e-11
5.253549232331745e-11
5.119962439821167e-11
5.909619639985819e-11
5.882454265223453e-11
6.409553077463401e-11
6.279619795592417e-11
6.622347155561706e-11
6.61475488474574e-11
7.018526497339819e-11
6.978154378990949e-11
7.156975548474284e-11
7.083519599447292e-11
7.38066745249494e-11
7.348556161360322e-11
7.451470439375335e-11
7.421082340028647e-11
7.525035335539022e-11
7.462954122504581e-11
7.630822573374964e-11
7.619764360359775e-11
7.706782313168856e-11
7.660624437483122e-11
7.721247534458518e-11
7.719771942911695e-11
7.859983764670668e-11
7.79517637568403e-11
7.870890854447859e-11
7.793978080030737e-11
7.693689176742546e-11
7.684692416515808e-11
7.616535329219318e-11
7.524110506197124e-11
7.52001203328335e-11
7.431763766306543e-11
7.352145950523719e-11
7.237884624441274e-11
7.223694425586968e-11
7.055739151356889e-11
6.945768975652247e-11
6.799543391965028e-11
6.532322069220952e-11
6.259952253382811e-11
6.20663077033948e-11
5.939419457454423e-11
5.653655085064591e-11
5.443374724327798e-11
5.199743107042871e-11
5.048546119388217e-11
4.867855612240182e-11
5.302538197358187e-11
5.126238774937085e-11
7.903354452206458e-11
4.563041756297839e-13
-1.315294275728906e-12
3.089254776935807e-11
2.515992564422761e-11
4.316536447644153e-11
4.132857221162025e-11
5.257407313110398e-11
5.126260099445014e-11
5.909024056868044e-11
5.881018857045059e-11
6.403932207167523e-11
6.273069000222957e-11
6.628252913985978e-11
6.621601413543983e-11
7.021012268492128e-11
6.974573603449837e-11
7.15768206512333e-11
7.090224914907567e-11
7.378331856250313e-11
7.346101310178176e-11
7.455383622866596e-11
7.416611611602557e-11
7.523890936775517e-11
7.468817085135318e-11
7.631138768817193e-11
7.617555242747468e-11
7.702486481112202e-11
7.659081475051624e-11
7.727624407449227e-11
7.717599896350876e-11
7.859457601787068e-11
7.801896027912719e-11
7.870379217334445e-11
7.792089325194371e-11
7.690285867289003e-11
7.679573428064996e-11
7.622300594733562e-11
7.529874742402463e-11
7.519099535997643e-11
7.431351479726274e-11
7.352097771750781e-11
7.236603149576139e-11
7.223035934643635e-11
7.054489437877995e-11
6.945763090869615e-11
6.798850434958666e-11
6.535484553620985e-11
6.265172877618936e-11
6.203767242389584e-11
5.939546603181908e-11
5.659756924095479e-11
5.442715656121605e-11
5.197282391467373e-11
5.0435187894316e-11
4.864059582549441e-11
5.303943499797623e-11
5.11839760174944e-11
7.90673815549148e-11
5.195864371143448e-13
-1.294033338323043e-12
3.085820365010064e-11
2.516788014472152e-11
4.308839098813152e-11
4.124443748604132e-11
5.262710034325711e-11
5.136366606932473e-11
5.907940997142179e-11
5.877657101707599e-11
6.394988505477859e-11
6.264201102346311e-11
6.638731081679822e-11
6.631826823457535e-11
7.023703087779131e-11
6.968535904420563e-11
7.159217212391729e-11
7.100894948498627e-11
7.375290174984406e-11
7.341941293854665e-11
7.459988232706127e-11
7.40976908289856e-11
7.522782868524516e-11
7.478204212631612e-11
7.631198187421318e-11
7.61385949488299e-11
7.695519097960175e-11
7.657071896343848e-11
7.737291966465768e-11
7.714181631267274e-11
7.85882693014775e-11
7.811913196419482e-11
7.869777623738102e-11
7.788693307136883e-11
7.684382336255658e-11
7.672722681615705e-11
7.631223259709478e-11
7.538753030944707e-11
7.517497266941214e-11
7.429080638304849e-11
7.351805632620031e-11
7.234627704923907e-11
7.223141850596656e-11
7.05284693040966e-11
6.942746990629884e-11
6.79754942214049e-11
6.542168551580229e-11
6.274562913157748e-11
6.199788016405409e-11
5.939240009081107e-11
5.66900006983727e-11
5.441776649040749e-11
5.193356863330602e-11
5.035395180611122e-11
4.8591526131403e-11
5.308703488586213e-11
5.110961033957163e-11
7.903768370912684e-11
5.63105813278977e-13
-1.180738056343664e-12
3.081083245631616e-11
2.515210520243237e-11
4.299762731665986e-11
4.113070410383739e-11
5.268927165112456e-11
5.149640758044758e-11
5.905767846669864e-11
5.871663685779827e-11
6.382668283480968e-11
6.254097805018857e-11
6.65448542946223e-11
6.644987797079132e-11
7.026548065494466e-11
6.960473016109725e-11
7.16233638407711e-11
7.115560108438035e-11
7.371462295640123e-11
7.335663652003271e-11
7.464690045874889e-11
7.40089039292519e-11
7.522280229784472e-11
7.49095732647516e-11
7.630501944383896e-11
7.608475156592458e-11
7.685772076153948e-11
7.655054998910115e-11
7.750539462914281e-11
7.709904771591337e-11
7.858041478713891e-11
7.824430961709843e-11
7.868885796794542e-11
7.783605651184819e-11
7.677060537370462e-11
7.665310129091462e-11
7.642718995582882e-11
7.550313615217547e-11
7.515143495408682e-11
7.424273914031437e-11
7.3512858343156e-11
7.232062931500884e-11
7.224016773053074e-11
7.050512690473973e-11
6.934672435175111e-11
6.796562982094852e-11
6.555232552979002e-11
6.288814383902821e-11
6.195168958213588e-11
5.939071897060117e-11
5.680778764306768e-11
5.439932466797232e-11
5.187739728616588e-11
5.024094313321143e-11
4.852944882540426e-11
5.316670522870365e-11
5.104127453239149e-11
7.892502980941249e-11
5.974362110649814e-13
-9.699190863703573e-13
3.073011979814508e-11
2.510876316177784e-11
4.289576683836715e-11
4.100474059516838e-11
5.275955155220561e-11
5.164306612385689e-11
5.901559870965373e-11
5.862690866987548e-11
6.367600975397497e-11
6.244507972835188e-11
6.675792982588954e-11
6.660055229980505e-11
7.029494888300537e-11
6.95136089724365e-11
7.167776441327627e-11
7.133701125288519e-11
7.3671090549787e-11
7.327236355993321e-11
7.468439202993715e-11
7.390692619066457e-11
7.523227781477954e-11
7.50624742676798e-11
7.628245446200166e-11
7.601363107331444e-11
7.673518439316998e-11
7.653674935580151e-11
7.767190672286563e-11
7.705606089398393e-11
7.857318576912435e-11
7.837811318784334e-11
7.866772565700098e-11
7.776930832195727e-11
7.670902775049956e-11
7.659297339597588e-11
7.655243750079887e-11
7.563050454601856e-11
7.512648949662686e-11
7.416993871515569e-11
7.350226186160478e-11
7.229180219925518e-11
7.224408689549109e-11
7.0479749445892e-11
6.922405349312265e-11
6.796448711571588e-11
6.576346248707911e-11
6.307711437992529e-11
6.190776701506065e-11
5.939997631304567e-11
5.693810573876893e-11
5.436353726937025e-11
5.180398357643963e-11
5.010022848271107e-11
4.845508779980036e-11
5.326660080406169e-11
5.097212783657719e-11
7.871260423335022e-11
6.508225048995171e-13
-6.613262359385354e-13
3.05928166158314e-11
2.504208768777754e-11
4.278621400824784e-11
4.089004932429004e-11
5.282887253678395e-11
5.17735557929951e-11
5.894472619633988e-11
5.851057692265926e-11
6.351252787257268e-11
6.237580446981191e-11
6.702307937318975e-11
6.675293964584485e-11
7.031960056266971e-11
6.942827444812148e-11
7.176157845939219e-11
7.154170539547886e-11
7.362918826848529e-11
7.317050518499349e-11
7.470009636943949e-11
7.380474658526323e-11
7.526425240528722e-11
7.522382480488905e-11
7.623586901079855e-11
7.592730627206304e-11
7.659824526332482e-11
7.653608290257522e-11
7.786221066161036e-11
7.702668599684249e-11
7.857044249387207e-11
7.849409432176052e-11
7.862357736914789e-11
7.769463810359913e-11
7.67014517588696e-11
7.657460686588072e-11
7.665478180812765e-11
7.574019623929978e-11
7.510709727278816e-11
7.408516814485616e-11
7.34831549896032e-11
7.225877117407177e-11
7.223340002373258e-11
7.047294229005747e-11
6.90988073497102e-11
6.796812903870375e-11
6.604456606095716e-11
6.330909279498446e-11
6.187901000582828e-11
5.942855464790827e-11
5.705962897959977e-11
5.430145361683098e-11
5.171608651755875e-11
4.994157512668132e-11
4.837158966218273e-11
5.336291783736971e-11
5.088231697382791e-11
7.837741293655564e-11
7.58010924151503e-13
-2.646304595374215e-13
3.038839745791759e-11
2.497348275314499e-11
4.267791697918765e-11
4.081266663730329e-11
5.287255321003079e-11
5.184569055129674e-11
5.884684468908521e-11
5.838416612793691e-11
6.336262229715071e-11
6.235310925851045e-11
6.732256807132615e-11
6.6889218233774e-11
7.033138398864152e-11
6.937144722232552e-11
7.187472630087811e-11
7.174323743922307e-11
7.358876905173222e-11
7.306390847377862e-11
7.469536281580159e-11
7.372327370862325e-11
7.531905428206575e-11
7.536553306471531e-11
7.616387539476667e-11
7.583287652088095e-11
7.646448001987251e-11
7.654701566712936e-11
7.805144053654686e-11
7.703097939564954e-11
7.857389962224934e-11
7.856690431309682e-11
7.856533966051097e-11
7.76342226287046e-11
7.676984800043144e-11
7.660649702904448e-11
7.670148634036933e-11
7.580259629580855e-11
7.509492783640394e-11
7.401028179751374e-11
7.345923377768674e-11
7.222910687498734e-11
7.221624759966187e-11
7.049558838893359e-11
6.901613664268435e-11
6.797812334470518e-11
6.636325313917009e-11
6.357304333382819e-11
6.188362978003918e-11
5.947881295029985e-11
5.714895687692191e-11
5.421480288632314e-11
5.162376399879217e-11
4.978119194663358e-11
4.82821599329874e-11
5.341375285402378e-11
5.073404332729512e-11
7.789301004766435e-11
9.634795921334962e-13
1.958771807991038e-13
3.012805724559736e-11
2.493891835055206e-11
4.257473664750101e-11
4.079416831423957e-11
5.2865825862469e-11
5.181532541334722e-11
5.873456912686766e-11
5.827809760623041e-11
6.325876599313591e-11
6.239085620551608e-11
6.762498259235629e-11
6.700360362210303e-11
7.032123880449008e-11
6.935939495540497e-11
7.200673104280816e-11
7.189959172264107e-11
7.354551624131676e-11
7.296994367610871e-11
7.467992446854337e-11
7.369323186022536e-11
7.539109108582526e-11
7.545383636439936e-11
7.607636679660281e-11
7.574262824047923e-11
7.635748132646092e-11
7.655488896615793e-11
7.81983367970618e-11
7.709265929530721e-11
7.858160468922409e-11
7.858010261902459e-11
7.851397704169733e-11
7.762045609454733e-11
7.690975003331149e-11
7.666373164098051e-11
7.668132885808021e-11
7.58088611359026e-11
7.509180287910127e-11
7.396629014694544e-11
7.344917080533931e-11
7.223358682827062e-11
7.220318984822505e-11
7.053496466860816e-11
6.902230052082797e-11
6.800659684910357e-11
6.666063280565688e-11
6.384745678086832e-11
6.193525157254144e-11
5.954124883439153e-11
5.718919938637721e-11
5.412361809726804e-11
5.154296797081979e-11
4.963454272134723e-11
4.818525178064668e-11
5.336228762975646e-11
5.047356794138864e-11
7.724044654531278e-11
1.308717284003904e-12
6.81026569285363e-13
2.984470838673458e-11
2.49678343709091e-11
4.2471645955322e-11
4.082480956237896e-11
5.27951313245301e-11
5.168984633992125e-11
5.864860401724318e-11
5.822649309946292e-11
6.321608759362982e-11
6.250087724987693e-11
6.789189152250779e-11
6.709822654884204e-11
7.028466037908614e-11
6.938980346833064e-11
7.21356234646238e-11
7.196462608270418e-11
7.350364910971708e-11
7.291477884991602e-11
7.465663803416698e-11
7.373557733723728e-11
7.546823241739805e-11
7.54622539936878e-11
7.598563088389785e-11
7.566819681811518e-11
7.631217347107022e-11
7.654888059450495e-11
7.825847004123803e-11
7.722436848825117e-11
7.860054666818543e-11
7.854141467678766e-11
7.8477537433226e-11
7.766163185740062e-11
7.710549229452108e-11
7.670859925991205e-11
7.660540727815905e-11
7.57852306340025e-11
7.510728680435792e-11
7.396031884247592e-11
7.347400193744711e-11
7.231609642515907e-11
7.217860486032761e-11
7.057044146606381e-11
6.915832023933627e-11
6.804524730546927e-11
6.686813218916661e-11
6.411118725158452e-11
6.203996087662084e-11
5.959864304654485e-11
5.717936377868582e-11
5.405557767667068e-11
5.148581569506128e-11
4.951604700706627e-11
4.807546468202591e-11
5.31513605022267e-11
5.004654709389162e-11
7.642545671974105e-11
1.807232564073821e-12
1.1448047792956e-12
2.957362953497097e-11
2.507329217802647e-11
4.237177653373224e-11
4.0884754415616e-11
5.268229950875568e-11
5.155288241718225e-11
5.862431193218858e-11
5.822343752355833e-11
6.323121932106295e-11
6.268253190866388e-11
6.806586074110697e-11
6.715426882061863e-11
7.024085722082729e-11
6.946114315997212e-11
7.223908411850153e-11
7.192485862678084e-11
7.347332130712469e-11
7.292041345475866e-11
7.464233327924736e-11
7.385993817452622e-11
7.552583264249267e-11
7.53802605522966e-11
7.589456294940285e-11
7.562378763647336e-11
7.635472434074272e-11
7.653200897558458e-11
7.822047967874957e-11
7.740087703512601e-11
7.863699138634673e-11
7.84768358102999e-11
7.84538245323403e-11
7.77325100877449e-11
7.731599072508346e-11
7.673408546423164e-11
7.651091548571463e-11
7.5756906356395e-11
7.513974162498299e-11
7.399668806348491e-11
7.354179927199053e-11
7.247082279894062e-11
7.213727073126915e-11
7.060783802656946e-11
6.939759215141238e-11
6.806879752749693e-11
6.697465368116734e-11
6.436197712082897e-11
6.218497261758399e-11
5.964275213593422e-11
5.714154259479384e-11
5.400914200920638e-11
5.143524568756668e-11
4.941786776868515e-11
4.793404452919773e-11
5.278401666013687e-11
4.945051672408091e-11
7.546327365391431e-11
2.433165472311795e-12
1.549069769669061e-12
2.933919528916216e-11
2.525850377636045e-11
4.228940058359611e-11
4.098151766569543e-11
5.257805236124795e-11
5.149729160467235e-11
5.86669859503424e-11
5.823607112814016e-11
6.329836257462835e-11
6.290661938133214e-11
6.809011976401271e-11
6.713952427127182e-11
7.0224702048308e-11
6.957396348259487e-11
7.23074182194664e-11
7.18487362952746e-11
7.34683289923716e-11
7.297306372232656e-11
7.465041151402511e-11
7.402601906763492e-11
7.553132124330351e-11
7.523838443369103e-11
7.580745307945002e-11
7.561985184926567e-11
7.647023340786682e-11
7.65152329442863e-11
7.813461189861215e-11
7.757148634870843e-11
7.86619183175205e-11
7.841235693677214e-11
7.844605685717625e-11
7.780022701099047e-11
7.749397011295618e-11
7.677132914501691e-11
7.643867668494429e-11
7.573092961321e-11
7.518849753708776e-11
7.407596154247221e-11
7.363280562770419e-11
7.263897158091305e-11
7.211472471852759e-11
7.066926273771909e-11
6.965627000257973e-11
6.808080644638114e-11
6.702805074244729e-11
6.459421122084464e-11
6.233926576746868e-11
5.969272392718295e-11
5.712916520010994e-11
5.396966576425356e-11
5.136241874312419e-11
4.931100307291779e-11
4.771926969955754e-11
5.229297953947085e-11
4.872063942828239e-11
7.436598296362988e-11
3.163897025891217e-12
1.880007214216806e-12
2.915009411014057e-11
2.551309391554111e-11
4.224564201345668e-11
4.112889578711131e-11
5.250602797539301e-11
5.154871793021322e-11
5.877417932253542e-11
5.827884058845698e-11
6.339701900292668e-11
6.312021992081866e-11
6.799184701479153e-11
6.709089090774961e-11
7.024631046188448e-11
6.96885216489169e-11
7.233512054533803e-11
7.182340247318295e-11
7.349128263069828e-11
7.304661659647674e-11
7.466927922379149e-11
7.414580704104218e-11
7.547508230691534e-11
7.509745363061122e-11
7.574688008689934e-11
7.564690166607043e-11
7.659876919009922e-11
7.651043820151612e-11
7.805675661897479e-11
7.770721106002346e-11
7.865394681586235e-11
7.83612916817855e-11
7.847204325167236e-11
7.784980608443425e-11
7.761143248773148e-11
7.6859459051534e-11
7.641658117991136e-11
7.570936797328023e-11
7.525413352016838e-11
7.417153380539112e-11
7.371990798067151e-11
7.278928409468433e-11
7.212564791779623e-11
7.075626662191825e-11
6.988611182781818e-11
6.810039789450506e-11
6.70698236104696e-11
6.479480684635511e-11
6.247458245609228e-11
5.976281578748012e-11
5.718374387664348e-11
5.395421417037366e-11
5.128010861044427e-11
4.917939425011977e-11
4.740186674223324e-11
5.167534888671992e-11
4.784252050457895e-11
7.315098720986624e-11
3.98424827071797e-12
2.157320008620192e-12
2.901094524643057e-11
2.582434404612881e-11
4.225704293144802e-11
4.133797929109045e-11
5.247858763475507e-11
5.16794989760087e-11
5.891518394660947e-11
5.837848559866781e-11
6.350378600477387e-11
6.328821313879347e-11
6.785311976928995e-11
6.707386640835519e-11
7.02794106370613e-11
6.976213945976896e-11
7.232681101562251e-11
7.186029921364411e-11
7.352713371082472e-11
7.312236266812894e-11
7.467960567342947e-11
7.419772884134239e-11
7.540210849321933e-11
7.500317460435028e-11
7.572698184001609e-11
7.568612213064259e-11
7.667743784899987e-11
7.651772461511166e-11
7.800333434939336e-11
7.780837402167057e-11
7.862828154314766e-11
7.832853980327719e-11
7.853530696215944e-11
7.788486226834311e-11
7.766945569995652e-11
7.699193274881889e-11
7.645360387838999e-11
7.569460220500855e-11
7.531192203317672e-11
7.426333241200847e-11
7.380402622366659e-11
7.292065038442727e-11
7.216127359092089e-11
7.085587527837067e-11
7.007653421621537e-11
6.813974377127236e-11
6.712304339714351e-11
6.495953727796404e-11
6.258603673538127e-11
5.984733285395385e-11
5.72935750174078e-11
5.396962167142128e-11
5.120902777653858e-11
4.902180066024486e-11
4.700006478696162e-11
5.094598836162344e-11
4.678178617875238e-11
7.182261311472786e-11
4.861823045890934e-12
2.430942862191759e-12
2.893273959056077e-11
2.618928834361967e-11
4.232202214815432e-11
4.160327834403489e-11
5.249835175594854e-11
5.186591726886498e-11
5.906449789494026e-11
5.853019112571844e-11
6.360504104157191e-11
6.341656238484706e-11
6.771676103897321e-11
6.708987294048564e-11
7.030118479314237e-11
6.980667738759492e-11
7.230144081538674e-11
7.192460236973474e-11
7.355603818496844e-11
7.318690102452934e-11
7.467763867865127e-11
7.4215930419396e-11
7.534969313082067e-11
7.496912448985744e-11
7.572770268446424e-11
7.571721183555928e-11
7.671183082943183e-11
7.654644142967276e-11
7.797774980719977e-11
7.787887070939603e-11
7.860322666896643e-11
7.832235022172523e-11
7.860377556426257e-11
7.791772514487776e-11
7.769758177968296e-11
7.711064578244734e-11
7.652702286238185e-11
7.570726349562091e-11
7.535395952845751e-11
7.435167631858729e-11
7.389400896853511e-11
7.30322523149717e-11
7.220922487294077e-11
7.095551574061176e-11
7.023292984069829e-11
6.82015281558421e-11
6.719574524049513e-11
6.510091814236463e-11
6.269672735969549e-11
5.994503775615644e-11
5.741851982160602e-11
5.399117227193072e-11
5.11448468205545e-11
4.884495762236172e-11
4.652915561956531e-11
5.011866755385175e-11
4.556713555146514e-11
7.037646205438178e-11
5.755692938195364e-12
2.762347570446624e-12
2.892207932558937e-11
2.66074661599884e-11
4.243184198020388e-11
4.19139008849996e-11
5.255771059193593e-11
5.208853687178689e-11
5.920783603571077e-11
5.871618760901999e-11
6.369635072600033e-11
6.352765382177328e-11
6.76046080306658e-11
6.712829069298422e-11
7.030782680157861e-11
6.984699617665563e-11
7.227204795780003e-11
7.198716892378587e-11
7.357175785891688e-11
7.324136486826303e-11
7.46732735527658e-11
7.422970179095123e-11
7.531891492631322e-11
7.498290201929744e-11
7.57256000663868e-11
7.572820649293983e-11
7.673448797465244e-11
7.659455347464382e-11
7.796398031750099e-11
7.792570771285707e-11
7.858400752196314e-11
7.833469793621972e-11
7.865230690859932e-11
7.796872507618522e-11
7.774555728377213e-11
7.719111857126137e-11
7.659671262305811e-11
7.575130878492288e-11
7.538506883149142e-11
7.44357156083154e-11
7.399046428100688e-11
7.311657757711056e-11
7.226331373593323e-11
7.105265043191265e-11
7.03607856159642e-11
6.828162966455292e-11
6.728492789958278e-11
6.5231385021804e-11
6.283044486978733e-11
6.005795173059692e-11
5.752855599649909e-11
5.400124978239079e-11
5.107854134458764e-11
4.864566249831246e-11
4.599671906028197e-11
4.920978477208701e-11
4.425514911664684e-11
6.879450977206596e-11
6.635291076804137e-12
3.204373811646196e-12
2.897721310463878e-11
2.70792003975004e-11
4.257861519354507e-11
4.226137500773082e-11
5.264815978054819e-11
5.233598665639298e-11
5.933941562641768e-11
5.891667469761201e-11
6.377391003419492e-11
6.3639889441785e-11
6.75320063116021e-11
6.718145582465643e-11
7.02947651897918e-11
6.989659257366741e-11
7.22488437429986e-11
7.204357995556108e-11
7.358445100256692e-11
7.329446723031499e-11
7.466957105061064e-11
7.424771509384635e-11
7.529872026345717e-11
7.501845960587499e-11
7.572135056566317e-11
7.572810452493685e-11
7.675000987899932e-11
7.664561885162315e-11
7.79470403594603e-11
7.795954650670442e-11
7.856801949265408e-11
7.835436708240867e-11
7.869195215109097e-11
7.804066222137318e-11
7.782579725064857e-11
7.725254695201576e-11
7.664934491040027e-11
7.581221070279019e-11
7.540861423371041e-11
7.450049856916581e-11
7.407720208143671e-11
7.318113060580424e-11
7.232752202064178e-11
7.114722926382675e-11
7.046623332127772e-11
6.837636188259471e-11
6.73852984510824e-11
6.535450189436533e-11
6.298357574703212e-11
6.018007362016703e-11
5.762809618031075e-11
5.400580830103901e-11
5.099947236290639e-11
4.841013437918681e-11
4.542999031886271e-11
4.824499569078676e-11
4.287370431630184e-11
6.704811111835093e-11
7.478064162868791e-12
3.792286081980108e-12
2.908907530189502e-11
2.760311022682593e-11
4.275541735846626e-11
4.264201700184834e-11
5.276659327086889e-11
5.26021136477963e-11
5.945762033291599e-11
5.912081477861179e-11
6.383477616171679e-11
6.375895171594867e-11
6.750479758748926e-11
6.724725332327405e-11
7.026269233171788e-11
6.995983655055158e-11
7.22360390665002e-11
7.209423943884715e-11
7.359946431024801e-11
7.335173820719638e-11
7.466739728763027e-11
7.427148487034181e-11
7.527736906524477e-11
7.504799766869676e-11
7.571958825514416e-11
7.573358772320754e-11
7.676115923188148e-11
7.669478906510633e-11
7.792267467831964e-11
7.79819392699562e-11
7.855529593436135e-11
7.838185410012175e-11
7.873740498261171e-11
7.811748090786482e-11
7.791280631759361e-11
7.731693052909925e-11
7.670046997524943e-11
7.587846431350356e-11
7.543425039387878e-11
7.454180302654223e-11
7.413698019996042e-11
7.323817774528398e-11
7.240433872749646e-11
7.123597234598662e-11
7.055545774070478e-11
6.848113928173256e-11
6.749109523503269e-11
6.546940506380775e-11
6.314376380944619e-11
6.030298909434407e-11
5.772931791278431e-11
5.401576238958888e-11
5.090385988003516e-11
4.812919677570158e-11