/*--------------------------------*- C++ -*----------------------------------*\
| =========                 |                                                 |
| \\      /  F ield         | OpenFOAM: The Open Source CFD Toolbox           |
|  \\    /   O peration     | Version:  v1812                                 |
|   \\  /    A nd           | Web:      www.OpenFOAM.com                      |
|    \\/     M anipulation  |                                                 |
\*---------------------------------------------------------------------------*/
FoamFile
{
    version     2.0;
    format      ascii;
    class       surfaceScalarField;
    location    "10000";
    object      phi;
}
// * * * * * * * * * * * * * * * * * * * * * * * * * * * * * * * * * * * * * //

dimensions      [0 3 -1 0 0 0 0];
oriented        oriented;


internalField   nonuniform List<scalar> 
7417
(
-0.0009208225793824084
3.088453940008908e-14
-0.0009208225793916898
9.284399211926989e-15
-0.000920822579376467
-1.524187187819e-14
-0.000920822579383056
6.583249663103903e-15
-0.0009208225793754208
-7.636457415137528e-15
-0.0009208225793782157
2.775490921483301e-15
-0.0009208225793740516
-4.200064071179565e-15
-0.0009208225793758695
1.793148442718335e-15
-0.0009208225793727663
-3.113306804495903e-15
-0.0009208225793733006
5.653115194390918e-16
-0.0009208225793711199
-2.242305606146564e-15
-0.0009208225793718982
7.703643195207587e-16
-0.0009208225793714011
-5.156042854508752e-16
-0.0009208225793717772
3.209334862869391e-16
-0.0009208225793703904
-1.419629248137303e-15
-0.0009208225793710063
6.252083496933888e-16
-0.0009208225793708214
-1.560643697181448e-16
-0.0009208225793718922
1.111431018566876e-15
-0.0009208225793711217
-7.398437150830017e-16
-0.0009208225793713533
3.626363675540502e-16
-0.0009208225793714051
-7.87996976603684e-17
-0.0009208225793716543
2.518878812653179e-16
-0.0009208225793718293
2.012193284336807e-16
-0.0009208225793727829
9.810177122713086e-16
-0.0009208225793723429
-4.477465236949546e-16
-0.0009208225793722947
-5.662170147468086e-17
-0.0009208225793724545
1.710005024965158e-16
-0.000920822579372697
2.614221877235119e-16
-0.0009208225793732393
5.51870917114981e-16
-0.0009208225793735342
2.932605257310286e-16
-0.0009208225793731508
-4.093435338353646e-16
-0.0009208225793735374
-4.650905458708654e-17
-0.0009208225793731434
3.613469151870101e-17
-0.0009208225793736148
5.019291203355308e-16
-0.0009208225793742922
7.033626595303549e-16
-0.0009208225793746423
8.73756043343947e-16
-0.0009208225793753941
1.760438754145659e-16
-0.0009208225793752866
-1.518212763008759e-16
-0.0009208225793753428
5.849641879639801e-17
-0.000920822579375333
-1.822897809928973e-18
-0.0009208225793752414
-7.833921181035181e-17
-0.0009208225793754637
4.564945471483669e-16
-0.0009208225793748255
-8.641871975677208e-16
-0.0009208225793750693
2.78162811836916e-16
-0.000920822579375219
1.720867383640357e-16
-0.0009208225793747995
-4.208147648620294e-16
-0.0009208225793756395
8.681913386360548e-16
-0.0009208225793773756
2.488794946359671e-15
-0.0009208225793766068
-1.526411007452184e-15
-0.0009208225793770541
3.971044240594824e-16
-0.0009208225793780094
9.344252701510201e-16
-0.0009208225793784185
3.896118461685232e-16
-0.0009208225793794261
9.905508752916089e-16
-0.0009208225793798228
3.880945073861819e-16
-0.000920822579381273
1.447346216090977e-15
-0.0009208225793786537
-2.605275745809909e-15
-0.0009208225793807954
2.151011823729423e-15
-2.757948591660289e-14
-0.0008679147240221139
6.210520018508958e-14
-0.0008679147240308904
1.806247383991153e-14
-0.0008679147240116385
-3.452266928672861e-14
-0.0008679147240164407
1.138419725230907e-14
-0.0008679147240065098
-1.755777466149898e-14
-0.0008679147240069213
3.168747421644979e-15
-0.0008679147240023466
-8.82123799827828e-15
-0.0008679147240026258
2.037675385616732e-15
-0.0008679147239987741
-6.976639625279823e-15
-0.0008679147239973672
-8.12205547235169e-16
-0.0008679147239949163
-4.766256490937296e-15
-0.0008679147239939044
-2.418616465928896e-16
-0.0008679147239939011
-5.435715865790844e-16
-0.0008679147239930918
-5.843776157088338e-16
-0.0008679147239918957
-2.672934929908192e-15
-0.0008679147239922736
1.014305205970076e-15
-0.0008679147239928911
5.02999928399649e-16
-0.0008679147239940254
2.306415133667409e-15
-0.0008679147239938731
-8.50274458047983e-16
-0.0008679147239938814
4.801246701498289e-16
-0.0008679147239948877
7.920833786155416e-16
-0.0008679147239948977
2.703378633844057e-16
-0.0008679147239960275
1.383041916377164e-15
-0.0008679147239974327
2.433129940973076e-15
-0.0008679147239976822
-2.157624082183037e-16
-0.0008679147239972187
-5.410071673787218e-16
-0.0008679147239982983
1.271277394864952e-15
-0.0008679147239980697
6.174846609593216e-17
-0.0008679147239999775
2.472421808353568e-15
-0.000867914724000063
3.768177369308465e-16
-0.0008679147240003003
-2.021010754217403e-16
-0.0008679147240013097
5.366492632319585e-16
-0.0008679147240013144
4.60690515308932e-16
-0.0008679147240027238
1.962631209935287e-15
-0.0008679147240041663
2.182294007445521e-15
-0.0008679147240049513
2.151005829822544e-15
-0.0008679147240073393
1.97723685533086e-15
-0.0008679147240073758
-2.004556167131975e-16
-0.0008679147240078392
5.264292944771164e-16
-0.000867914724007939
1.049196505470849e-16
-0.0008679147240081419
1.359383829982287e-16
-0.0008679147240080235
5.848787811924873e-16
-0.0008679147240074955
-1.610084011096566e-15
-0.0008679147240075953
4.3987798178968e-16
-0.000867914724008208
8.169664887543372e-16
-0.0008679147240083937
-2.535208154355994e-16
-0.0008679147240103471
2.849811624361667e-15
-0.0008679147240135388
6.423389626349296e-15
-0.0008679147240131233
-2.686488355755746e-15
-0.000867914724014534
1.737120157426666e-15
-0.0008679147240169029
3.266532135046889e-15
-0.0008679147240180269
1.48865656452294e-15
-0.000867914724019808
2.749783781197721e-15
-0.0008679147240209394
1.508513055149937e-15
-0.0008679147240211539
1.665247616238789e-15
-0.0008679147240180044
-5.722694657279451e-15
-0.0008679147240118332
-4.007266002957814e-15
-4.844447956991017e-14
-0.0008147449579761308
8.494044899590729e-14
-0.0008147449579855194
2.745438957140078e-14
-0.000814744957965353
-5.470599941776285e-14
-0.0008147449579690491
1.507136229824972e-14
-0.0008147449579579185
-2.869368228701801e-14
-0.0008147449579558623
1.091587571898806e-15
-0.000814744957950477
-1.423636446254772e-14
-0.0008147449579503716
1.913961552258583e-15
-0.0008147449579466468
-1.071021985718093e-14
-0.0008147449579443388
-3.096827998853277e-15
-0.0008147449579419509
-7.199760096015111e-15
-0.0008147449579382231
-3.978170690462867e-15
-0.0008147449579372268
-1.555093179630993e-15
-0.0008147449579351916
-2.657361337504577e-15
-0.0008147449579341793
-3.702000456915645e-15
-0.000814744957934514
1.356384993463617e-15
-0.0008147449579351272
1.137182222467123e-15
-0.0008147449579367408
3.952591671925349e-15
-0.0008147449579380023
4.346204527213999e-16
-0.0008147449579375964
1.906601731167113e-16
-0.0008147449579393672
2.461067240740952e-15
-0.0008147449579393782
2.831024361655841e-16
-0.0008147449579409352
2.949980962099606e-15
-0.0008147449579431362
4.653343776789226e-15
-0.0008147449579448559
1.501750826709996e-15
-0.0008147449579441939
-1.206184112785455e-15
-0.0008147449579463668
3.450659974340854e-15
-0.0008147449579449695
-1.32145161213351e-15
-0.0008147449579479068
5.416138095075422e-15
-0.0008147449579482979
7.657600093969464e-16
-0.0008147449579485849
6.117455295023737e-17
-0.0008147449579510715
2.670728184395488e-15
-0.0008147449579528706
2.609377409199716e-15
-0.0008147449579555141
4.625631712811448e-15
-0.0008147449579580596
4.748261482720976e-15
-0.0008147449579586705
3.195880118236872e-15
-0.0008147449579621003
4.945556552064871e-15
-0.0008147449579628844
5.573434671047433e-16
-0.0008147449579639211
1.567247795361274e-15
-0.0008147449579642927
4.824632491665011e-16
-0.0008147449579651477
1.003374397130674e-15
-0.0008147449579650216
6.416824079131305e-16
-0.0008147449579647813
-2.034833952741466e-15
-0.0008147449579644997
1.824746455646884e-16
-0.0008147449579652802
1.614231271373366e-15
-0.0008147449579663894
8.593314404996693e-16
-0.0008147449579690861
5.57174874467711e-15
-0.0008147449579735136
1.146237676638065e-14
-0.0008147449579736884
-3.127126104890287e-15
-0.0008147449579754909
3.502684125687363e-15
-0.0008147449579793343
7.097896718139714e-15
-0.0008147449579816931
3.829614846428096e-15
-0.0008147449579836842
4.727243727099822e-15
-0.0008147449579849595
2.777195210553696e-15
-0.0008147449579836204
3.184763631232069e-16
-0.0008147449579805344
-8.803310237197026e-15
-0.0008147449579727763
-1.176074799422019e-14
-6.80143215891583e-14
-0.000762733662138973
9.365064116201936e-14
-0.0007627336621504779
3.89615690403883e-14
-0.0007627336621322128
-7.300212895726205e-14
-0.0007627336621348512
1.770866022793401e-14
-0.0007627336621246523
-3.888286289595066e-14
-0.0007627336621192263
-4.357280142843573e-15
-0.0007627336621120365
-2.147951778793871e-14
-0.0007627336621119856
1.826096108525646e-15
-0.0007627336621098665
-1.28411710960135e-14
-0.0007627336621074327
-5.507287879894402e-15
-0.0007627336621062814
-8.416357030469992e-15
-0.0007627336620991067
-1.115689957741913e-14
-0.0007627336620950235
-5.665309427875794e-15
-0.0007627336620912254
-6.550510378348792e-15
-0.0007627336620902117
-4.773010060889073e-15
-0.0007627336620906635
1.817290536527618e-15
-0.0007627336620901846
7.02006841688875e-16
-0.0007627336620919557
5.792871171774418e-15
-0.0007627336620957637
4.28325257677511e-15
-0.0007627336620949855
-4.97111250167576e-16
-0.0007627336620973818
4.743216866328763e-15
-0.0007627336620978067
7.177623945940607e-16
-0.0007627336620988647
4.058967288747024e-15
-0.0007627336621018104
7.646312447980796e-15
-0.0007627336621063179
5.994320665676373e-15
-0.0007627336621058387
-1.707523487222018e-15
-0.0007627336621096407
7.270045268788322e-15
-0.0007627336621062938
-4.636119173099751e-15
-0.0007627336621093042
8.44459033789232e-15
-0.0007627336621108652
2.326840511949479e-15
-0.0007627336621102392
-5.980213763963851e-16
-0.0007627336621142152
6.271950538517435e-15
-0.0007627336621194014
8.154605567694303e-15
-0.0007627336621238356
9.107131234429246e-15
-0.0007627336621284632
9.412327421176526e-15
-0.0007627336621286201
3.771960716819781e-15
-0.0007627336621318362
7.652228381139707e-15
-0.0007627336621338837
2.523451248077386e-15
-0.0007627336621357707
3.456510461221636e-15
-0.0007627336621365252
1.239723481668516e-15
-0.00076273366213864
3.13339375615039e-15
-0.0007627336621390033
1.219334514440904e-15
-0.0007627336621393699
-1.848759934699916e-15
-0.0007627336621384319
-6.927429872491564e-16
-0.0007627336621385108
1.719699945883063e-15
-0.0007627336621404676
2.799659437467804e-15
-0.0007627336621430451
8.179611949078058e-15
-0.0007627336621482291
1.72877527517696e-14
-0.0007627336621498059
-2.195271009850567e-15
-0.0007627336621510507
4.676096664507554e-15
-0.0007627336621560926
1.210507948239697e-14
-0.0007627336621608657
8.575577033355072e-15
-0.000762733662163353
7.188905460048883e-15
-0.0007627336621654257
4.834082884392629e-15
-0.0007627336621619451
-3.157799866854827e-15
-0.0007627336621587802
-1.193629284158958e-14
-0.00076273366215123
-1.92993187542996e-14
-8.895201438367816e-14
-0.0007139464904506039
8.463560278677151e-14
-0.0007139464904628097
5.117143761011164e-14
-0.0007139464904484859
-8.733844504780994e-14
-0.0007139464904504271
1.96383696593516e-14
-0.0007139464904437308
-4.559341463327775e-14
-0.0007139464904350293
-1.30803668743609e-14
-0.0007139464904242188
-3.230976270496287e-14
-0.0007139464904236518
1.246277891590846e-15
-0.0007139464904246608
-1.183912070574889e-14
-0.0007139464904229203
-7.232837245424629e-15
-0.0007139464904243048
-7.060677002458747e-15
-0.0007139464904138651
-2.160876489969294e-14
-0.0007139464904046576
-1.488378585200741e-14
-0.0007139464903985731
-1.265006884595628e-14
-0.0007139464903976561
-5.693749655176946e-15
-0.0007139464903981969
2.364945161392563e-15
-0.0007139464903956486
-1.832866525167597e-15
-0.0007139464903966264
6.788190380372608e-15
-0.0007139464904038277
1.150054574593701e-14
-0.0007139464904030884
-1.143021523746295e-15
-0.0007139464904059787
7.565740629422183e-15
-0.0007139464904074486
2.186642109634894e-15
-0.000713946490406988
3.59555283216901e-15
-0.0007139464904099011
1.056741592545418e-14
-0.0007139464904185521
1.464688236086941e-14
-0.0007139464904192053
-1.051653713456077e-15
-0.0007139464904252952
1.336226846840144e-14
-0.0007139464904196463
-1.027670048263048e-14
-0.0007139464904212809
1.008185681536307e-14
-0.0007139464904246072
5.651425381818092e-15
-0.0007139464904219057
-3.318791063341077e-15
-0.00071394649042639
1.050801311301298e-14
-0.0007139464904362765
1.828872695331528e-14
-0.0007139464904433207
1.615824582061492e-14
-0.0007139464904514723
1.757853704792831e-14
-0.0007139464904512412
3.857783486448276e-15
-0.0007139464904518267
7.915772331394476e-15
-0.0007139464904548818
5.575779607155804e-15
-0.0007139464904586559
7.236319722053917e-15
-0.0007139464904603232
2.916039190015279e-15
-0.0007139464904644662
7.286560382174275e-15
-0.0007139464904657559
2.633348414701852e-15
-0.000713946490466821
-9.158311904033222e-16
-0.0007139464904658347
-1.673735282426217e-15
-0.0007139464904645933
4.900450771913241e-16
-0.0007139464904666195
4.839401697071023e-15
-0.000713946490467893
9.474691164542443e-15
-0.0007139464904726601
2.248994412555192e-14
-0.0007139464904767807
1.487709865285189e-15
-0.000713946490476781
4.653243603903026e-15
-0.0007139464904821052
1.742502480077178e-14
-0.000713946490490737
1.719236091956995e-14
-0.000713946490494511
1.095274687249803e-14
-0.0007139464904983099
8.628846352495692e-15
-0.0007139464904922625
-9.216431344489005e-15
-0.0007139464904880081
-1.619540903442701e-14
-0.000713946490481143
-2.616105961650132e-14
-1.105777329133676e-13
-0.000671690317278664
5.610591501590048e-14
-0.0006716903172876029
6.011060147659143e-14
-0.0006716903172785262
-9.644727035144657e-14
-0.0006716903172802071
2.131670571285385e-14
-0.0006716903172778052
-4.797966292559914e-14
-0.0006716903172674031
-2.350307182536494e-14
-0.0006716903172526212
-4.714988973451928e-14
-0.0006716903172496835
-1.72862769055034e-15
-0.0006716903172543343
-7.201866641985544e-15
-0.0006716903172538861
-7.668496591499154e-15
-0.0006716903172582644
-2.734033490749489e-15
-0.0006716903172456203
-3.425557216081145e-14
-0.0006716903172306908
-2.98397559844598e-14
-0.0006716903172223328
-2.109915954565342e-14
-0.0006716903172220939
-5.989081072297612e-15
-0.0006716903172225363
2.814331593209081e-15
-0.0006716903172178878
-6.436494866880022e-15
-0.0006716903172170579
6.031902990969914e-15
-0.0006716903172273556
2.183741222016827e-14
-0.0006716903172270432
-1.395628564081069e-15
-0.0006716903172304364
1.086977888695026e-14
-0.0006716903172336202
5.381212702836187e-15
-0.0006716903172315514
1.573673665746488e-15
-0.0006716903172333227
1.238087452985803e-14
-0.0006716903172460636
2.737791087044114e-14
-0.0006716903172488142
1.682007549209948e-15
-0.0006716903172572372
2.179996003270801e-14
-0.0006716903172496107
-1.787296869690796e-14
-0.0006716903172490294
9.520504157569509e-15
-0.0006716903172541503
1.077088856251979e-14
-0.0006716903172493791
-8.122619805097664e-15
-0.0006716903172530029
1.38437638133245e-14
-0.0006716903172673194
3.287765866004672e-14
-0.0006716903172773968
2.627894427417304e-14
-0.0006716903172895003
2.971361266820968e-14
-0.0006716903172892375
3.90405183348915e-15
-0.000671690317285512
3.799626404351939e-15
-0.000671690317288424
8.407533406778887e-15
-0.0006716903172951846
1.399316902696673e-14
-0.0006716903172987913
6.518279110324964e-15
-0.0006716903173047928
1.330900916845856e-14
-0.0006716903173072862
5.292813660238003e-15
-0.0006716903173088977
5.665146943316873e-16
-0.0006716903173093966
-1.107829963301406e-15
-0.0006716903173077978
-1.0844690361664e-15
-0.0006716903173085977
5.622507135755443e-15
-0.000671690317307917
8.825167789531007e-15
-0.000671690317311157
2.621069189155637e-14
-0.000671690317317857
7.700898313003282e-15
-0.0006716903173166704
3.399778180219406e-15
-0.0006716903173213464
2.206845334966681e-14
-0.0006716903173340063
2.982584021057313e-14
-0.0006716903173396931
1.661237219810899e-14
-0.0006716903173457571
1.467359593612168e-14
-0.000671690317337658
-1.730952084217596e-14
-0.0006716903173314172
-2.240608448628451e-14
-0.0006716903173260529
-3.151771356930426e-14
-1.294277422013768e-13
-0.0006404634776804716
8.241325510274706e-15
-0.0006404634776825668
6.220904448655608e-14
-0.000640463477678281
-1.007412301960195e-13
-0.0006404634776794108
2.243317212809343e-14
-0.0006404634776794
-4.800948200036731e-14
-0.0006404634776691371
-3.378693433023217e-14
-0.0006404634776528883
-6.340755195568114e-14
-0.0006404634776462576
-8.363605009603693e-15
-0.0006404634776533721
-9.166106147101649e-17
-0.0006404634776535318
-7.501042437964522e-15
-0.0006404634776598762
3.600606184911388e-15
-0.0006404634776463952
-4.774872627635091e-14
-0.0006404634776277516
-4.848736493785908e-14
-0.0006404634776175674
-3.127875152572754e-14
-0.0006404634776185889
-4.953664926518727e-15
-0.0006404634776188115
3.042525888458928e-15
-0.0006404634776132003
-1.204544953746216e-14
-0.0006404634776106747
3.509579296143507e-15
-0.000640463477622561
3.373147068293061e-14
-0.0006404634776227868
-1.101226492712823e-15
-0.0006404634776268206
1.487438510199448e-14
-0.0006404634776315497
1.010703085262717e-14
-0.000640463477629341
-6.554172630592917e-16
-0.000640463477629949
1.298836384116404e-14
-0.0006404634776447614
4.219735530878645e-14
-0.0006404634776494482
6.375139329547014e-15
-0.0006404634776592545
3.160210152860695e-14
-0.0006404634776507448
-2.638042214497024e-14
-0.000640463477648315
7.088786673011385e-15
-0.000640463477654345
1.679894259116978e-14
-0.0006404634776492094
-1.327304409283632e-14
-0.000640463477651693
1.619422327258059e-14
-0.0006404634776682948
4.96146398210767e-14
-0.0006404634776804825
3.846361719825738e-14
-0.0006404634776943359
4.357572062407928e-14
-0.0006404634776949416
4.700653511041582e-15
-0.0006404634776887901
-2.516711473316006e-15
-0.0006404634776909917
1.062487587537745e-14
-0.0006404634777004292
2.343656010488792e-14
-0.0006404634777059782
1.207677153289785e-14
-0.0006404634777127606
2.009707353165175e-14
-0.000640463477716287
8.879033519444271e-15
-0.0006404634777177559
1.95843845540516e-15
-0.0006404634777209052
2.032953342974149e-15
-0.0006404634777213965
-5.89738368767856e-16
-0.0006404634777200469
4.290959122905218e-15
-0.0006404634777179458
6.739501503670965e-15
-0.0006404634777192639
2.776991188350357e-14
-0.0006404634777267549
1.494840752262007e-14
-0.0006404634777257319
2.368808788353925e-15
-0.0006404634777299529
2.629643509238952e-14
-0.0006404634777449344
4.479612866239828e-14
-0.0006404634777524446
2.411707751328368e-14
-0.0006404634777604362
2.266458412668206e-14
-0.0006404634777521713
-2.558898984028224e-14
-0.0006404634777444828
-3.010587533876865e-14
-0.0006404634777406545
-3.534496062578424e-14
-1.418415673721611e-13
-0.0006257802633654493
-5.445811578983785e-14
-0.0006257802633604035
5.716186476492636e-14
-0.0006257802633573177
-1.038566078068346e-13
-0.0006257802633563555
2.146723147314449e-14
-0.0006257802633557723
-4.857452269819123e-14
-0.0006257802633460904
-4.348322989915089e-14
-0.000625780263332633
-7.691783137409474e-14
-0.0006257802633231303
-1.790009109892354e-14
-0.0006257802633303377
7.10139545119105e-15
-0.0006257802633292933
-8.544672676814156e-15
-0.0006257802633351688
9.437682828253689e-15
-0.0006257802633218066
-6.111069319184782e-14
-0.0006257802633038848
-6.643347526838371e-14
-0.0006257802632933464
-4.190186786114113e-14
-0.0006257802632953441
-3.008974538951548e-15
-0.0006257802632943863
2.091193522220934e-15
-0.0006257802632898185
-1.657147702745204e-14
-0.0006257802632871613
9.190760242529636e-16
-0.0006257802632988282
4.543638849808286e-14
-0.0006257802632996109
-2.847005116866296e-16
-0.000625780263304047
1.924425981690679e-14
-0.0006257802633088469
1.491751550269918e-14
-0.0006257802633085597
-8.981683263957437e-16
-0.0006257802633093901
1.385486213821828e-14
-0.000625780263323652
5.645004053332363e-14
-0.0006257802633291212
1.183299976299829e-14
-0.0006257802633387852
4.128362233688798e-14
-0.000625780263330829
-3.4310547753867e-14
-0.0006257802633278042
4.078989958591068e-15
-0.0006257802633329922
2.198352759862051e-14
-0.0006257802633297411
-1.654996121638188e-14
-0.0006257802633324132
1.867436084764178e-14
-0.0006257802633486565
6.604081643255662e-14
-0.0006257802633610376
5.08838269950926e-14
-0.0006257802633730993
5.566198255650723e-14
-0.0006257802633752892
7.085036594428776e-15
-0.0006257802633706165
-7.4602987858947e-15
-0.0006257802633726053
1.253704223869776e-14
-0.000625780263383496
3.432512982318478e-14
-0.0006257802633900442
1.86192402058938e-14
-0.0006257802633964376
2.651079920000762e-14
-0.0006257802634003067
1.286208581823418e-14
-0.000625780263401209
2.781155325581028e-15
-0.0006257802634071694
8.0575527088609e-15
-0.0006257802634114901
3.758959590173667e-15
-0.0006257802634079455
7.296487699758882e-16
-0.0006257802634055617
4.383640571809956e-15
-0.0006257802634057722
2.829594729468046e-14
-0.0006257802634121114
2.096852966270546e-14
-0.0006257802634126384
2.835044295312591e-15
-0.0006257802634179243
3.154715813355644e-14
-0.0006257802634333595
6.020703310057188e-14
-0.0006257802634417112
3.244623507585291e-14
-0.0006257802634502753
3.121144020078846e-14
-0.0006257802634439853
-3.187363370804714e-14
-0.0006257802634370466
-3.701711988860992e-14
-0.0006257802634335757
-3.881044434442205e-14
-1.472707854252184e-13
-0.0006339936418296026
-1.281239516252245e-13
-0.0006339936418201929
4.775252429447671e-14
-0.0006339936418144972
-1.095570614538467e-13
-0.0006339936418093033
1.626108374102762e-14
-0.0006339936418054988
-5.24017730950119e-14
-0.000633993641795441
-5.355999098179309e-14
-0.000633993641787755
-8.459966821428511e-14
-0.0006339936417772418
-2.841374732880021e-14
-0.0006339936417823251
1.218412943526101e-14
-0.0006339936417780801
-1.278742791212331e-14
-0.0006339936417809366
1.229483065676852e-14
-0.0006339936417682459
-7.381015345662029e-14
-0.0006339936417555076
-7.917136538950309e-14
-0.0006339936417459357
-5.144944922492849e-14
-0.0006339936417484657
-4.597480070130835e-16
-0.0006339936417457801
-5.905199543998812e-16
-0.0006339936417443534
-1.800097500092814e-14
-0.0006339936417432123
-2.336633828343766e-16
-0.0006339936417528187
5.503988288627614e-14
-0.0006339936417536422
5.833091334456764e-16
-0.0006339936417583663
2.396331998164829e-14
-0.0006339936417620544
1.859961939170066e-14
-0.0006339936417653395
2.361268457151174e-15
-0.0006339936417680242
1.653111628747487e-14
-0.0006339936417796317
6.806629581007147e-14
-0.000633993641784492
1.670313564664876e-14
-0.0006339936417926368
4.942152035136318e-14
-0.0006339936417864561
-4.049671358684467e-14
-0.0006339936417844036
2.022896997632533e-15
-0.0006339936417871756
2.475201531127649e-14
-0.000633993641787501
-1.623731919495636e-14
-0.0006339936417922968
2.341947410732582e-14
-0.0006339936418063959
8.019795183165533e-14
-0.0006339936418170338
6.151042044081356e-14
-0.0006339936418244861
6.311868646044498e-14
-0.0006339936418283226
1.101801954769442e-14
-0.0006339936418284937
-7.350333368942585e-15
-0.0006339936418313501
1.542765430069507e-14
-0.0006339936418423466
4.532625403894561e-14
-0.000633993641848685
2.496597101750634e-14
-0.0006339936418538993
3.17247220798268e-14
-0.0006339936418568657
1.584919558353771e-14
-0.0006339936418583123
4.190999328577058e-15
-0.0006339936418662148
1.593866440026117e-14
-0.0006339936418733328
1.087635241149092e-14
-0.0006339936418696169
-2.965763580765146e-15
-0.0006339936418688514
3.626810520377122e-15
-0.000633993641869337
2.888724917571199e-14
-0.0006339936418734927
2.501499811650605e-14
-0.0006339936418767007
6.053226514549103e-15
-0.0006339936418848109
3.967052555619879e-14
-0.0006339936418992047
7.459301791985424e-14
-0.0006339936419072746
4.051207429134112e-14
-0.0006339936419150591
3.900088194296792e-14
-0.0006339936419124542
-3.449238030696484e-14
-0.0006339936419091076
-4.038247911207176e-14
-0.0006339936419046368
-4.328358019425401e-14
-1.487114256201304e-13
-0.000671680461992269
-2.106944237061579e-13
-0.0006716804619818934
3.73772127970675e-14
-0.0006716804619703705
-1.211008637774844e-13
-0.0006716804619588663
4.753076077856996e-15
-0.0006716804619499806
-6.128003320334647e-14
-0.000671680461938489
-6.506629076787207e-14
-0.0006716804619377159
-8.541142355209676e-14
-0.0006716804619273928
-3.8763607674289e-14
-0.0006716804619286542
1.343274045850076e-14
-0.0006716804619195546
-2.189421868812668e-14
-0.000671680461917713
1.042323704937312e-14
-0.0006716804619061997
-8.532906274942602e-14
-0.0006716804619016635
-8.372951828851132e-14
-0.0006716804618940466
-5.913202349129335e-14
-0.0006716804618972982
2.751994571017933e-15
-0.0006716804618927467
-5.133952210825323e-15
-0.0006716804618958723
-1.484291999293754e-14
-0.0006716804618972283
1.16980335563275e-15
-0.0006716804619034087
6.125531509719899e-14
-0.0006716804619037
9.021261602977432e-16
-0.0006716804619088322
2.905602365239915e-14
-0.0006716804619109606
2.073555662568399e-14
-0.000671680461918952
1.03891126873241e-14
-0.0006716804619243971
2.200419040861212e-14
-0.0006716804619318589
7.551793564863404e-14
-0.0006716804619350577
1.989318525591708e-14
-0.0006716804619407633
5.514635849065819e-14
-0.0006716804619374911
-4.374496028693789e-14
-0.0006716804619378671
2.411138430398862e-15
-0.0006716804619373209
2.420430793307744e-14
-0.0006716804619422639
-1.131312750240772e-14
-0.0006716804619504521
3.14912161809474e-14
-0.0006716804619613367
9.118455431377959e-14
-0.0006716804619689309
6.913302011126559e-14
-0.0006716804619704604
6.466622849056507e-14
-0.0006716804619759884
1.665341377829105e-14
-0.0006716804619833736
-1.34532596423037e-16
-0.0006716804619881645
2.01624482184063e-14
-0.0006716804619973796
5.454748032639266e-14
-0.0006716804620021477
2.973809835667442e-14
-0.0006716804620059618
3.555244039103432e-14
-0.0006716804620080577
1.801046601055868e-14
-0.000671680462011572
7.661139860535299e-15
-0.0006716804620188469
2.325657751828999e-14
-0.0006716804620260685
1.812531771356479e-14
-0.0006716804620260552
-2.986702221613141e-15
-0.0006716804620304748
8.069935316772899e-15
-0.0006716804620324108
3.101118180840562e-14
-0.0006716804620344263
2.684211374488011e-14
-0.0006716804620414577
1.303157126389366e-14
-0.0006716804620534751
5.165291294727654e-14
-0.0006716804620656869
8.678264028951137e-14
-0.000671680462072806
4.761344819316224e-14
-0.0006716804620792362
4.541713086485486e-14
-0.0006716804620814536
-3.227404345742083e-14
-0.0006716804620835186
-3.82948736336186e-14
-0.0006716804620770608
-4.973124556047456e-14
-1.509409311284948e-13
-0.0007439312950011491
-3.012644743197798e-13
-0.0007439312949917906
2.801458587744123e-14
-0.0007439312949700792
-1.42817707305643e-13
-0.0007439312949505087
-1.48277411494124e-14
-0.0007439312949352333
-7.657770168209649e-14
-0.0007439312949215712
-7.874648837769602e-14
-0.0007439312949277278
-7.924635930141162e-14
-0.0007439312949174881
-4.900182742208373e-14
-0.0007439312949134121
9.358173865960524e-15
-0.0007439312948983608
-3.694582562399366e-14
-0.0007439312948913054
3.3738036109869e-15
-0.0007439312948818534
-9.478639658584242e-14
-0.0007439312948874036
-7.817467562056338e-14
-0.0007439312948822981
-6.421285962698663e-14
-0.000743931294886746
7.220523865785877e-15
-0.0007439312948806621
-1.121404222978341e-14
-0.0007439312948891535
-6.358238082404261e-15
-0.0007439312948932067
5.209933260943017e-15
-0.0007439312948951237
6.316644005928842e-14
-0.0007439312948948742
6.815941925677171e-16
-0.000743931294900654
3.484397552127008e-14
-0.0007439312949011303
2.120533504454395e-14
-0.0007439312949143914
2.362253428711777e-14
-0.0007439312949223723
2.997816680970232e-14
-0.0007439312949245669
7.772132702308818e-14
-0.0007439312949255716
2.090640118920607e-14
-0.0007439312949284562
5.802126284508078e-14
-0.0007439312949295561
-4.265104749972112e-14
-0.0007439312949335712
6.421851673319284e-15
-0.0007439312949294547
2.008239701092202e-14
-0.0007439312949395437
-1.239033413244555e-15
-0.0007439312949510269
4.297325096280496e-14
-0.0007439312949578312
9.800697690167592e-14
-0.0007439312949619535
7.324501685476611e-14
-0.000743931294958368
6.108525622082189e-14
-0.0007439312949660185
2.434779598103807e-14
-0.0007439312949814099
1.525094514376708e-14
-0.0007439312949887231
2.751110444403991e-14
-0.0007439312949953348
6.11620003332025e-14
-0.0007439312949975094
3.192047395543304e-14
-0.000743931294999822
3.786100366202015e-14
-0.000743931295001781
1.997225171148766e-14
-0.0007439312950074338
1.329996329978747e-14
-0.000743931295012123
2.792443273198619e-14
-0.0007439312950184043
2.440325696074159e-14
-0.000743931295026165
4.791854546428491e-15
-0.0007439312950391506
2.106235704025515e-14
-0.0007439312950431494
3.504191903108811e-14
-0.0007439312950440242
2.767849641467876e-14
-0.0007439312950560965
2.511923533481621e-14
-0.0007439312950720178
6.759400770782908e-14
-0.0007439312950812818
9.603673170817307e-14
-0.0007439312950874037
5.373113567794584e-14
-0.0007439312950928325
5.085362088089293e-14
-0.0007439312951007111
-2.44072326075892e-14
-0.0007439312951085576
-3.046611386363961e-14
-0.0007439312950993356
-5.895568213205921e-14
-1.586110749443747e-13
-0.000851640148087233
-3.982219227627029e-13
-0.0008516401480790095
1.9790891291414e-14
-0.0008516401480419819
-1.798578896788073e-13
-0.0008516401480131949
-4.361863608942234e-14
-0.0008516401479910888
-9.869322189505079e-14
-0.0008516401479747891
-9.506658704586607e-14
-0.0008516401479860994
-6.795706026004282e-14
-0.0008516401479745117
-6.060736263750232e-14
-0.000851640147963911
-1.251498620803391e-15
-0.0008516401479427758
-5.809127065610208e-14
-0.0008516401479314044
-8.019199613687283e-15
-0.0008516401479255366
-1.006683973552693e-13