/*--------------------------------*- C++ -*----------------------------------*\
| =========                 |                                                 |
| \\      /  F ield         | OpenFOAM: The Open Source CFD Toolbox           |
|  \\    /   O peration     | Version:  v1812                                 |
|   \\  /    A nd           | Web:      www.OpenFOAM.com                      |
|    \\/     M anipulation  |                                                 |
\*---------------------------------------------------------------------------*/
FoamFile
{
    version     2.0;
    format      ascii;
    class       volVectorField;
    location    "10000";
    object      U;
}
// * * * * * * * * * * * * * * * * * * * * * * * * * * * * * * * * * * * * * //

dimensions      [0 1 -1 0 0 0 0];


internalField   nonuniform List<vector> 
3770
(
(-0.971854831958417 6.67752320499094e-13 -3.083214609589299e-07)
(-0.9718548319676745 1.606622312268744e-13 -3.083261916807686e-07)
(-0.9718548319743063 -2.939047920993076e-13 -3.083178535367516e-07)
(-0.9718548319560969 1.673776121279921e-13 -3.083256273850887e-07)
(-0.9718548319717606 -1.516064500844858e-13 -3.083177271782621e-07)
(-0.9718548319519527 8.439439566267825e-14 -3.083255026347801e-07)
(-0.9718548319684197 -9.048352258774989e-14 -3.083173649760987e-07)
(-0.971854831950746 5.450957615116167e-14 -3.083253988393485e-07)
(-0.9718548319661315 -6.013323785193249e-14 -3.083170814924966e-07)
(-0.9718548319489969 3.83145358730597e-14 -3.083251711942598e-07)
(-0.9718548319631953 -5.105401501183863e-14 -3.083169262381596e-07)
(-0.9718548319480772 2.49168009946927e-14 -3.083248165032308e-07)
(-0.9718548319618434 -1.965412242884821e-14 -3.083168804779323e-07)
(-0.9718548319492236 1.677498206895677e-14 -3.083243639689346e-07)
(-0.971854831960437 -3.799456113697407e-14 -3.083169111759626e-07)
(-0.9718548319487298 1.646890540298803e-14 -3.083238476559784e-07)
(-0.9718548319598654 -6.567062157472685e-15 -3.083169861339214e-07)
(-0.9718548319500346 3.159962790945611e-14 -3.08323297810875e-07)
(-0.9718548319600311 -2.505809059418284e-14 -3.083170790118319e-07)
(-0.97185483194994 3.705822878492985e-15 -3.083227381178037e-07)
(-0.9718548319596452 -1.128494866020339e-15 -3.083171706019095e-07)
(-0.971854831951018 1.321010896041683e-14 -3.083221855384302e-07)
(-0.9718548319592856 -9.50294267296771e-15 -3.083172482743587e-07)
(-0.9718548319522728 1.668430191208775e-14 -3.083216512794797e-07)
(-0.971854831959913 -1.00504288783468e-14 -3.083173048081055e-07)
(-0.9718548319525695 2.938341663758979e-15 -3.0832114215067e-07)
(-0.9718548319592596 -4.903919130129592e-15 -3.08317337068827e-07)
(-0.9718548319534109 1.033434423433274e-14 -3.083206618209538e-07)
(-0.9718548319591501 -6.476955004998103e-16 -3.083173447799598e-07)
(-0.9718548319551693 9.519318658632965e-15 -3.083202119156452e-07)
(-0.9718548319587051 -1.998213180902941e-14 -3.083173295736441e-07)
(-0.9718548319558 -7.053035260476941e-15 -3.083197928177033e-07)
(-0.9718548319585283 1.73316420576836e-14 -3.083172942636785e-07)
(-0.971854831955385 -2.85043702278359e-15 -3.083194042076518e-07)
(-0.9718548319596747 1.502508406350726e-14 -3.083172423803776e-07)
(-0.9718548319561575 2.093292344231659e-14 -3.083190454647693e-07)
(-0.9718548319606115 -2.307570789026636e-14 -3.083171777630944e-07)
(-0.9718548319580773 -2.376908025511888e-15 -3.083187158861935e-07)
(-0.9718548319602625 -5.052079546630766e-15 -3.083171043680804e-07)
(-0.9718548319582208 -2.10066317730068e-15 -3.083184149237914e-07)
(-0.9718548319600959 1.018879078523804e-14 -3.083170262410832e-07)
(-0.9718548319584311 1.59321773511685e-14 -3.083181423996939e-07)
(-0.9718548319597329 -3.272001894498939e-14 -3.083169476684388e-07)
(-0.9718548319581696 8.709769705820902e-15 -3.083178989038686e-07)
(-0.9718548319593895 -1.643103483550909e-15 -3.08316873610926e-07)
(-0.9718548319584092 -1.05117136238694e-14 -3.083176864259736e-07)
(-0.9718548319594583 1.513109544880332e-14 -3.083168104662342e-07)
(-0.9718548319598983 4.183673429462794e-14 -3.083175092635211e-07)
(-0.9718548319617561 -4.375841142637194e-14 -3.083167669910822e-07)
(-0.9718548319596979 1.707427495526707e-15 -3.083173746774607e-07)
(-0.9718548319624744 1.098894265186437e-14 -3.083167541784628e-07)
(-0.9718548319615492 7.480514559364457e-16 -3.083172908324888e-07)
(-0.9718548319634271 1.176487973795589e-14 -3.083167787917898e-07)
(-0.9718548319633213 1.644064333921711e-15 -3.083172526584995e-07)
(-0.971854831965844 4.141428988462911e-14 -3.083168234662197e-07)
(-0.971854831963388 -4.971914222931129e-14 -3.083171127650547e-07)
(-0.9718548319671142 1.435272606817009e-13 -3.083162410946203e-07)
(-0.9718548319419009 -6.464740652592352e-13 -3.083168233803056e-07)
(-0.9159021362426295 2.334944337350846e-12 -9.179951736011067e-07)
(-0.9159021362287337 6.119334690163259e-13 -9.180065172031285e-07)
(-0.91590213625766 -1.154999959543515e-12 -9.179847785438773e-07)
(-0.9159021362071996 4.320723501873099e-13 -9.180070337345593e-07)
(-0.9159021362525319 -5.680483682161561e-13 -9.179835703480085e-07)
(-0.9159021361973388 1.624441464289029e-13 -9.180069168720788e-07)
(-0.9159021362448321 -2.919571587123748e-13 -9.17982461021965e-07)
(-0.9159021361947188 8.793258071030679e-14 -9.180065600382167e-07)
(-0.9159021362397364 -2.257423187935108e-13 -9.179816964107784e-07)
(-0.9159021361910462 1.932962025785581e-14 -9.180057992443503e-07)
(-0.9159021362329949 -1.645409659190278e-13 -9.179813169096798e-07)
(-0.9159021361892925 2.578252743381318e-14 -9.180046713396103e-07)
(-0.9159021362280783 -2.357182889713406e-14 -9.179812453776392e-07)
(-0.9159021361913258 5.945405542443763e-15 -9.18003272759151e-07)
(-0.9159021362243268 -1.113658278187215e-13 -9.179813800517785e-07)
(-0.9159021361910588 3.801039380314211e-14 -9.18001704639106e-07)
(-0.9159021362233872 1.933272021144958e-14 -9.179816272911971e-07)
(-0.9159021361939376 8.852942851497421e-14 -9.180000534791621e-07)
(-0.915902136223838 -6.318695568566773e-14 -9.179819127079411e-07)
(-0.9159021361950357 6.095122224684827e-15 -9.179983853603935e-07)
(-0.9159021362230401 3.386515805974731e-14 -9.179821833155558e-07)
(-0.915902136198065 2.345097613495436e-14 -9.179967466498188e-07)
(-0.9159021362222364 1.444376650344573e-14 -9.179824051252632e-07)
(-0.9159021362012715 6.34659008736606e-14 -9.179951673001458e-07)
(-0.915902136223915 -1.42492153126856e-14 -9.179825594255125e-07)
(-0.9159021362029377 -9.636030081946494e-15 -9.179936649865757e-07)
(-0.915902136222423 2.076459522856258e-14 -9.179826388804349e-07)
(-0.9159021362056855 2.295125970169323e-14 -9.179922488069366e-07)
(-0.9159021362213626 5.326103714697952e-14 -9.179826439833338e-07)
(-0.9159021362102827 1.733582379917271e-14 -9.179909223645932e-07)
(-0.9159021362205523 -3.175771303101598e-14 -9.179825803934234e-07)
(-0.9159021362121181 -1.308333681828259e-14 -9.179896860259173e-07)
(-0.9159021362217605 3.500592471917206e-14 -9.179824569565804e-07)
(-0.9159021362125197 2.782109261293219e-14 -9.179885383678373e-07)
(-0.9159021362248694 7.542258419146443e-14 -9.179822843972134e-07)
(-0.91590213621496 8.432788095528547e-14 -9.179874773277773e-07)
(-0.9159021362267086 9.125823338937776e-15 -9.179820742148595e-07)
(-0.915902136220306 -6.666255443786659e-15 -9.179865007131849e-07)
(-0.915902136226675 -3.812892245558304e-15 -9.179818381057417e-07)
(-0.9159021362213047 -5.127585435954425e-15 -9.179856068203044e-07)
(-0.9159021362267487 3.074022554357072e-14 -9.179815878937171e-07)
(-0.9159021362221138 2.579272337672589e-14 -9.179847949445607e-07)
(-0.9159021362257233 -8.960980145180132e-14 -9.179813358601245e-07)
(-0.9159021362220046 2.295689155714065e-14 -9.179840663907319e-07)
(-0.9159021362251415 1.542519727812787e-14 -9.179810958843852e-07)
(-0.9159021362232241 -1.769107705939115e-14 -9.179834261391434e-07)
(-0.9159021362264195 8.505598730782057e-14 -9.179808855322308e-07)
(-0.9159021362270857 1.913524092902208e-13 -9.179828854495737e-07)
(-0.915902136231886 -1.137950782919377e-13 -9.179807289703214e-07)
(-0.9159021362275257 4.534235857174385e-14 -9.179824644785992e-07)
(-0.9159021362346574 8.667029758806031e-14 -9.179806583109217e-07)
(-0.915902136232372 2.532245577809066e-14 -9.179821900631728e-07)
(-0.915902136237111 8.060347649437677e-14 -9.179807036003146e-07)
(-0.9159021362358009 5.240920379813853e-14 -9.179820725214185e-07)
(-0.9159021362409693 8.864598749749812e-14 -9.179808466714047e-07)
(-0.9159021362334674 -1.989577426071836e-13 -9.179818599542918e-07)
(-0.9159021362406558 -4.478306208454307e-14 -9.179804344453767e-07)
(-0.9159021361962573 -1.767578213054641e-12 -9.179838806039648e-07)
(-0.8594397182224522 3.64634262948166e-12 -1.528663691446204e-06)
(-0.8594397181774749 1.007720335819764e-12 -1.528680909303825e-06)
(-0.8594397182385937 -2.102788532534724e-12 -1.528646238670491e-06)
(-0.8594397181544584 6.236289807754e-13 -1.528683244760044e-06)
(-0.8594397182308291 -1.065586829526858e-12 -1.528643523116512e-06)
(-0.85943971814228 1.472697811222262e-13 -1.528683227122437e-06)
(-0.8594397182177625 -5.127335607438118e-13 -1.528641784927417e-06)
(-0.8594397181380916 7.557660507151497e-14 -1.528682411412771e-06)
(-0.8594397182117388 -4.099201503797989e-13 -1.528640784677357e-06)
(-0.8594397181347802 -6.497892444882685e-14 -1.528680879934869e-06)
(-0.8594397182030231 -2.789489637377542e-13 -1.528640407672314e-06)
(-0.8594397181332307 -7.146948100282337e-14 -1.528678785392903e-06)
(-0.8594397181923186 -3.21013508757214e-14 -1.528640480765977e-06)
(-0.8594397181332134 -5.656458037914509e-14 -1.528676307395379e-06)
(-0.85943971818594 -1.752376321599969e-13 -1.528640829672153e-06)
(-0.8594397181333773 5.151476585300236e-14 -1.528673610032942e-06)
(-0.8594397181848739 7.103209639381564e-14 -1.528641307478598e-06)
(-0.8594397181362822 1.5846272840564e-13 -1.528670825020346e-06)
(-0.8594397181862971 -5.459407078703133e-14 -1.528641803582523e-06)
(-0.8594397181403881 -6.716341770407213e-15 -1.528668048292984e-06)
(-0.8594397181846032 1.037949055333812e-13 -1.528642242856706e-06)
(-0.8594397181450584 3.098582466610017e-14 -1.528665344360624e-06)
(-0.8594397181837823 8.074766991856646e-14 -1.528642579668199e-06)
(-0.8594397181491809 1.379678338511794e-13 -1.528662752807326e-06)
(-0.8594397181871092 2.252062768155602e-14 -1.528642791181413e-06)
(-0.8594397181539767 -3.97204099167674e-14 -1.52866029534779e-06)
(-0.8594397181851842 8.897618099661171e-14 -1.528642871013574e-06)
(-0.8594397181590414 2.994980283810151e-15 -1.528657981775728e-06)
(-0.859439718181647 1.646095488754381e-13 -1.52864282379604e-06)
(-0.8594397181658201 2.618164644071347e-14 -1.528655814493122e-06)
(-0.8594397181814637 -2.265192494429774e-14 -1.528642661199229e-06)
(-0.8594397181677825 3.168380377712916e-14 -1.528653791858905e-06)
(-0.8594397181857677 9.895909797561458e-14 -1.528642399226038e-06)
(-0.8594397181719882 9.906431460503727e-14 -1.528651910172943e-06)
(-0.8594397181914671 1.735142677943791e-13 -1.528642056293674e-06)
(-0.8594397181767534 1.618795980293972e-13 -1.528650165423386e-06)
(-0.8594397181929407 1.069415795978338e-13 -1.528641651675776e-06)
(-0.8594397181842943 6.030943562423618e-15 -1.528648553725711e-06)
(-0.8594397181944913 2.926642972190039e-14 -1.528641204572329e-06)
(-0.8594397181864962 -4.413588676882988e-15 -1.528647072089869e-06)
(-0.8594397181951318 6.317039451796331e-14 -1.528640734047721e-06)
(-0.8594397181887016 2.891996801708955e-14 -1.528645718949473e-06)
(-0.8594397181940671 -1.331202135974811e-13 -1.528640259198965e-06)
(-0.8594397181892163 2.958048571144615e-14 -1.528644495308592e-06)
(-0.8594397181926703 5.466748310342014e-14 -1.528639800633586e-06)
(-0.859439718190784 8.977816544299843e-15 -1.528643406841752e-06)
(-0.859439718195916 1.979885558262092e-13 -1.528639383277267e-06)
(-0.85943971819621 4.012526857996711e-13 -1.528642467720542e-06)
(-0.8594397182039586 -1.579355779287455e-13 -1.528639041339804e-06)
(-0.859439718197918 1.331223252911617e-13 -1.528641706070652e-06)
(-0.859439718207558 2.268815543457381e-13 -1.528638823932885e-06)
(-0.8594397182058686 8.432264903409304e-14 -1.528641168509111e-06)
(-0.8594397182126148 1.605856774174387e-13 -1.528638796553989e-06)
(-0.8594397182097301 1.052780787535793e-13 -1.528640918533905e-06)
(-0.8594397182168125 7.445001568511265e-14 -1.528639026497063e-06)
(-0.8594397182040532 -3.560921370207795e-13 -1.528640813056304e-06)
(-0.8594397182167969 -3.770304314272632e-13 -1.528639369288396e-06)
(-0.8594397181629356 -2.653383912925204e-12 -1.528646049988151e-06)
(-0.8035737706609781 4.421203718773851e-12 -2.127497191946155e-06)
(-0.8035737705814816 1.492996824851968e-12 -2.127523226819085e-06)
(-0.8035737706814012 -3.037069233282405e-12 -2.12747343983232e-06)
(-0.8035737705627035 7.538434679898834e-13 -2.127526891239512e-06)
(-0.8035737706713127 -1.581548491372336e-12 -2.12746960627661e-06)
(-0.8035737705525603 -7.697054556552219e-15 -2.127526598524566e-06)
(-0.803573770651115 -7.872623218452147e-13 -2.127467670355572e-06)
(-0.8035737705446214 6.552108224581816e-14 -2.127524920825912e-06)
(-0.8035737706451715 -5.588842590561676e-13 -2.127466845030548e-06)
(-0.8035737705447324 -1.878086311178475e-13 -2.127522276931104e-06)
(-0.8035737706361726 -3.641014556941344e-13 -2.12746679533586e-06)
(-0.8035737705458191 -3.079975659030397e-13 -2.127518971762321e-06)
(-0.8035737706181936 -1.273028246065593e-13 -2.127467236809168e-06)
(-0.8035737705393123 -1.87633599932638e-13 -2.127515268539406e-06)
(-0.8035737706080974 -2.3851988217562e-13 -2.127467931432523e-06)
(-0.8035737705394849 6.407923441480864e-14 -2.127511378809938e-06)
(-0.8035737706072658 1.012543536498309e-13 -2.127468697351461e-06)
(-0.8035737705401022 2.48292133324463e-13 -2.127507459052718e-06)
(-0.8035737706090079 4.209474811489872e-14 -2.127469407838735e-06)
(-0.8035737705495729 -4.247467009760943e-14 -2.127503615081567e-06)
(-0.8035737706065177 2.069457077541836e-13 -2.127469983343693e-06)
(-0.8035737705555768 4.662102263220314e-14 -2.127499912904723e-06)
(-0.8035737706065578 1.616845248373586e-13 -2.127470380534318e-06)
(-0.8035737705586469 2.63534181364995e-13 -2.127496388918232e-06)
(-0.8035737706114385 1.490773906626827e-13 -2.127470582492798e-06)
(-0.803573770569327 -8.455362421200742e-14 -2.127493059606666e-06)
(-0.8035737706098919 2.136550502806614e-13 -2.127470590445922e-06)
(-0.8035737705778219 -8.498905013183715e-14 -2.12748992925297e-06)
(-0.8035737706022485 3.121196288397885e-13 -2.127470417292544e-06)
(-0.8035737705847487 6.557838779956602e-14 -2.127486995026125e-06)
(-0.8035737706045291 -2.979553833522054e-14 -2.127470082909634e-06)
(-0.8035737705847871 1.552468292094437e-13 -2.127484250796127e-06)
(-0.8035737706119568 2.766244441577043e-13 -2.127469611528094e-06)
(-0.8035737705961432 2.374308009600609e-13 -2.12748168920639e-06)
(-0.8035737706214002 3.408787821023286e-13 -2.127469029451341e-06)
(-0.8035737706053027 2.248694870191243e-13 -2.12747930378867e-06)
(-0.803573770621918 2.312864768721114e-13 -2.127468363535975e-06)
(-0.8035737706123716 6.482645230563563e-14 -2.127477088917296e-06)
(-0.8035737706261392 1.055571152209034e-13 -2.127467639924543e-06)
(-0.8035737706163587 1.20146080573082e-14 -2.127475040332482e-06)
(-0.8035737706275791 1.245883621917722e-13 -2.127466884064875e-06)
(-0.8035737706212346 4.131083488491046e-14 -2.127473155513382e-06)
(-0.803573770627532 -1.411596510646489e-13 -2.127466120352436e-06)
(-0.8035737706230305 5.611537720290965e-15 -2.127471434265425e-06)
(-0.8035737706247554 7.652452408145691e-14 -2.127465373408915e-06)
(-0.8035737706231095 7.163354561593317e-14 -2.127469880410673e-06)
(-0.8035737706297912 3.297959683704287e-13 -2.127464670602843e-06)
(-0.8035737706282826 6.666259065232908e-13 -2.127468505691849e-06)
(-0.8035737706394041 -1.594210967807777e-13 -2.127464048153268e-06)
(-0.8035737706329471 2.28808297745565e-13 -2.127467337457393e-06)
(-0.803573770641832 4.423739994391734e-13 -2.127463561287003e-06)
(-0.8035737706434111 2.219124831880969e-13 -2.127466432345618e-06)
(-0.803573770651966 2.494929757922314e-13 -2.12746330338267e-06)
(-0.8035737706483079 1.73083062862025e-13 -2.127465908397414e-06)
(-0.8035737706578573 -1.444450003574893e-14 -2.127463447920366e-06)
(-0.8035737706380971 -4.953574482540321e-13 -2.127465801632814e-06)
(-0.8035737706577613 -7.564022317237679e-13 -2.127464357992788e-06)
(-0.8035737705971916 -3.574171815827809e-12 -2.127473467220971e-06)
(-0.7495969996546249 4.447834754449147e-12 -2.7001066063833e-06)
(-0.7495969995359228 2.077151425335966e-12 -2.700146169111438e-06)
(-0.7495969996763484 -3.817651225883062e-12 -2.700077752015406e-06)
(-0.7495969995253418 8.424990180766252e-13 -2.700149928732859e-06)
(-0.7495969996650065 -1.987779658660915e-12 -2.700073823786887e-06)
(-0.7495969995224429 -3.371101922088127e-13 -2.700148589949215e-06)
(-0.7495969996381104 -1.202139817167804e-12 -2.700072375169889e-06)
(-0.7495969995068456 6.276464835381034e-14 -2.700145522924356e-06)
(-0.7495969996311638 -5.888757532243915e-13 -2.700072216104958e-06)
(-0.7495969995134777 -2.891115249354644e-13 -2.700141409853622e-06)
(-0.7495969996236906 -3.665971061111677e-13 -2.700072829162176e-06)
(-0.7495969995198547 -7.164191326322819e-13 -2.700136682194475e-06)
(-0.7495969995989367 -4.245822815734951e-13 -2.700073841887774e-06)
(-0.7495969995025947 -4.160188267268557e-13 -2.700131661398889e-06)
(-0.7495969995840996 -2.964475619203864e-13 -2.700074979714375e-06)
(-0.7495969995029397 7.263518883743463e-14 -2.700126577317282e-06)
(-0.7495969995834717 5.231148105508276e-14 -2.700076054345718e-06)
(-0.7495969994991981 3.507209277641042e-13 -2.700121583137166e-06)
(-0.7495969995835721 2.820643833809427e-13 -2.700076948439869e-06)
(-0.7495969995157358 -1.061467822195921e-13 -2.700116770740377e-06)
(-0.7495969995811682 3.299571689651057e-13 -2.700077598123967e-06)
(-0.7495969995227717 9.170606359626919e-14 -2.700112189436949e-06)
(-0.7495969995834014 2.010210608319619e-13 -2.70007797697936e-06)
(-0.7495969995226327 4.206291028492461e-13 -2.700107859333041e-06)
(-0.7495969995882087 4.473742065220549e-13 -2.700078083797537e-06)
(-0.7495969995419712 -9.78460501977175e-14 -2.70010378270085e-06)
(-0.7495969995890456 4.173108859173996e-13 -2.700077933346769e-06)
(-0.7495969995552356 -2.809460437530513e-13 -2.700099952594866e-06)
(-0.7495969995766026 4.420722712001279e-13 -2.700077550139513e-06)
(-0.7495969995592451 1.729824621701446e-13 -2.700096357428267e-06)
(-0.7495969995825975 -1.101718275144649e-13 -2.700076963654912e-06)
(-0.7495969995548992 3.396929356109199e-13 -2.700092984502379e-06)
(-0.7495969995910758 6.501315937399224e-13 -2.700076206661191e-06)
(-0.7495969995761017 4.898607254735137e-13 -2.700089821774064e-06)
(-0.7495969996059391 6.279276957649416e-13 -2.700075312836405e-06)
(-0.7495969995926587 2.349995059854267e-13 -2.700086860063086e-06)
(-0.7495969996056374 2.897982065066111e-13 -2.700074315899627e-06)
(-0.7495969995941573 1.859467742773191e-13 -2.700084092268232e-06)
(-0.749596999611978 2.549547427968604e-13 -2.700073248026201e-06)
(-0.7495969996020877 5.849546067958703e-14 -2.700081513143802e-06)
(-0.7495969996153237 2.528428081777641e-13 -2.700072140000325e-06)
(-0.7495969996112167 9.906082958833349e-14 -2.700079119693994e-06)
(-0.7495969996172229 -9.296998012452751e-14 -2.700071020218159e-06)
(-0.7495969996144581 -4.651778872659406e-14 -2.700076910415977e-06)
(-0.7495969996143719 3.491015416016405e-14 -2.700069915138185e-06)
(-0.7495969996117593 1.659290124101349e-13 -2.70007488577992e-06)
(-0.7495969996195259 4.290155364329474e-13 -2.700068850487467e-06)
(-0.7495969996141847 9.355915444835209e-13 -2.700073050704992e-06)
(-0.7495969996282412 -6.906059688643949e-14 -2.700067856467482e-06)
(-0.7495969996241528 2.786235009406028e-13 -2.700071421857299e-06)
(-0.7495969996280604 7.088261790429542e-13 -2.700066979127401e-06)
(-0.749596999635177 5.205045083111559e-13 -2.700070045914903e-06)
(-0.7495969996462567 3.646598304991171e-13 -2.700066309865661e-06)
(-0.7495969996427579 2.754496507999626e-13 -2.700069052268591e-06)
(-0.7495969996557424 -2.069703519291974e-13 -2.700066066562272e-06)
(-0.749596999627217 -6.495086177571694e-13 -2.700068582566455e-06)
(-0.7495969996533351 -1.124826424750251e-12 -2.700066855949908e-06)
(-0.7495969995880388 -4.578297469016206e-12 -2.700077081269619e-06)
(-0.699210244431293 3.56910666313021e-12 -3.228371228703247e-06)
(-0.6992102442692427 2.615066064593253e-12 -3.228429493841913e-06)
(-0.6992102444460112 -4.329200995925276e-12 -3.228339449913039e-06)
(-0.6992102442691368 9.349953268643268e-13 -3.228431694462616e-06)
(-0.6992102444347166 -2.211984281339805e-12 -3.228336693792271e-06)
(-0.69921024427483 -8.140158731062042e-13 -3.22842844912593e-06)
(-0.6992102444047885 -1.826475136427259e-12 -3.228336445101173e-06)
(-0.6992102442508761 -9.194550681046652e-15 -3.228423519051309e-06)
(-0.6992102443931435 -4.458343136561999e-13 -3.22833738095191e-06)
(-0.699210244264892 -3.312049613955667e-13 -3.228417688561261e-06)
(-0.6992102443885493 -2.281273010566852e-13 -3.228338899826243e-06)
(-0.6992102442773427 -1.262793769177247e-12 -3.228411448365263e-06)
(-0.6992102443594944 -9.975437483879469e-13 -3.228340593633436e-06)
(-0.6992102442482563 -7.612790355390155e-13 -3.228405132391491e-06)
(-0.6992102443401194 -3.372354540476668e-13 -3.228342192462938e-06)
(-0.6992102442499394 8.527157323010958e-14 -3.228398950757035e-06)
(-0.6992102443393292 -1.123636705965718e-13 -3.228343535232644e-06)
(-0.6992102442418145 3.975463435792081e-13 -3.22839302315652e-06)
(-0.699210244335753 6.892156434918948e-13 -3.228344539458091e-06)
(-0.6992102442645968 -1.668069410226587e-13 -3.228387405366366e-06)
(-0.6992102443342564 4.723879500842375e-13 -3.228345174570535e-06)
(-0.6992102442726278 2.030163939032551e-13 -3.228382114769717e-06)
(-0.699210244340052 1.587216849575887e-13 -3.228345442437364e-06)
(-0.6992102442691115 5.470740663997344e-13 -3.228377145333518e-06)
(-0.6992102443424854 9.525055015244932e-13 -3.228345364259131e-06)
(-0.6992102442967715 -2.759613416003141e-14 -3.228372479040307e-06)
(-0.6992102443476924 7.306897303127853e-13 -3.228344971669017e-06)
(-0.6992102443147571 -5.990766345182666e-13 -3.228368094147238e-06)
(-0.6992102443312553 4.949605076086747e-13 -3.228344302080525e-06)
(-0.6992102443141162 3.879631380256985e-13 -3.228363968398338e-06)
(-0.6992102443409628 -2.922009965708614e-13 -3.22834339445613e-06)
(-0.6992102443054444 5.108608001310814e-13 -3.228360081573572e-06)
(-0.6992102443476106 1.243548358613063e-12 -3.228342289190954e-06)
(-0.6992102443356921 8.917611209633362e-13 -3.22835641669204e-06)
(-0.6992102443686319 1.084624090402641e-12 -3.228341025944483e-06)
(-0.6992102443603775 2.062972966596241e-13 -3.22835296195919e-06)
(-0.6992102443682531 2.178983993962459e-13 -3.228339643896701e-06)
(-0.6992102443528699 3.540349011857254e-13 -3.228349709300642e-06)
(-0.6992102443742564 4.98990155412635e-13 -3.22833817996019e-06)
(-0.6992102443669469 1.470350937894067e-13 -3.228346653102485e-06)
(-0.6992102443816135 4.5496837547474e-13 -3.228336669070195e-06)
(-0.6992102443798568 2.316601206643014e-13 -3.228343790883183e-06)
(-0.6992102443860242 2.19404459255612e-14 -3.228335142801009e-06)
(-0.699210244384182 -7.259586950333091e-14 -3.228341120706883e-06)
(-0.6992102443863147 -7.852669760297415e-14 -3.228333628439209e-06)
(-0.699210244380759 2.449215161496331e-13 -3.228338640038849e-06)
(-0.6992102443888437 4.599095480840189e-13 -3.228332148309393e-06)
(-0.6992102443791056 1.15159313410099e-12 -3.228336345559205e-06)
(-0.6992102443943518 1.44290582839355e-13 -3.228330721785159e-06)
(-0.6992102443942991 2.49920047814485e-13 -3.228334236768219e-06)
(-0.699210244391718 9.611947255860851e-13 -3.228329373081331e-06)
(-0.6992102444038965 1.015684171586369e-12 -3.228332330761605e-06)
(-0.6992102444181318 5.667847908433876e-13 -3.228328157066362e-06)
(-0.6992102444154026 4.843972228967559e-13 -3.228330710452277e-06)
(-0.6992102444322046 -5.173635160871197e-13 -3.228327240595241e-06)
(-0.69921024439581 -9.02798060105121e-13 -3.228329486201335e-06)
(-0.6992102444255316 -1.433057994879246e-12 -3.228327132936674e-06)
(-0.6992102443607301 -5.534071696774388e-12 -3.228336964065412e-06)
(-0.6539418409103251 1.753890948333248e-12 -3.696718988178115e-06)
(-0.6539418407065022 2.892853286597608e-12 -3.696799582836274e-06)
(-0.6539418409108413 -4.583247382048276e-12 -3.696687141849144e-06)
(-0.6539418407154238 1.028866902884726e-12 -3.696798721948814e-06)
(-0.6539418408992959 -2.217103652636691e-12 -3.696686583710877e-06)
(-0.6539418407254042 -1.325999654242972e-12 -3.696792961946049e-06)
(-0.6539418408705795 -2.633746916172388e-12 -3.696688032888608e-06)
(-0.6539418406986256 -2.315734047341028e-13 -3.696785913472666e-06)
(-0.6539418408518576 -1.5422505294466e-13 -3.696690305037895e-06)
(-0.6539418407172122 -3.224709320600312e-13 -3.696778311321909e-06)
(-0.6539418408487551 4.077869432925595e-14 -3.696692812501879e-06)
(-0.6539418407333046 -1.883561640956143e-12 -3.696770632462764e-06)
(-0.6539418408186373 -1.800985343833184e-12 -3.696695170946035e-06)
(-0.6539418406971272 -1.214973972254814e-12 -3.696763172223633e-06)
(-0.6539418407959895 -3.35224155151502e-13 -3.696697158684982e-06)
(-0.6539418407012603 9.679522763123282e-14 -3.696756084039709e-06)
(-0.6539418407948184 -3.666040970989245e-13 -3.696698672187732e-06)
(-0.6539418406912559 3.573907857700577e-13 -3.696749429163419e-06)
(-0.6539418407879726 1.245489525977337e-12 -3.696699683007801e-06)
(-0.6539418407167606 -1.987641647030194e-13 -3.696743212072734e-06)
(-0.6539418407876092 6.129219937533112e-13 -3.696700204863166e-06)
(-0.6539418407259558 3.92879545198108e-13 -3.696737409495258e-06)
(-0.6539418407964565 5.444728334441511e-14 -3.696700273394673e-06)
(-0.6539418407221831 6.050145655858779e-13 -3.696731984841236e-06)
(-0.6539418407965429 1.623473550906101e-12 -3.696699934264199e-06)
(-0.6539418407534867 1.560259787967138e-13 -3.696726897957973e-06)
(-0.6539418408056316 1.149100280170573e-12 -3.696699236040615e-06)
(-0.653941840773919 -9.970907710597217e-13 -3.696722111581882e-06)
(-0.6539418407877218 4.391785573578358e-13 -3.696698227903935e-06)
(-0.6539418407695263 6.699933031622187e-13 -3.69671759283353e-06)
(-0.6539418407991241 -5.502497628500517e-13 -3.696696956682821e-06)
(-0.6539418407602041 6.310835418515185e-13 -3.696713314330001e-06)
(-0.6539418408033695 2.006389036988413e-12 -3.696695468354943e-06)
(-0.6539418407945308 1.431880820868488e-12 -3.69670925472234e-06)
(-0.6539418408282788 1.686440495669236e-12 -3.696693806559977e-06)
(-0.6539418408223565 2.199675381810681e-13 -3.696705399985572e-06)
(-0.6539418408296503 7.160795233749767e-15 -3.696692013949272e-06)
(-0.6539418408100331 5.05140711668947e-13 -3.696701741527539e-06)
(-0.6539418408341127 8.508124484341891e-13 -3.696690130611078e-06)
(-0.6539418408292949 2.851470242138024e-13 -3.696698274258705e-06)
(-0.6539418408452905 7.433696443294215e-13 -3.696688194421627e-06)
(-0.6539418408435392 4.213187581691884e-13 -3.696694997237161e-06)
(-0.6539418408517637 1.428299102606684e-13 -3.696686239613938e-06)
(-0.6539418408474531 2.305919996175494e-14 -3.696691909618193e-06)
(-0.6539418408574932 -1.677370043807791e-13 -3.696684294463341e-06)
(-0.6539418408483635 2.274375576493585e-13 -3.696689007826111e-06)
(-0.6539418408555392 4.009369498195123e-13 -3.696682378657959e-06)
(-0.6539418408438562 1.273871021612099e-12 -3.696686282352462e-06)
(-0.6539418408570902 4.664098014674141e-13 -3.696680500783606e-06)
(-0.6539418408602895 1.74144475398742e-13 -3.696683715420905e-06)
(-0.6539418408548531 1.16291907889236e-12 -3.6966786591057e-06)
(-0.6539418408688076 1.684456653889859e-12 -3.696681285930041e-06)
(-0.6539418408854788 8.758554596728373e-13 -3.696676852593856e-06)
(-0.6539418408838351 8.039371835735974e-13 -3.696678993565088e-06)
(-0.6539418409031477 -8.964914577765858e-13 -3.696675127986797e-06)
(-0.6539418408643981 -1.243056727558338e-12 -3.696676805199441e-06)
(-0.6539418408934337 -1.668235284544136e-12 -3.696673643806194e-06)
(-0.6539418408340187 -6.271252146033625e-12 -3.696681853824861e-06)
(-0.6144877200924349 -8.602347283690038e-13 -4.098837463277665e-06)
(-0.6144877198590103 2.811148297199377e-12 -4.098940719014406e-06)
(-0.6144877200789521 -4.723287398396814e-12 -4.098807870775129e-06)
(-0.6144877198694171 1.059723282727598e-12 -4.098936003091382e-06)
(-0.6144877200641962 -2.117877073103544e-12 -4.098810001749668e-06)
(-0.6144877198775707 -1.79449989373929e-12 -4.098927522212367e-06)
(-0.6144877200379458 -3.430962425859679e-12 -4.098813336875255e-06)
(-0.6144877198571023 -6.233203434380864e-13 -4.098918358261907e-06)
(-0.6144877200144795 1.80762996783441e-13 -4.098816972114472e-06)
(-0.6144877198750118 -3.275615420052015e-13 -4.098909117650878e-06)
(-0.6144877200092536 3.493101559931485e-13 -4.098820396270556e-06)
(-0.6144877198894785 -2.5077157563544e-12 -4.09890020736001e-06)
(-0.6144877199805555 -2.659297091244437e-12 -4.098823298854148e-06)
(-0.6144877198560901 -1.723292577188574e-12 -4.098891840653302e-06)
(-0.6144877199581334 -2.944729075465701e-13 -4.098825541868776e-06)
(-0.6144877198619202 7.769861898421623e-14 -4.09888408673293e-06)
(-0.6144877199547047 -6.154888554339236e-13 -4.098827100015857e-06)
(-0.614487719854301 2.508881915966663e-13 -4.098876933410079e-06)
(-0.6144877199479819 1.859427561797876e-12 -4.098828008509327e-06)
(-0.6144877198783287 -1.982390336509061e-13 -4.098870327735832e-06)
(-0.614487719948702 7.456990103714494e-13 -4.09882832856087e-06)
(-0.6144877198879991 6.313012080599271e-13 -4.098864204160301e-06)
(-0.6144877199573363 -2.135682355282792e-14 -4.098828129202937e-06)
(-0.6144877198881169 6.270958560886421e-13 -4.098858496307814e-06)
(-0.6144877199579226 2.336802691063182e-12 -4.098827478471664e-06)
(-0.6144877199170934 4.184642266512473e-13 -4.098853143687479e-06)
(-0.6144877199682258 1.616623937481286e-12 -4.098826439401083e-06)
(-0.614487719936432 -1.406208693734075e-12 -4.098848095159046e-06)