/*--------------------------------*- C++ -*----------------------------------*\
| =========                 |                                                 |
| \\      /  F ield         | OpenFOAM: The Open Source CFD Toolbox           |
|  \\    /   O peration     | Version:  v1812                                 |
|   \\  /    A nd           | Web:      www.OpenFOAM.com                      |
|    \\/     M anipulation  |                                                 |
\*---------------------------------------------------------------------------*/
FoamFile
{
    version     2.0;
    format      ascii;
    class       volVectorField;
    location    "10000";
    object      wallShearStress;
}
// * * * * * * * * * * * * * * * * * * * * * * * * * * * * * * * * * * * * * //

dimensions      [0 2 -2 0 0 0 0];


internalField   uniform (0 0 0);

boundaryField
{
    inlet
    {
        type            cyclic;
    }
    outlet
    {
        type            cyclic;
    }
    bottomWall
    {
        type            calculated;
        value           nonuniform List<vector> 
58
(
(-0.001828110738556861 -7.003147752337469e-14 2.002637798692931e-08)
(-0.00182811073795427 -2.143607799478968e-14 2.002668526110763e-08)
(-0.001828110737524179 3.093424236032139e-14 2.002614367433857e-08)
(-0.001828110738707098 -1.329041255457115e-14 2.002664860845815e-08)
(-0.001828110737689478 1.509163195916844e-14 2.00261354669863e-08)
(-0.001828110738976236 -5.727136590379736e-15 2.002664050556199e-08)
(-0.001828110737906528 8.407442201072223e-15 2.002611194089969e-08)
(-0.001828110739054596 -3.63751558813998e-15 2.002663376374606e-08)
(-0.001828110738055169 6.035827825679883e-15 2.002609352781317e-08)
(-0.001828110739168192 -1.928213072940752e-15 2.002661897753377e-08)
(-0.001828110738245898 4.856885146991643e-15 2.002608344359137e-08)
(-0.00182811073922795 -1.517794114115759e-15 2.002659593931717e-08)
(-0.001828110738333717 1.159318810044861e-15 2.002608047133121e-08)
(-0.001828110739153446 -7.868950110255718e-16 2.002656654589494e-08)
(-0.001828110738425079 3.524302934706711e-15 2.002608246525785e-08)
(-0.00182811073918556 -1.155863390283049e-15 2.002653300986284e-08)
(-0.001828110738462215 -4.891800316866406e-17 2.002608733399589e-08)
(-0.001828110739100766 -2.815091865837544e-15 2.002649729581992e-08)
(-0.001828110738451425 2.214982587410097e-15 2.0026093366687e-08)
(-0.001828110739106941 -1.382702922086206e-16 2.002646094212282e-08)
(-0.001828110738476519 -4.124609528117299e-16 2.002609931572964e-08)
(-0.0018281107390369 -9.73946351989651e-16 2.002642505048109e-08)
(-0.001828110738499874 2.290486957298608e-16 2.002610436078174e-08)
(-0.001828110738955393 -1.742005304972452e-15 2.002639034880425e-08)
(-0.001828110738459109 7.2988374737419e-16 2.002610803281343e-08)
(-0.001828110738936127 5.485097432962075e-17 2.002635727940337e-08)
(-0.001828110738501564 2.640570511870568e-17 2.002611012824139e-08)
(-0.00182811073888147 -8.432058484117106e-16 2.002632608058758e-08)
(-0.001828110738508668 -7.763157978610849e-16 2.002611062910195e-08)
(-0.001828110738767235 -6.137888180831235e-16 2.002629685792574e-08)
(-0.001828110738537562 1.432061300462031e-15 2.002610964140742e-08)
(-0.001828110738726306 6.944620250706417e-16 2.002626963629226e-08)
(-0.001828110738549064 -1.304559494547425e-15 2.002610734792219e-08)
(-0.001828110738753235 -2.958566928687134e-16 2.002624439493621e-08)
(-0.001828110738474611 -1.666892487874523e-15 2.002610397795046e-08)
(-0.001828110738703031 -2.256433852531335e-15 2.002622109353982e-08)
(-0.001828110738413726 1.089654593656547e-15 2.002609978086945e-08)
(-0.001828110738578368 3.710937888858194e-16 2.002619968645016e-08)
(-0.001828110738436416 3.695978974702793e-16 2.002609501364927e-08)
(-0.001828110738569049 2.608002008761106e-16 2.00261801380645e-08)
(-0.001828110738447246 -9.819572481070642e-16 2.002608993907299e-08)
(-0.001828110738555342 -1.208062894906681e-15 2.002616243682966e-08)
(-0.00182811073847081 2.957626663857306e-15 2.002608483555062e-08)
(-0.001828110738572384 -5.918029269573368e-16 2.002614662106574e-08)
(-0.001828110738493107 2.886273772700154e-17 2.002608002529922e-08)
(-0.001828110738556811 8.777171235788101e-16 2.002613282000684e-08)
(-0.001828110738488687 -2.01525339232136e-15 2.002607592386735e-08)
(-0.001828110738460028 -4.711190117487066e-15 2.002612131278888e-08)
(-0.001828110738339363 3.884639927929561e-15 2.002607310002935e-08)
(-0.001828110738473126 -4.878540649239191e-16 2.00261125710318e-08)
(-0.001828110738292738 -1.828190009901339e-15 2.002607226781234e-08)
(-0.001828110738352834 -5.157393979508064e-16 2.00261071250563e-08)
(-0.001828110738230849 -1.857875540636234e-15 2.002607386651965e-08)
(-0.001828110738237743 -1.286605814566725e-15 2.002610464554431e-08)
(-0.001828110738073822 -3.618166700623451e-15 2.002607676825406e-08)
(-0.001828110738233467 3.704452191283965e-15 2.002609555905712e-08)
(-0.001828110737990927 -2.257496926517805e-15 2.002603894152038e-08)
(-0.001828110739629489 6.010424850907722e-14 2.002607676267463e-08)
)
;
    }
    topWall
    {
        type            calculated;
        value           nonuniform List<vector> 
58
(
(0.003728037447883616 4.544454879780993e-14 2.365671208352831e-08)
(0.003728037448766334 -2.980532301507038e-14 2.365675527082113e-08)
(0.003728037447784857 4.821873725757936e-15 2.365689312799592e-08)
(0.003728037447951431 -6.732887059495812e-15 2.365703756624348e-08)
(0.003728037447733321 -2.373656731306398e-16 2.365716567155624e-08)
(0.003728037447805938 -9.08239905988575e-16 2.365726949786833e-08)
(0.003728037447709622 -2.872580454666795e-16 2.365735031800843e-08)
(0.00372803744775268 1.033591886394138e-15 2.365740809857019e-08)
(0.00372803744780858 -1.524300892102978e-15 2.365744813545676e-08)
(0.00372803744778353 -4.99643205644974e-16 2.365747090260757e-08)
(0.003728037447824109 2.205313424661314e-16 2.365748277096631e-08)
(0.003728037447874544 4.981505986759456e-15 2.365748266537743e-08)
(0.003728037448050072 1.371550574482954e-15 2.365747745465067e-08)
(0.003728037448058762 -1.649153598480369e-15 2.365746372487483e-08)
(0.00372803744805987 1.535763410502921e-15 2.365744928875691e-08)
(0.003728037448064954 1.008257720222918e-15 2.365742794630751e-08)
(0.003728037448174877 -2.003841421286121e-15 2.365740935190878e-08)
(0.003728037448057553 1.924193395583833e-15 2.365738393733007e-08)
(0.003728037448226963 1.080417264939564e-15 2.365736435591629e-08)
(0.003728037448192539 9.597744648720676e-17 2.365733674302095e-08)
(0.003728037448198039 2.884002984661016e-16 2.365731821225837e-08)
(0.003728037448268177 1.466714079300724e-15 2.365728917523371e-08)
(0.003728037448306508 2.716431394252286e-15 2.365727313310824e-08)
(0.003728037448481746 1.027267742481387e-15 2.365724269593665e-08)
(0.003728037448395669 4.381589994648713e-16 2.365723034874624e-08)
(0.003728037448504121 4.682368947727805e-16 2.365719795787796e-08)
(0.003728037448389595 -1.584466954461523e-15 2.365719054943745e-08)
(0.003728037448427725 -3.9553462098252e-16 2.365715512397277e-08)
(0.003728037448427472 2.323339680231972e-15 2.365715415554028e-08)
(0.003728037448567238 1.145673834570005e-15 2.365711404083763e-08)
(0.003728037448541267 4.592225610091525e-17 2.365712149325862e-08)
(0.003728037448687074 3.41568461087385e-15 2.365707432666187e-08)
(0.003728037448675477 -1.293261711646985e-16 2.365709290802397e-08)
(0.00372803744877311 1.18927114288062e-15 2.365703540065863e-08)
(0.003728037448721344 -3.159471692362686e-16 2.365706886243077e-08)
(0.003728037448719992 -3.806472965926405e-15 2.365699647368827e-08)
(0.003728037448530099 -9.566148700369772e-16 2.365705001749154e-08)
(0.003728037448705127 -1.460213127515303e-15 2.365695650643518e-08)
(0.003728037448306893 -1.280939840684239e-15 2.36570373217271e-08)
(0.003728037448603903 -6.102842481549133e-17 2.365691415422146e-08)
(0.003728037448273184 1.421156071377729e-16 2.365703209711155e-08)
(0.003728037448674299 3.159721292587404e-15 2.365686771113123e-08)
(0.003728037448412221 -1.09967343771861e-15 2.365703608317071e-08)
(0.00372803744871913 -1.129897603287628e-15 2.365681511589362e-08)
(0.003728037448311715 -1.638414639830165e-15 2.365705135951888e-08)
(0.00372803744872276 1.087569107094275e-15 2.365675420234463e-08)
(0.003728037448259911 7.006088977477445e-16 2.365707986908637e-08)
(0.00372803744890401 9.129468547589497e-16 2.365668361378595e-08)
(0.00372803744812168 -4.074068197429866e-15 2.36571218594889e-08)
(0.003728037448812334 -2.620583848199358e-16 2.36566054086368e-08)
(0.003728037447841136 -2.881933568130141e-15 2.365717179607156e-08)
(0.00372803744880334 -1.386516115376995e-15 2.365653133020887e-08)
(0.003728037447461893 -8.733698132746991e-15 2.365720947159772e-08)
(0.00372803744855369 2.331897416141799e-15 2.365649456635645e-08)
(0.00372803744715916 -1.023183767947726e-14 2.365719208050391e-08)
(0.003728037448299572 6.63832302216368e-15 2.365655429503796e-08)
(0.003728037447061793 -2.41467107213101e-14 2.365701067945941e-08)
(0.003728037447199488 1.622243068189394e-14 2.365689687797648e-08)
)
;
    }
    left
    {
        type            cyclic;
    }
    right
    {
        type            cyclic;
    }
}


// ************************************************************************* //
