/*--------------------------------*- C++ -*----------------------------------*\
| =========                 |                                                 |
| \\      /  F ield         | OpenFOAM: The Open Source CFD Toolbox           |
|  \\    /   O peration     | Version:  v1812                                 |
|   \\  /    A nd           | Web:      www.OpenFOAM.com                      |
|    \\/     M anipulation  |                                                 |
\*---------------------------------------------------------------------------*/
FoamFile
{
    version     2.0;
    format      ascii;
    class       volScalarField;
    location    "0";
    object      nut;
}
// * * * * * * * * * * * * * * * * * * * * * * * * * * * * * * * * * * * * * //

dimensions      [0 2 -1 0 0 0 0];


internalField   nonuniform List<scalar> 
3132
(
0.0001266557399197712
9.913073543441001e-07
5.3531270079057e-07
7.16025645031695e-07
6.38719934644914e-07
1.022089456988412e-07
3.43501113877558e-07
1.836809608553282e-07
1.783460246263395e-07
1.153398042193379e-06
1.138167415689869e-06
1.168583327016813e-06
1.097125007064992e-06
7.676773560264588e-07
1.568613106035027e-06
5.573318356818371e-07
1.354764301442811e-06
3.65159810643586e-06
1.78691716522542e-05
1.292724152790841e-05
5.258990226437571e-06
4.343185650260492e-06
5.922395205511358e-06
6.892593487829771e-06
1.504706153521023e-05
3.543054335265707e-05
3.034189073594008e-05
4.495276227700724e-05
5.658490692795518e-06
1.325433047177463e-05
1.785224408525962e-05
7.030061078108027e-06
4.522613398503459e-06
4.745476571163968e-07
1.107908187310511e-06
5.061138845229264e-07
6.141347228582719e-07
2.458158470982057e-07
3.38904459508211e-06
4.503404737988032e-07
1.190343797867926e-06
1.094944479649792e-05
1.338695910549399e-06
4.295868485338605e-07
1.072470327630119e-07
1.677941093271247e-08
2.008387305377324e-08
9.275677877516081e-07
2.04169581488554e-06
7.377959683864293e-06
3.917652738133604e-06
6.613565887127899e-08
1.259256793388433e-07
3.442408212885832e-07
8.786807047658423e-07
4.237166194981934e-07
1.868937618260391e-07
6.839265493350274e-06
0.0001264279247000823
9.770710618450768e-07
5.48272414181355e-07
7.646405530494999e-07
6.81694195171219e-07
1.077040091038782e-07
3.636021701792417e-07
1.904746614112036e-07
1.833899483797006e-07
1.208376246380769e-06
1.151607635489698e-06
1.17440281139547e-06
1.091753260312198e-06
8.128960900922718e-07
1.667548422127827e-06
5.673748813789181e-07
1.380458993565015e-06
3.857368549498275e-06
1.881892136833118e-05
1.382324893309672e-05
5.615592511479312e-06
4.520915015089401e-06
6.07052624229105e-06
7.129367378003638e-06
1.504701393271536e-05
3.536160336201575e-05
3.05631979148391e-05
4.487337008048712e-05
5.918315353166542e-06
1.312203502558022e-05
1.815716107401653e-05
7.284043889178975e-06
4.483287492903398e-06
4.685677226440425e-07
1.106097812073828e-06
5.376103587812783e-07
6.41661334992401e-07
2.47855521212056e-07
3.583206743673836e-06
4.582881708438551e-07
1.245308366514776e-06
1.165644688718085e-05
1.412878627355741e-06
4.539480208516061e-07
1.138468779327252e-07
1.686732265887668e-08
2.068924458688404e-08
9.326525026555518e-07
2.120837918312162e-06
7.875708615498082e-06
4.194491194000016e-06
6.681311171041006e-08
1.318001033441292e-07
3.510319684415056e-07
9.20215717612976e-07
4.505398164986932e-07
1.889989803837769e-07
6.876946154547018e-06
0.0001254534133813658
9.67760037184739e-07
5.656404978112053e-07
8.342238199233183e-07
7.428901884236365e-07
1.1539544287648e-07
3.924907239014132e-07
1.998731198675256e-07
1.899860240129913e-07
1.288216601248189e-06
1.172527858132367e-06
1.189633369339478e-06
1.079827104224416e-06
8.772636398230596e-07
1.807182290614217e-06
5.834395537812151e-07
1.412324744289083e-06
4.159088356452703e-06
2.024483514650532e-05
1.510132853231883e-05
6.12768710285494e-06
4.77184591762122e-06
6.276998359167274e-06
7.508889871555408e-06
1.493518015441212e-05
3.539944721483258e-05
3.122584989769823e-05
4.447513322061843e-05
6.300514857579524e-06
1.292564052863574e-05
1.869061908077852e-05
7.623013106933567e-06
4.39166327849773e-06
4.670395061146768e-07
1.098444935711029e-06
5.819926913253406e-07
6.794976190491378e-07
2.514292956338538e-07
3.866125964487898e-06
4.700360735870722e-07
1.325275370606172e-06
1.26670797310448e-05
1.519898857705769e-06
4.898408754351166e-07
1.233736412418815e-07
1.702660793434833e-08
2.156514102676268e-08
9.431878900418255e-07
2.240094878297601e-06
8.583870070754265e-06
4.589174869505057e-06
6.768493088593779e-08
1.400095966989285e-07
3.619748177657225e-07
9.78866889072017e-07
4.887176973786377e-07
1.923174108209257e-07
6.904348700318654e-06
4.944864206876474e-05
4.963073962036617e-06
1.908146340682166e-06
1.128434268364318e-05
2.040057096727117e-06
4.232830133723156e-06
4.228127694697621e-06
3.284910765845541e-06
1.059623317976987e-06
4.042398530419946e-06
3.204972712108094e-06
3.872781100361211e-06
1.375702060005938e-05
3.495830133678161e-05
2.602456465308252e-05
5.917214168400548e-06
8.603897185475446e-06
2.20215210103378e-05
7.106244925936952e-05
6.451118601781932e-05
4.548135344507131e-05
3.933954586724984e-05
1.54447819302291e-05
2.34148975890742e-05
2.176945318307534e-05
9.664260377398177e-05
6.18398317895457e-05
7.202952250082879e-05
3.06319537665801e-05
2.101831771325197e-05
2.851792807041705e-05
1.958183579751288e-05
4.718661125766846e-06
1.328609650781798e-06
2.860104075986241e-06
3.21281364136039e-06
6.389637817473283e-06
1.639834845666279e-06
8.021895317788508e-06
1.992737221100592e-05
8.095839703210923e-06
3.457084650731378e-05
2.923801607680731e-05
1.084594120507879e-05
8.778374545549587e-06
1.538573300683002e-06
2.795536930178543e-06
3.488236831780892e-06
7.860731112704939e-06
3.440633720322043e-05
1.720543345451427e-05
2.101212861997895e-06
1.254149993144352e-06
3.67068078555393e-06
2.856893161217228e-06
3.61030552093283e-06
2.108475672295917e-06
1.004403788014679e-05
4.877808429372516e-05
5.321206250116452e-06
1.945400551363834e-06
1.204118279782702e-05
2.072311622042169e-06
4.550266848969818e-06
4.460224267689783e-06
3.4680259640811e-06
1.083902521824671e-06
4.161903813465031e-06
3.246877943529648e-06
3.909565566710604e-06
1.410890803842033e-05
3.664051441890454e-05
2.777651231165803e-05
6.177029719183042e-06
8.608640840899557e-06
2.236616326093053e-05
7.22165370443078e-05
6.581199934451008e-05
4.652368036426771e-05
3.992204508764178e-05
1.585846274916869e-05
2.418739623357183e-05
2.229070047715922e-05
0.0001023737561516572
6.222596579367617e-05
7.120298129083105e-05
3.110655618782816e-05
2.095697261630401e-05
2.915194060578394e-05
1.98155735704198e-05
4.891095930170149e-06
1.405497453312162e-06
2.944853218205768e-06
3.337216899574491e-06
6.84639023472872e-06
1.737143697753192e-06
8.222828256123932e-06
2.009076696390593e-05
8.269353600365564e-06
3.519491240007079e-05
3.061284578188491e-05
1.13935922968397e-05
9.498392024020565e-06
1.642223896512568e-06
2.972015859797897e-06
3.519109209574383e-06
7.857354716145567e-06
3.541979701597762e-05
1.746719892705061e-05
2.242199101546136e-06
1.336598884398702e-06
3.908941807438657e-06
2.903001189636665e-06
3.85553161524236e-06
2.181681452168697e-06
1.0106491179436e-05
4.837996300885232e-05
5.81452387714961e-06
1.964290789491612e-06
1.302832065166009e-05
2.073325247939591e-06
4.986905952571498e-06
4.751482292821321e-06
3.69410579195827e-06
1.098163396572975e-06
4.316740159655566e-06
3.265870861330829e-06
3.911400510626394e-06
1.43957505226412e-05
3.852219522796465e-05
3.007636915512101e-05
6.518047043767005e-06
8.67593358088089e-06
2.267885201484657e-05
7.297770144572032e-05
6.701728467562105e-05
4.778824853344476e-05
4.090736216697055e-05
1.64318180850379e-05
2.491693268877407e-05
2.319583144219537e-05
0.0001101272160481925
6.272397016734681e-05
7.080579080320016e-05
3.114001199596647e-05
2.12807638668736e-05
2.994718978320153e-05
1.999268308170963e-05
5.117527222740373e-06
1.508500544649799e-06
3.07207028904668e-06
3.470881161776335e-06
7.448863397893395e-06
1.869126666531416e-06
8.361934152026752e-06
2.021736160396853e-05
8.526083918819321e-06
3.573705966790672e-05
3.236270623140228e-05
1.215825361153756e-05
1.047532846953674e-05
1.774501016131376e-06
3.189620985036367e-06
3.530875724302669e-06
7.84101757137199e-06
3.626354627411614e-05
1.765366148661393e-05
2.437426026730016e-06
1.444956112402073e-06
4.234421228467766e-06
2.921560626612815e-06
4.186283140649284e-06
2.270191655541703e-06
1.013507311244655e-05
9.922268670829143e-05
3.6388118459424e-05
4.997450479239632e-06
6.989224208223856e-05
1.07670850039576e-05
1.332862962562515e-05
1.64184215564788e-05
1.46470115645771e-05
5.362437495675775e-06
1.093475741539182e-05
5.180513615815441e-06
4.720186174056559e-06
1.164854759187209e-05
6.974612291919254e-05
0.000110817192517701
7.406815097266053e-05
1.174582949230873e-05
1.904388053856212e-05
9.025539411313257e-05
8.784083738412317e-05
0.0001262183486577533
5.515087008429046e-05
4.335742052527813e-05
4.29984317875853e-05
3.943769293043537e-05
0.0003228829661145891
6.25511346946876e-05
8.756039001865868e-05
3.014703477240158e-05
5.701889674172833e-05
4.957841872086468e-05
1.796580348726648e-05
1.471322436487369e-05
1.535785201748872e-05
7.859790213499472e-06
1.39270251188232e-05
1.200396527205998e-05
2.09965001454835e-05
1.311228798069802e-05
9.135546296689654e-06
1.912615658664868e-05
4.623582033151216e-05
8.460441670825597e-05
4.526734712374993e-05
5.956393434679602e-05
1.657638326130647e-05
1.471317736157452e-05
4.679753146124526e-06
3.793455232313599e-06
2.615952663808542e-05
4.175241564695731e-05
1.018067638673437e-05
6.606655383168297e-06
1.861503093645636e-05
1.004772286682686e-05
9.37293423497774e-06
1.447245250353024e-05
1.603888547054078e-05
9.907594547388218e-05
3.749202926879403e-05
5.05855935554684e-06
7.363133953832251e-05
1.092242592488971e-05
1.35692503130115e-05
1.677137401261207e-05
1.498095324519715e-05
5.421684799889843e-06
1.098533598349008e-05
5.354561929915727e-06
4.919646198916208e-06
1.176994990608842e-05
7.026121455362732e-05
0.0001123738896294483
7.717362974109349e-05
1.179312801893705e-05
1.89625737220084e-05
9.010417657706841e-05
8.776281199644673e-05
0.0001295592658375518
5.531609954789826e-05
4.374999430215483e-05
4.366058526154948e-05
4.002014663965672e-05
0.0003299625020600189
6.261776264553924e-05
8.792235194700693e-05
3.052043035532716e-05
5.884857286477938e-05
5.073668592075061e-05
1.767392771979959e-05
1.503945552940767e-05
1.563042699797448e-05
7.992787119719712e-06
1.431751086390772e-05
1.216452663204941e-05
2.144787955839749e-05
1.315155554670792e-05
9.356292667615328e-06
1.93531800615204e-05
4.588381909094817e-05
8.715439303814236e-05
4.648468423045039e-05
6.061996389641448e-05
1.772143804494766e-05
1.527068942837321e-05
4.811400056638086e-06
3.673947703685475e-06
2.586540657529715e-05
4.331288513605063e-05
1.041933153729366e-05
6.848407408998154e-06
1.958239021798845e-05
1.008276062820496e-05
9.579946302090483e-06
1.466739764794365e-05
1.629822217999228e-05
9.817839959428716e-05
3.859223211139286e-05
5.152031972551531e-06
7.851975239521502e-05
1.109505109858081e-05
1.357427802680608e-05
1.707301941032598e-05
1.521616105210535e-05
5.44786302754392e-06
1.09582729815341e-05
5.587054200363298e-06
5.195334604084062e-06
1.181273161551115e-05
7.022222354457519e-05
0.0001123205744361671
8.176910540330616e-05
1.17934533952436e-05
1.878489199511886e-05
8.933297908668556e-05
8.770606194871065e-05
0.0001325023401776327
5.51561074931165e-05
4.38004921905246e-05
4.450228459335018e-05
4.052301984974329e-05
0.0003347706248471434
6.269082133952144e-05
8.843280278293073e-05
3.10053090207741e-05
6.09568549448846e-05
5.265843018002357e-05
1.732255415585535e-05
1.5182545935886e-05
1.58230133067774e-05
8.099564618210345e-06
1.490812055253513e-05
1.216962443869355e-05
2.161709834242632e-05
1.329481772686386e-05
9.588834341216081e-06
1.944353294248645e-05
4.600351224394417e-05
8.97749968822071e-05
4.801764529703144e-05
6.165439845539597e-05
1.938679609122114e-05
1.58374845184355e-05
4.967300887171349e-06
3.566214444476676e-06
2.559504908654574e-05
4.572895969842952e-05
1.061393414968608e-05
7.109995156480005e-06
2.083079412362948e-05
1.008518038940512e-05
9.775844634311186e-06
1.476705473324989e-05
1.650850383075877e-05
4.183727377476921e-05
5.832100733220555e-05
1.48377642572707e-05
0.0001269400885036043
4.149732378568271e-05
1.914162265148927e-05
3.000324426316219e-05
2.439827468008251e-05
1.060448174593691e-05
2.358246540271811e-05
1.755804595101837e-05
1.213089115158881e-05
8.715999774668652e-06
2.588531493849267e-05
6.58111738003923e-05
0.000141880317982782
8.590522142349081e-06
2.073896265558146e-05
0.0001016891982905436
8.305867380813557e-05
0.0001382838038072227
0.0001484640751485392
4.761537476954958e-05
9.341948113800371e-05
5.100124242801011e-05
0.0002327264033611182
4.742040202168901e-05
5.181975853096911e-05
8.240066432586308e-05
9.110578182079708e-05
8.877000887909057e-05
2.229656621791433e-05
1.99260648013961e-05
2.286108718435001e-05
1.643562662414595e-05
2.552117355300836e-05
1.436945595914361e-05
2.730634563346678e-05
2.318741295513602e-05
1.51151552497691e-05
1.677205710374537e-05
8.06628606781672e-05
7.523147707866044e-05
7.33881824796424e-05
7.219526800003611e-05
8.692833080988303e-05
3.713258424618431e-05
1.050318304557449e-05
1.658193232913038e-05
3.849302945008074e-05
5.682853674226308e-05
2.943136850913315e-05
2.29133816260246e-05
4.862063541754303e-05
3.853789079965262e-05
2.257476903835245e-05
9.729263179551814e-06
1.795067906692793e-05
4.130950212014578e-05
5.908203730303736e-05
1.568462760519276e-05
0.0001271078816901414
4.239451122554213e-05
1.895524611631446e-05
3.013427235366612e-05
2.515026135307465e-05
1.111574241483307e-05
2.388300658287129e-05
1.78986683214659e-05
1.248380957804105e-05
8.454716568954591e-06
2.298315465184378e-05
6.302716985700156e-05
0.0001434102915377354
8.597497235368212e-06
2.090100431635093e-05
0.0001021767039637909
8.209940330954145e-05
0.0001395302082441747
0.0001537044218965011
4.695509541280874e-05
9.42820919192086e-05
5.07762491408159e-05
0.0002219136793202756
4.646725785160879e-05
5.066054499416436e-05
8.560066725410217e-05
9.115589499332513e-05
8.933932615888994e-05
2.237937345899869e-05
2.008934920706098e-05
2.360514466972147e-05
1.674772074727903e-05
2.613194566769362e-05
1.356256647326586e-05
2.765734771869569e-05
2.360475806057705e-05
1.515003049700948e-05
1.70049533260429e-05
8.361897175219438e-05
7.337940385972404e-05
7.540898337215769e-05
7.125598919870706e-05
8.886908894569839e-05
3.691926072423499e-05
1.080394771826124e-05
1.751869381531115e-05
3.718124075063061e-05
5.910498600663658e-05
3.028245726384711e-05
2.346244531431003e-05
4.900430065402208e-05
3.869881786083846e-05
2.276578803427799e-05
9.883332908585627e-06
1.808882622915792e-05
4.085547808005927e-05
6.059038888528911e-05
1.686806684891065e-05
0.0001251181020151208
4.210806014467116e-05
1.880499472102532e-05
2.987998223114788e-05
2.59904496668012e-05
1.176834160481719e-05
2.386126965167943e-05
1.813338455686865e-05
1.279314152141202e-05
8.35730048033908e-06
2.065491320729452e-05
5.964918252666856e-05
0.0001416148611569923
8.55136041009709e-06
2.122405194959114e-05
0.0001023127351367483
8.037437404497869e-05
0.0001375390412023144
0.0001612431185260017
4.693494897095725e-05
9.577168141210521e-05
5.130494153448481e-05
0.0002110114118127424
4.499465654529019e-05
5.033404366797654e-05
9.036495862412938e-05
9.137339403917401e-05
9.008526576956958e-05
2.273488173091623e-05
2.013387812678834e-05
2.422121262431514e-05
1.698124456015244e-05
2.672707968538722e-05
1.30189849012329e-05
2.734230728102416e-05
2.368796242403703e-05
1.495417431018903e-05
1.744843146004312e-05
8.702776313954362e-05
7.050308804457204e-05
7.942169634834282e-05
7.101785433503067e-05
8.93875787314487e-05
3.697668608557479e-05
1.126415352289924e-05
1.866090442478021e-05
3.675160582678249e-05
6.14446250330443e-05
3.120751430437657e-05
2.384589395702571e-05
4.785054418428768e-05
3.882849949572922e-05
2.320843413233316e-05
1.011433856432939e-05
1.80117981448045e-05
5.897256133778314e-05
9.32778221601751e-05
4.915269160090665e-05
0.0001201138664131258
0.0001021887380638204
3.363644645099081e-05
2.752513570639112e-05
3.932951381947766e-05
2.231787315472811e-05
4.575264224096293e-05
2.595539344460242e-05
1.039318697586263e-05
1.652547726836496e-05
9.027215395846689e-06
1.677726205852381e-05
0.0001138160736635516
2.091135129766673e-05
2.877257202955371e-05
8.648632389685362e-05
0.0001305689895020615
0.0001093894595443007
0.0001654870050853812
4.757192177491246e-05
0.0001003667883571568
8.181823597202878e-05
8.685990720063254e-05
8.146549659956367e-05
4.417316330133698e-05
0.0001025391218952404
0.0001057171135518223
9.658311473122867e-05
5.489784032927769e-05
4.909046865256643e-05
3.841926328961286e-05
2.370335207492273e-05
8.078699275776356e-05
1.329488928248347e-05
3.542787324500056e-05
2.647446356472572e-05
2.065896422861936e-05
1.728994602627489e-05
0.0001651530443491447
6.639977397696558e-05
0.0001142418010263569
3.555054472551933e-05
6.950326283901317e-05
2.30614909009236e-05
2.836110291140845e-05
3.998234149154968e-05
3.94623146249031e-05
0.0001117391988586751
3.720441211649039e-05
4.673575487570468e-05
3.196690424389698e-05
1.830417316173553e-05
3.899225410667342e-05
2.298562078864586e-05
1.696201985593024e-05
4.634605937063928e-05
0.0001618653956486783
0.0001279955824768365
4.400905415782856e-05
0.0001304838545925187
4.92276403508965e-05
3.196851154906039e-05
5.463678462430524e-05
3.088279703107117e-05
6.519226934528129e-05
3.657281530336847e-05
7.011121261532476e-06
1.611057099015292e-05
1.53745068510659e-05
4.239511856835924e-05
1.598225381638795e-05
3.412090572998025e-05
1.501146927286785e-05
6.255485103728711e-05
0.0002599123876092348
4.692180212789695e-05
0.0001564943903839256
6.988426468352194e-05
6.47914172305148e-05
0.0001391805667753168
4.70111319469013e-05
0.0001717948920231061
6.961853043130071e-05
5.619549277915032e-05
5.250941148336497e-05
7.098482132876426e-05
3.46670682930255e-05
3.58219666765901e-05
4.268330392316155e-05
2.963688565355301e-05
0.0001084016981882328
2.798330271982801e-05
4.662522627533565e-05
5.214345013596512e-05
3.923864369977787e-05
2.261062412192032e-05
0.0001786183337074526
9.568516188521938e-05
0.0001399886320758756
6.095496600922871e-05
6.532126866840798e-05
1.376202360422302e-05
1.798037416897092e-05
8.50490267744169e-05
7.26912510799899e-05
0.000142766328711615
9.060718301859757e-05
6.187563618199098e-05
1.359724248416595e-05
3.128521843032795e-05
4.709578529869865e-05
3.031391983774458e-05
1.730748519519395e-05
8.821976134640464e-05
0.0001627613208236213
0.0001147464088208288
3.790782935878775e-05
0.0001187061510032815
7.045814002695913e-05
4.496843570333308e-05
2.85231379576122e-05
1.220549246828086e-05
6.866325693811305e-05
4.027425463939543e-05
1.617332326348309e-05
1.224019678979491e-05
2.601386045988385e-05
6.032572507036927e-05
4.113209686650408e-05
1.600497670628739e-05
1.594431752520829e-05
4.060230216227199e-05
0.0001990675146686501
3.710966310811447e-05
3.922780821403174e-05
0.0001041298411157759
3.168213556858811e-05
0.0001517340580804913
7.189245427602826e-05
0.0002495383433835979
0.0001508995669977391
2.481837680666239e-05
4.8167612733362e-05
7.326199121726747e-05
2.662222245204841e-05
3.244330641895768e-05
4.401258774262068e-05
3.25931884399851e-05
9.932635951157798e-05
4.577181938028132e-05
3.865727819372428e-05
9.630598890727114e-05
3.63909516567629e-05
1.976684146815548e-05
0.0001700530785200212
0.0001373968069959325
8.190337409891492e-05
8.956132668078967e-05
9.376831213879844e-05
2.822052428192226e-05
1.081751507656654e-05
0.0001111216257348424
0.000126299456871037
0.00011704182595174
8.365630867749439e-05
8.671968024175949e-05
1.287571375821561e-05
4.030023724378826e-05
3.480405944102523e-05
4.034774588511136e-05
2.526345837744106e-05
4.419650026844124e-05
0.0001125469662455952
5.592941217852182e-05
0.0001001007845818304
0.0001745732275221763
7.326202592154509e-05
5.483461831476178e-05
2.994366509568133e-05
1.824587055769755e-05
3.962482385780931e-05
6.334703200969942e-05
4.266226283864106e-05
2.230597060759364e-05
4.309047832602782e-05
0.000105194134397963
4.41159403107778e-05
4.911509205161261e-05
4.515998145950532e-05
3.145991058562165e-05
0.0001352524055755978
2.289033256299204e-05
2.772224819595438e-05
7.038089026030099e-05
2.350757486938119e-05
9.729062878820602e-05
0.0001797281656101355
0.000209169706735492
0.0002050076237466304
2.598701699467509e-05
4.065433938482444e-05
0.0001013065612230904
6.272390012217412e-05
2.047897834407903e-05
1.842222435019275e-05
1.505469344702672e-05
4.50890204250915e-05
4.208180353568939e-05
3.741005510579953e-05
0.0001377731006819018
4.040230046897443e-05
2.592158703972127e-05
0.0001142584890163689
0.0001932603735956509
8.399415817039927e-05
9.8853256936802e-05
0.0001386804053045981
5.025953304150136e-05
1.269568845447073e-05
0.0001176084223173648
0.0001297425808741031
7.406291371577799e-05
0.0001846680535484522
0.0001095503986119515
5.927923291672733e-05
4.513793241527482e-05
3.617878012084175e-05
4.345846031322674e-05
4.115801746580876e-05
2.481344824129075e-05
4.589748506121306e-05
2.374814833015287e-05
0.0001419987549757271
0.0001352469935650114
0.0001658576243741731
4.164261765646864e-05
2.680651678771316e-05
1.059966628429778e-05
2.825184976326532e-05
4.198610982416854e-05
3.968108537929785e-05
3.439374967489007e-05
6.120086640180659e-05
7.660687840324522e-05
3.909909904655406e-05
0.0001232825659642617
0.0001064476225810141
2.259286927296909e-05
6.922574720420017e-05
1.086730303732768e-05
1.449029234312555e-05
3.430922243031475e-05
2.439591308764706e-05
3.759759146405272e-05
0.0001493245168688175
0.0001214436314247818
9.386551325466338e-05
4.791292447263215e-05
5.133924946320947e-05
0.0001399450012541531
6.574559714612636e-05
2.160543190429504e-05
2.162743436560835e-05
5.343908943578426e-05
1.775911624350967e-05
2.623766547268288e-05
3.061920626508808e-05
8.396498863805639e-05
5.238483899575504e-05
2.571133772347109e-05
4.583263816686734e-05
0.0002352182445667145
5.327643254166282e-05
0.0001053744277745431
0.0001985053016081516
9.671540226037847e-05
1.79348092196466e-05
7.518075825231534e-05
0.0001066893942057938
3.91114365733926e-05
9.597737221086843e-05
7.00342680869942e-05
4.254470364154664e-05
3.293591264916372e-05
2.705854984773807e-05
4.768274734047582e-05
3.790094347091282e-05
3.145344467823802e-05
4.277867734666402e-05
3.272786122743741e-05
0.0001554298241824014
0.0001837869063563243
0.0003209605503724782
3.242746564002278e-05
1.551555610309859e-05
2.176593085969731e-05
3.754375684067381e-05
2.357034937882987e-05
4.654368442301133e-05
5.515128912229574e-05
8.084289786781064e-05
4.703498696755401e-05
4.120745493841957e-05
0.0001229880148223038
0.0001273427667776901
1.667524879593356e-05
5.354945314219758e-05
1.750554743999532e-05
8.516740206990633e-06
2.701681908542102e-05
3.041886715645041e-05
2.358093211055989e-05
4.211791319424173e-05
2.39517970168245e-05
7.799172054157266e-05
5.440238836396821e-05
4.755912066763387e-05
9.292724636308354e-05
2.305886752589231e-05
2.913180096977139e-05
1.665758910550377e-05
3.30439534235975e-05
6.652656346129815e-05
3.696804419198264e-05
2.330528104924556e-05
5.576464769198255e-05
2.820910271515969e-05
3.259828632485901e-05
2.412779382539696e-05
0.0001717311639461845
6.739857424703827e-05
9.407650339789405e-05
0.0002443827822603555
0.0001199402706198147
5.676584379632787e-05
2.869698842445866e-05
7.862180999134952e-05
4.330655830438935e-05
4.779855456896684e-05
3.905029689711978e-05
5.389243550160669e-05
2.684772474270219e-05
4.603544166234045e-05
5.256766656281715e-05
2.822811537353729e-05
3.840834572806236e-05
4.606902916877666e-05
3.074759677360144e-05
0.0001046289357162915
0.0001784307271178633
0.0003792519483288146
2.599978930165451e-05
2.017034469598753e-05
5.904962124762248e-05
6.300761018031528e-05
2.672028888160076e-05
3.788119178894916e-05
7.347075494508262e-05
0.0001612936807206008
2.872457588575781e-05
8.769558096417153e-05
4.07645844136766e-05
4.450331474942059e-05
1.849464221460289e-05
0.0001349205098503185
7.03749303001235e-05
1.533107641228386e-05
3.127716265561186e-05
6.144082924345817e-05
3.412907048778603e-05
6.649419098913456e-05
2.682146510884742e-05
0.0001034447463327109
0.0001288728500204965
5.051349018338842e-05
3.870630369084838e-05
2.7278557870997e-05
3.324789840025565e-05
2.47687740762919e-05
3.019619116401584e-05
0.000125063021962016
6.16473755097111e-05
1.819242611165728e-05
2.42530027084198e-05
2.276033919690533e-05
2.698097947136898e-05
4.63429807289832e-05
7.196985598561227e-05
5.225638350033674e-05
0.0001466257893825033
0.0002317723003216315
7.053087754575953e-05
0.0001112517583793009
1.617523420278783e-05
6.369576888490718e-05
3.85714004372689e-05
4.219619708730246e-05
3.970827374121372e-05
8.246089670413431e-05
4.688949552871813e-05
0.0001339442429192449
0.0001727043747379696
4.814119943193308e-05
6.314982389824981e-05
3.12646915307516e-05
1.909638823475673e-05
4.335600711251463e-05
0.0001129400050186443
0.0001841822997623515
1.822682772831613e-05
2.09818219297984e-05
9.752657634733699e-05
6.069749392893766e-05
3.995691503349472e-05
4.339215218812852e-05
5.067651011748203e-05
0.0002876010350184859
5.701048959953278e-05
0.000115854655065321
1.911765015304763e-05
2.98929269101044e-05
4.480234997262949e-05
0.0001058193550401796
4.557548065740936e-05
1.76545709920652e-05
5.46403736170178e-05
9.138931228056186e-05
7.412606967556919e-05
0.0001214291749791509
1.967703131879266e-05
0.0001034657670738944
6.945380543565585e-05
5.373838809259847e-05
5.638316850052525e-05
9.403643025893991e-05
9.55226650499124e-05
6.977246825586276e-05
2.831868445093118e-05
0.0001325573057368031
4.553309621867125e-05
2.626177310408316e-05
1.368536634594233e-05
1.068339949752244e-05
2.76137118112959e-05
5.47446087647932e-05
5.870574590123093e-05
8.5518903760743e-05
0.0002545681333916546
0.0001402832714332565
4.87862639788371e-05
0.0001416995692447987
3.171729968329354e-05
8.00188038495569e-05
3.012661452716628e-05
2.932215528030597e-05
3.158361968281195e-05
4.633209267273505e-05
8.433870584508676e-05
0.0002788545780231786
0.0003250948097876652
0.0001372362644915125
5.030684106601787e-05
4.154580789976142e-05
3.840486686521678e-05
2.343225142465827e-05
2.605492078372701e-05
5.176650223679114e-05
2.271181504960898e-05
2.025947172644594e-05
0.0001080475918870734
3.093833712962337e-05
0.0001018841495140622
0.0001281870736302686
7.218264619592737e-05
0.0003150298883722432
0.0001483532422187542
7.603703057865135e-05
5.540633412560838e-05
8.955370059810567e-05
0.0001132619728927156
5.819202217009896e-05
3.86452108808181e-05
7.372087335121699e-05
6.069430371867227e-05
6.720026924362062e-05
4.867017538098944e-05
0.0001215571919299152
4.290665013035017e-05
4.939825702773008e-05
3.223450446306784e-05
8.733606237039172e-05
0.000198095097859216
0.0002122230182218032
0.0003741343364055441
0.0002403394586238652
3.312665446802717e-05
9.741471669209826e-05
6.318620942684102e-05
5.371047912591052e-05
4.101081070181948e-05
1.77237716160396e-05
3.689693023574594e-05
3.961177410897509e-05
6.69663302774726e-05
0.0001133964334989523
0.0002142946381912015
0.0002334073898444736
3.948924207167068e-05
0.0001852572487082534
4.734514801065784e-05
0.0001540556621459544
4.474271758519066e-05
2.681349176925266e-05
4.183323405165241e-05
4.998367234392185e-05
6.576014377776115e-05
0.0001950912760858882
0.0005239262209796501
0.0001529553178981092
4.55708280179638e-05
4.190110908262611e-05
3.965995636128763e-05
2.274016124749853e-05
2.327450491550076e-05
3.934311217247376e-05
2.289087377046833e-05
2.208299927074258e-05
0.0001109894094181315
3.314052198244789e-05
0.0001063639181897762
0.0001498846910570548
9.485353355265835e-05
0.0003203282732732468
0.0001768399484699273
7.100890449147168e-05
5.75662987828971e-05
9.332865042422769e-05
0.0001233550079721462
5.23357395645436e-05
5.106782835132617e-05
8.364799853523042e-05
6.188004507318243e-05
6.701736267850116e-05
4.169407545102775e-05
0.000112234126998368
4.842793640253332e-05
4.982519799595431e-05
3.374394704725375e-05
9.021107001884331e-05
0.0002221322095159382
0.0002318267629513406
0.0004048779537941919
0.0002600698107939274
3.363365381492811e-05
8.632197767226704e-05
6.562623244825488e-05
6.733155738420275e-05
5.60192609417957e-05
2.295431528778901e-05
3.733054800562401e-05
3.893711700266161e-05
6.875466115346154e-05
0.0001075437977473255
0.0001966248175626241
0.0002591168720517501
4.082843102448723e-05
0.0001843953854467883
4.75891492451874e-05
0.000154258034072799
4.578756637162861e-05
2.952394297483756e-05
4.24715800028681e-05
5.132605634138249e-05
7.873165209936107e-05
0.0001703023631262657
0.0005265104589266267
0.0001577753971772458
7.417917714090691e-05
4.802703436465402e-05
4.138906078298529e-05
2.047638819793906e-05
2.206245342935367e-05
2.089703494577536e-05
1.941259866465188e-05
4.788051688859735e-05
0.0001660014502550634
5.010827408346055e-05
0.0001695030654843279
0.0002013049757400136
0.0002389472470692206
0.0003101589775734831
0.0003855405392442516
0.000115691429748126
4.143343429610803e-05
7.221896232268317e-05
0.0001183274707301219
8.278567879740933e-05
0.0001303586346870915
0.0002376903174693241
0.0001455944170432608
7.572911595663075e-05
1.947513737689042e-05
4.04638763408003e-05
8.478533270186083e-05
5.881471006918922e-05
6.468233505121216e-05
0.000127797068003796
0.0003276378730107598
0.0003801106620480709
0.0004012565963934242
0.0002957990541521922
3.950552510679842e-05
6.970887590958331e-05
7.335717276653289e-05
0.0002149053986196965
0.0002531331121433183
0.0001300581457990829
4.889470029265925e-05
5.010364023482179e-05
0.0001034732458289498
0.0001908286547829935
0.0001208443524084275
0.000283980772314972
7.843018270462067e-05
0.0002199584684828084
0.0001688044461967968
0.0001002401042952973
4.364667097666521e-05
7.370483381844102e-05
4.917122670152297e-05
6.256197150997263e-05
0.0001673485178560086
4.603453807159086e-05