/*--------------------------------*- C++ -*----------------------------------*\
| =========                 |                                                 |
| \\      /  F ield         | OpenFOAM: The Open Source CFD Toolbox           |
|  \\    /   O peration     | Version:  v1812                                 |
|   \\  /    A nd           | Web:      www.OpenFOAM.com                      |
|    \\/     M anipulation  |                                                 |
\*---------------------------------------------------------------------------*/
FoamFile
{
    version     2.0;
    format      ascii;
    class       volVectorField;
    location    "0";
    object      U;
}
// * * * * * * * * * * * * * * * * * * * * * * * * * * * * * * * * * * * * * //

dimensions      [0 1 -1 0 0 0 0];


internalField   nonuniform List<vector> 
3132
(
(-0.6129099107123387 0.08072354669977799 0.0801504704778484)
(-0.6553182413187314 0.006220390825997622 0.005307584010369053)
(-0.6673797271957912 -0.001745082138675375 -0.01313664445025618)
(-0.6903395769756708 0.0005732663590090063 -0.03767421162666094)
(-0.7333146153824397 0.004777639161549652 -0.03881281366205538)
(-0.7237655110081195 0.0005733349128872699 -0.02487762195191909)
(-0.6832947167788932 -0.003322358401809254 -0.05058209926216971)
(-0.7007123834611794 -0.008480357174609611 -0.07625195817645473)
(-0.7226127427138733 -0.004624241193611031 -0.08735028459320368)
(-0.6982530345852996 -0.00811779450468309 -0.06055089473082599)
(-0.789416055517057 0.004636481545567367 0.01161072084568053)
(-0.797057417742541 -0.008778394490323495 -0.02263437091893424)
(-0.7747766555391071 -0.001826924116722173 -0.03283836333276215)
(-0.7627953192866221 0.004612378757404087 0.04117524443862329)
(-0.7660726107104467 0.01416520510294223 0.03701193317882767)
(-0.8351090918665597 0.008068007447229273 0.03284718885703856)
(-0.80272424910505 -0.005826380254909058 0.0250415613093993)
(-0.756718323791878 -0.01637951167912397 0.01939816934187712)
(-0.7052912894211676 -0.003747552144285061 0.006112407900766489)
(-0.7078008654622202 0.001787882043121129 -0.003097973881822561)
(-0.6996517942425005 -0.0115164484511016 0.01984609117479033)
(-0.6767244757277465 -0.01313712185215201 0.03967436999311534)
(-0.7122045870585094 -0.02004434866019912 0.02689228123080158)
(-0.7542589813709858 -0.002994727404788226 0.006166258907852482)
(-0.847157568790009 0.01313313522077312 -0.041471384125016)
(-0.8644552617745169 0.01369751527655128 0.06725429577946983)
(-0.8803193178198989 0.01797063190924317 0.02541053378552251)
(-0.9116733178995947 0.008846543357602273 0.004596412935287994)
(-0.8310724157149065 0.005858195751843478 0.03899009973970349)
(-0.9072845092362342 0.00995918292148012 -0.02198166239627484)
(-0.8537683111824497 0.01366499819527466 0.01265076539169773)
(-0.842800147760329 0.01094105372080136 -0.03238246164824198)
(-0.8170724849673499 0.001545893734977214 -0.0567825541243397)
(-0.8138504656827829 0.002768542957957235 -0.06233655591604884)
(-0.7864913363682342 -0.005234392231434145 -0.05495198694429305)
(-0.7531651799376383 0.001905963287639724 0.007080539310148258)
(-0.7506771682740115 0.001662003612774831 0.02301890782366619)
(-0.8052044995436628 -0.0004668662918830211 0.009999356866502707)
(-0.8372623752341322 -0.0006033042780469247 0.01427720540333618)
(-0.8516239348913507 0.001381927254750832 0.002496908401018368)
(-0.7968527212490331 -0.004574955046836063 -0.005969968440060889)
(-0.7982554120425749 0.003956941810554239 0.00898652821398364)
(-0.7965951895274667 0.005682350254066165 0.01358450878056426)
(-0.77933335555855 0.0003284021827693202 0.007012875349401565)
(-0.7658088420791247 0.0009725027083037722 0.01401474990795358)
(-0.7861253019830998 0.001187302657240496 0.005278644223456853)
(-0.7665310527013323 -0.002513560241282154 -0.003887141884841101)
(-0.768835115790576 0.006964412971727084 -0.02000921050714619)
(-0.7415092673722272 0.005038164146837061 -0.01592762132548631)
(-0.6853320744040753 -0.0002732572956863602 -0.02052123392528239)
(-0.6734608167783546 -0.003411390003557465 -0.01667186807280574)
(-0.6309365913161846 -0.01146271489592032 -0.02641346731728977)
(-0.6415978896452404 -0.002238181696452715 -0.01260838141168294)
(-0.61115602110533 -0.008713935611380612 -0.004534058228865118)
(-0.6391796831401643 -0.004746669114680036 -0.000490749353781333)
(-0.6691711932191944 -0.005745095750155712 -0.02034175161726749)
(-0.6247152480927199 -0.005792047997234246 0.01215075269436878)
(-0.675130194180482 0.01058595671396662 -0.0005015866826509115)
(-0.6086845739390563 0.08096225093194415 0.0802778009844981)
(-0.6513244753673947 0.006020523055819682 0.005806456274585973)
(-0.6623204303641873 -0.002077430987656804 -0.01239330054072358)
(-0.6849029687683039 0.0008085662729742102 -0.03768241051615693)
(-0.730342067711261 0.004595647736566946 -0.03840789429789741)
(-0.719983336221201 0.000443360924818378 -0.02402840380139348)
(-0.67829354922462 -0.003412661250413805 -0.05025582751619607)
(-0.695585984473991 -0.008164762857903895 -0.0765970349963434)
(-0.7183455682353257 -0.004534803212975761 -0.08760028873897242)
(-0.6928233749461106 -0.008042963178263614 -0.06157990798303358)
(-0.786673977438983 0.004472511400467592 0.01167428648092072)
(-0.7939189280966543 -0.008859451645414016 -0.02201778369403556)
(-0.7738339767758862 -0.002234574789612922 -0.03395345366273417)
(-0.7606806237615273 0.004487971875655932 0.04098595915264627)
(-0.7633764967881765 0.01413264530809913 0.03697413112438752)
(-0.8328972566893657 0.008300377657414348 0.03331795890472285)
(-0.8005311641835926 -0.005717084202703624 0.02553628277197992)
(-0.7549552292416787 -0.01638766928505207 0.01941855118910221)
(-0.7031651549384681 -0.003687430492647641 0.006106928171740125)
(-0.7051030657647488 0.002124354470115292 -0.003501381205928651)
(-0.6969645555340208 -0.01137677545257669 0.01956550128064331)
(-0.6741872220853019 -0.0133500424043729 0.03929389776376177)
(-0.7088589364619814 -0.02044900565974997 0.02657327743165889)
(-0.7513722657601484 -0.00270626888312085 0.007281413842760668)
(-0.8464413636149404 0.01372410566932676 -0.04064820489964989)
(-0.8614856657627046 0.01401456035206741 0.06893589273476809)
(-0.879104175071177 0.01851794322383343 0.02501194807315102)
(-0.9095011007643403 0.009780600655678307 0.003650002093747315)
(-0.829132907195825 0.006042927242793554 0.03952330809508972)
(-0.905986401192074 0.009961013857511971 -0.02244213642255873)
(-0.8524245362445548 0.01370006176027023 0.01261249503989835)
(-0.8395440704035476 0.01095913067486835 -0.03255471111005639)
(-0.8141862950936103 0.00152492704307672 -0.05774900351371363)
(-0.8113648089969443 0.002780622551106729 -0.06300675870071587)
(-0.7830707553249865 -0.005475874507216497 -0.05590322246596105)
(-0.749417030770389 0.001797005771967182 0.00682475071926824)
(-0.7467401305076593 0.001691022536055669 0.02337569773081668)
(-0.8013527812183771 -0.0005556730149041043 0.009910313023869813)
(-0.8344565137910546 -0.0004996159681460871 0.01471779308806778)
(-0.8503831487658013 0.001355667897564076 0.002847072613641566)
(-0.793595691873539 -0.004432235241448707 -0.00662623231440254)
(-0.7961456553298732 0.004149819357210251 0.008272991677374289)
(-0.7939913877432073 0.005793932760634267 0.01335428741421195)
(-0.7765174553497368 0.000334245128836009 0.006708367800760702)
(-0.7625773282454329 0.001062096847287669 0.01369438271063934)
(-0.7836374037017447 0.001135027286815196 0.005260666528132395)
(-0.76356501094347 -0.002533949037169868 -0.003897072176706351)
(-0.7670298910073212 0.00700599186494609 -0.02068314959005173)
(-0.7397291901945121 0.005110094410757462 -0.01635749385210122)
(-0.6827313474911894 -0.0001118010155391862 -0.02143402665493751)
(-0.6704056324775158 -0.003399040747100038 -0.01724685720593438)
(-0.6270494514753117 -0.01153899130413246 -0.02646395946157852)
(-0.6379745359220009 -0.002427496152961345 -0.01335248116824148)
(-0.6062622602300736 -0.008885591276040711 -0.00497205354662579)
(-0.634155434352869 -0.004766500124097336 -0.0005105542148893271)
(-0.6653929996165319 -0.005919348359559918 -0.02030768522046445)
(-0.621215269983924 -0.005887532958448283 0.01234007996849087)
(-0.6710944375398545 0.01075970174619182 -0.0009425408771487846)
(-0.6025565945101045 0.08103294786043649 0.08055339987428639)
(-0.6454594489988301 0.005771592115484442 0.006617645844031564)
(-0.6549064831236522 -0.002567735497144875 -0.01115374340038269)
(-0.677118061327325 0.001133422022510699 -0.03769963289404795)
(-0.7260695080123103 0.004319978463206468 -0.03780281048733466)
(-0.7145720685566355 0.0003144195364039898 -0.02285744293419886)
(-0.6711093117584227 -0.003578650615162668 -0.04981917158131605)
(-0.6883434988587164 -0.007711036855834999 -0.07709557271722492)
(-0.712352936925728 -0.004463244504610924 -0.08786923375276569)
(-0.6853330502341792 -0.007898025259166327 -0.06274232290731434)
(-0.7832701637888561 0.004260337461048205 0.01168428724123394)
(-0.7897298837236495 -0.008914547509998528 -0.02087343840513915)
(-0.7728254286595113 -0.002897749491336451 -0.03571924835410249)
(-0.7579346952230758 0.004382043484909815 0.04067837323794593)
(-0.7597318785992079 0.01408470165769318 0.03688688482519011)
(-0.8299628653399129 0.008642039829096998 0.03395892388425026)
(-0.7973162813242805 -0.005646648023274276 0.02622422976166339)
(-0.7529058721314635 -0.01636545304244886 0.01945130291261842)
(-0.7005961713162667 -0.003579261493407605 0.006127779451429323)
(-0.7013548179611468 0.002573263368975446 -0.004102351080496034)
(-0.6929360327059423 -0.01120936090266049 0.01924830502641666)
(-0.6704747492082581 -0.01369863727118875 0.03875894931480243)
(-0.7038717267175099 -0.02092893066225835 0.02626280450789874)
(-0.7471156736258547 -0.002329296066876411 0.008757090123656035)
(-0.8445207836589739 0.01439691093747909 -0.0392450315196889)
(-0.8568707885639023 0.01456207207113662 0.07125210785589786)
(-0.8776910253340888 0.01941307944497909 0.02408946969476802)
(-0.9066136937582865 0.01134149240069455 0.001864618713915524)
(-0.8267090342585813 0.006324273345019534 0.04015059902629701)
(-0.9038966045794716 0.009981817170283725 -0.02312317387798188)
(-0.8510781663536751 0.01381061768463185 0.01216518412305548)
(-0.8345396231433606 0.01085474466150222 -0.03244005407144081)
(-0.810175743766548 0.001468559186111597 -0.05917362984460383)
(-0.8078138731759612 0.002721279605091403 -0.06382256069168743)
(-0.7786249727311789 -0.005771327605197633 -0.05742657541410556)
(-0.7443555162475938 0.001633215238967532 0.006537485914722417)
(-0.7414302900224233 0.001765994706773004 0.02389368240026837)
(-0.795898196757557 -0.0006720686794556153 0.009784614980057589)
(-0.8305059163807538 -0.0002491271966783455 0.01522270004520771)
(-0.8487672417783448 0.001316625851674872 0.003332850039251698)
(-0.7891268441325044 -0.004182352727873279 -0.00763867728205285)
(-0.7933185101761392 0.004460636611906266 0.007237975616148227)
(-0.790315121225954 0.005900701452955209 0.01292010325068877)
(-0.7726641562817274 0.0003352238324330926 0.006264362856789983)
(-0.7582108964535673 0.00120424463475021 0.01321913630012458)
(-0.7801911780046412 0.001048289446252053 0.005187578533268754)
(-0.7595404785709816 -0.002539871362189404 -0.003885051698202402)
(-0.7645818035014278 0.007058402671723754 -0.02170206052208758)
(-0.7372397649637183 0.005202837036843435 -0.01705900193009183)
(-0.6791413844363445 0.0001283927064225079 -0.0227844840900627)
(-0.6661739452635262 -0.003357937979314617 -0.0180448605088274)
(-0.6217487033876264 -0.01167082473219359 -0.02644519697007026)
(-0.6329352079906603 -0.002680619793100825 -0.01435257592811495)
(-0.5995490589616912 -0.009101058289639079 -0.005468748618781958)
(-0.6270348338580262 -0.004787610736395671 -0.000416952191337483)
(-0.6601608016102628 -0.006154984908863178 -0.02021850063688339)
(-0.6163185663072355 -0.005986173182494889 0.01260930763414274)
(-0.6650689422962888 0.01100807256594112 -0.001519380125780909)
(-0.3769820212947123 0.09101709086190642 0.07058766191158714)
(-0.3787157293980608 -0.005194872397092146 0.04306566768455505)
(-0.3462341623788983 -0.02509293080866603 0.02911295888746262)
(-0.3636890627429541 0.00628823375511837 -0.02744774078823427)
(-0.4998523300670359 0.004036755929534289 -0.02333101602901462)
(-0.4811605088664467 -0.006199474523611474 0.01298916112004886)
(-0.3787310876840085 -0.01639525385541785 -0.02874683122582131)
(-0.3728615977044257 0.006833145216136249 -0.08577332718135941)
(-0.4375686711319272 0.001390353712104046 -0.09260306585793739)
(-0.3782324085450067 -0.006003970465007283 -0.1037735542953499)
(-0.5507641083884049 -0.002653417434913292 -0.01673623708456338)
(-0.5736570747257471 -0.01373603760101814 -0.007485060143048226)
(-0.6671075880542731 -0.0168076628377398 -0.08797281452960867)
(-0.637745581139598 -0.001744417603851081 0.02070162987540194)
(-0.6111602666530783 0.01510648177780108 0.03149999252659572)
(-0.6646372146032545 0.02160819002859147 0.05174482535357618)
(-0.660040630629353 0.009517113580240849 0.04304883517408817)
(-0.6510174050234657 -0.004454080951035918 0.01868018108806328)
(-0.5999835416968339 0.01158572905004671 -0.004238228511519697)
(-0.5462921821953907 0.01406738821824022 -0.03667226314038816)
(-0.523620646055253 0.001038085233383333 -0.005005408444426222)
(-0.5106029922610178 -0.01855725415916387 0.0101509827763675)
(-0.5148578530558423 -0.03988466923152249 0.000788272581051859)
(-0.5542302349928958 0.008486031333630385 0.05589160997788958)
(-0.7251159256492203 0.04545413608279145 0.02159140607054378)
(-0.6525361417600413 0.04708839566714915 0.1493558279134423)
(-0.7809064584196062 0.03871118318746263 0.023249619012)
(-0.7789669137138103 0.05039859011344515 -0.03985910387224028)
(-0.6862029696100111 0.02728631019391538 0.04713934331320785)
(-0.7590519285255545 0.0163513739388855 -0.03963173060085375)
(-0.7305709938373086 0.01704344472008576 -0.007814529472793156)
(-0.6389089214489214 0.007448801417335312 -0.02965836451529003)
(-0.603908747826201 -0.001456657949577266 -0.1004246328894825)
(-0.6016586167243424 -0.001946131759731669 -0.1040448511991602)
(-0.5600024578961091 -0.02149470682340245 -0.1096432560195014)
(-0.5144669392728626 -0.00918674656611105 -0.01989559196880443)
(-0.5191846916895845 0.0004712537089968083 0.03278863619379033)
(-0.5586782677704643 0.001033763204426552 0.01202962734873335)
(-0.6161801266583741 0.006531257860173008 0.02738502459213694)
(-0.6896222867746945 0.007169699094045006 0.008019988684247225)
(-0.6287739416114313 0.001571777820033388 -0.03446872521945142)
(-0.6634014763663746 0.01850283843625323 -0.04923974477617345)
(-0.641762413350937 0.01253256472283008 -0.007280731038678417)
(-0.6116286983034758 0.002608660343788413 -0.01831431951354677)
(-0.5679010012141615 0.002917062603738672 -0.01427357295381997)
(-0.5996580014180611 -0.001079632866447248 -7.187415680056427e-05)
(-0.576133757762901 -0.004030190532280509 -0.008245473904591205)
(-0.6378814903432695 0.008800597536260652 -0.05359865972711861)
(-0.6043710976630851 0.005758168982423338 -0.05537590853892067)
(-0.5322042406708575 0.007472075155540502 -0.06949206039753579)
(-0.4819257505720235 -0.006352284138035888 -0.05283204401746924)
(-0.4092750372727423 -0.0189564766186611 -0.03949270672069343)
(-0.413753248871556 -0.01121455850467389 -0.05488094541151263)
(-0.3339295302094222 -0.01956797706356114 -0.0301707973102027)
(-0.3546174127712851 -0.00563628125130954 -0.0006108135390079199)
(-0.4247831977058715 -0.01431387863372184 -0.01919219496092209)
(-0.4033450888433351 -0.009238259340975439 0.01987318654539174)
(-0.4453723274217317 0.01461052979969001 -0.03056554077448635)
(-0.3695898989886139 0.09179249637413915 0.06608496683360436)
(-0.3706696993403022 -0.005485325902155978 0.04403113687360252)
(-0.337220799886257 -0.02599340972895643 0.03009047115579484)
(-0.3543374614225288 0.006323279408897386 -0.02695772719482645)
(-0.492903574051401 0.004303042881798564 -0.02330912010576279)
(-0.4740149252932946 -0.006496240219654777 0.01386361520481766)
(-0.3703073483710524 -0.01726399830710337 -0.02782752888879995)
(-0.3629726123195657 0.007290540241821413 -0.08565970009658658)
(-0.4289769340274267 0.001833664852546859 -0.09281047551037722)
(-0.3681596161544284 -0.005988496694781657 -0.1049487957339823)
(-0.5409749830506143 -0.002903146986580095 -0.01830872740391665)
(-0.5644689571670465 -0.01391561609634814 -0.007331802214549539)
(-0.6618662079727423 -0.01710950759264718 -0.08941122913313598)
(-0.633776192504388 -0.002207029324531031 0.01986530636571949)
(-0.6066060301133045 0.01518057089684315 0.03096276942981789)
(-0.6592390121074952 0.02195505578222456 0.05240275143617361)
(-0.6555413826463722 0.0102025008940465 0.04383563603103758)
(-0.6478474096537039 -0.003928606895862946 0.01885914565965648)
(-0.5967159795027585 0.01236300018748953 -0.004856630928732934)
(-0.5419345504239788 0.01471879090801782 -0.03787304789745299)
(-0.5183561961849449 0.001785302478304843 -0.005671118998193874)
(-0.5057086769983606 -0.01820291273110979 0.009524892936094053)
(-0.51099881770829 -0.04069006336891075 -0.0007960706539432011)
(-0.5476645376055814 0.008770965979507859 0.05711911198286525)
(-0.7213395620097787 0.04663003376210392 0.02336139054276463)
(-0.6441303871922436 0.04791760322925358 0.1510356253908711)
(-0.7776478441900228 0.0391807671892427 0.0241378744674421)
(-0.7746261538624342 0.05144291593128351 -0.04038929522656327)
(-0.6812526064676663 0.02785451223263669 0.04774867239191118)
(-0.7541055528846468 0.01681405389200957 -0.03985950449383567)
(-0.7262106324250261 0.01717835461054042 -0.00827957267556181)
(-0.6322660832690966 0.007493423482969996 -0.0292122603392993)
(-0.5962484915630956 -0.001402126235506625 -0.1015090666638681)
(-0.5938956357073275 -0.002243472989414423 -0.1054418615348471)
(-0.5522020220327233 -0.02223581755637087 -0.1109584914085807)
(-0.5063939646920848 -0.009700277872830029 -0.02150997562186292)
(-0.511939110439203 0.0005672832046308884 0.03271537726308613)
(-0.5511750530531228 0.001043460301342467 0.01228565469314719)
(-0.6072993734161579 0.006844011810589932 0.02780052078710095)
(-0.6838538335992188 0.007388237232258911 0.008608285449186353)
(-0.6233097684395995 0.001670478480715652 -0.03495917347325697)
(-0.658590626910134 0.01910521465377916 -0.05159769533138869)
(-0.636748026210284 0.01279465473561602 -0.007843648347557745)
(-0.606351644535075 0.002778058418307783 -0.01920327020767924)
(-0.5612652620962535 0.002839024812160191 -0.01564342062790454)
(-0.593564422202938 -0.001237338200475807 -0.0003949453552690944)
(-0.5698513748412 -0.004233446863638165 -0.008521291058918325)
(-0.6330635890241237 0.008935788323668384 -0.05458946787223078)
(-0.5996726804752907 0.005779829196067287 -0.05636559617824666)
(-0.5280444559734154 0.007706382824795001 -0.07124798745669919)
(-0.4760977793363539 -0.00662203808504319 -0.05487281715277463)
(-0.4030785597578338 -0.01935426704704882 -0.04043152284618418)
(-0.4070802526010072 -0.01157914134027548 -0.05623556429169461)
(-0.3262122786871425 -0.02016836781369717 -0.0313800678587941)
(-0.346374178125356 -0.005826565582283013 -0.001192770600297248)
(-0.4167007072578859 -0.01448661528298006 -0.01891898625732776)
(-0.3967457465102297 -0.009220446496654204 0.02063307113479217)
(-0.4383589872950307 0.01462812308650126 -0.03267015900364126)
(-0.3634926682805293 0.09206753058678935 0.06167242525287569)
(-0.3633857109385292 -0.005618064606155426 0.04495646351939361)
(-0.3294218737413287 -0.02692142262749447 0.03098725857671507)
(-0.346279438914473 0.006203854336665432 -0.02641214956737375)
(-0.4863272160231954 0.004780020771371553 -0.02344256403484936)
(-0.4680775603579562 -0.006809365548052932 0.01432911989456237)
(-0.3626963079585088 -0.01836358957572417 -0.026980601759142)
(-0.3539848388942557 0.007628585493558981 -0.08531109237169367)
(-0.4205832730353616 0.002480669116944942 -0.09313998035645901)
(-0.3592304391390297 -0.006010643671979309 -0.1057030394005934)
(-0.5312663870933375 -0.003058072931955449 -0.01959452372474032)
(-0.5551430610264926 -0.01405768548625122 -0.007172297682818534)
(-0.6557414577392536 -0.01720050392613955 -0.09044892429053408)
(-0.6303325754967279 -0.002760923282153783 0.01898558425769036)
(-0.6031905014305896 0.0153043150292256 0.03016334325143854)
(-0.6547888699331526 0.02237970010701395 0.05302503136392435)
(-0.6516519029826662 0.01085425505224216 0.04435665981724303)
(-0.6452984951586441 -0.003326749198449792 0.01904928406460354)
(-0.5947558216408073 0.01332657533740832 -0.005762966110340466)
(-0.538981263843586 0.01536244491648301 -0.03932505790466402)
(-0.5140310316391481 0.002430900435785677 -0.006326764401174028)
(-0.501462601653714 -0.01757976001131599 0.008942915159124144)
(-0.508175749851046 -0.04165595638874672 -0.002532870911189327)
(-0.541562877656024 0.00904832110519652 0.05818178794289856)
(-0.7163771124489561 0.04747700061954944 0.0250915343589872)
(-0.6368136393350599 0.0488423041498603 0.1523881322423615)
(-0.774460559873595 0.03966969239191215 0.02496521650087972)
(-0.7710179851125393 0.05223646958701599 -0.04053119740415955)
(-0.6764557092801186 0.02872269711884415 0.04806294670012981)
(-0.7493549033026822 0.0174615139597875 -0.04012396724076961)
(-0.7221283620350877 0.01728579234753895 -0.009035700632156179)
(-0.6258789093895799 0.007571395036754591 -0.0283412812929041)
(-0.5881826927404622 -0.001428859909313227 -0.1020145679164487)
(-0.5859556452814716 -0.002677144020490253 -0.1067087850083793)
(-0.5447376482096401 -0.02307028224926893 -0.1120282318900451)
(-0.4990105728146462 -0.01014651867126029 -0.02306325531613547)
(-0.5057973539176659 0.0007333810115275356 0.03233373578328683)
(-0.5446237594195565 0.00116773110023294 0.01269167253004823)
(-0.5992538555276862 0.007151151335052409 0.02825663194788252)
(-0.6775729036729097 0.007784274309315228 0.00937978741962987)
(-0.618548097098899 0.001636263895377433 -0.03502468082688526)
(-0.6538308503771939 0.01976810889758692 -0.05416804354764009)
(-0.6320897037180295 0.01307622991885747 -0.00850877601715893)
(-0.6015609445957104 0.003059912123996115 -0.02021471774235609)
(-0.555189341875395 0.002680399248755443 -0.01704305124350586)
(-0.5876933725632277 -0.001412900162991899 -0.0008492999106495523)
(-0.5641295636164565 -0.004539581160638443 -0.008754138704022484)
(-0.6282165336450494 0.009099389203232052 -0.05542815028291692)
(-0.5950869470209097 0.00582879594877284 -0.05731968023402733)
(-0.5243364657729163 0.007861000826905306 -0.07313512575873725)
(-0.471252320198234 -0.006897793532552569 -0.05750031542564241)
(-0.3981349332555619 -0.01989522802884324 -0.04157433919495584)
(-0.4011177574192565 -0.01198870083535128 -0.05735524145655091)
(-0.3195180804785303 -0.02082656452203228 -0.03248503977138141)
(-0.3390694209963557 -0.006095798900202643 -0.001949567098616562)
(-0.4089547493693734 -0.01458355023311755 -0.01843671188577806)
(-0.3907184522726871 -0.009096941393594127 0.02150626984799554)
(-0.4324080253930822 0.01450245966808088 -0.03501875726027399)
(-0.2699854108446556 0.0703807633256929 -0.03089747369832726)
(-0.2353679692482943 -0.008833589223223573 0.04695105437446613)
(-0.2061907529002394 -0.05133914445455598 0.04044859386626296)
(-0.2375027918155964 -0.01097184287819189 -0.0006789142986781448)
(-0.3279470663435736 0.0309150510766463 -0.04345681026475199)
(-0.3657832437712722 -0.008631661118658259 0.003421216948590506)
(-0.248659901706735 -0.05990130832977809 -0.003228852113414695)
(-0.1881583071297684 3.875313622745281e-05 -0.04654113851776069)
(-0.2358140600774548 0.01924627712029378 -0.09429736136429424)
(-0.1886741640722005 -0.01022806622708596 -0.09463399203184747)
(-0.2540216158362143 0.001567918647041369 -0.05652203248186425)
(-0.2916065777357286 -0.01206380944693989 -0.0168193699587454)
(-0.4500695960710801 -0.008262947433526065 -0.08776825317227824)
(-0.5832103808563621 -0.02745322407752823 -0.01975489354933907)
(-0.5752502970063268 0.01782908368114784 0.00273731398649756)
(-0.5700740770740059 0.03666988669895665 0.05342169348786028)
(-0.592901311082338 0.0121586295996834 0.04340651002701097)
(-0.5915640689307499 0.004957423571320783 0.01641342236722305)
(-0.5752371222561813 0.04774263499804748 -0.03905137235013265)
(-0.5378190556191798 0.02932905000897404 -0.08979312558808097)
(-0.4544940030246535 0.0210287683502853 -0.03434901847443275)
(-0.4325842259476834 0.01161104982987082 -0.01496579238095858)
(-0.4861105329197292 -0.06594578482870433 -0.07156321956137922)
(-0.4155819074953755 0.0007918934106280221 0.04014100028457799)
(-0.5648137234113105 0.05319255473311054 0.03967363173953539)
(-0.5254174023488054 0.05958577853299114 0.1435633175259897)
(-0.6368426739610674 0.0436304270864674 0.0824884158052098)
(-0.6891533934339633 0.05090552855938704 0.004835710520392546)
(-0.5373571263600467 0.0610566486065118 0.05035969381178862)
(-0.6058539443429189 0.04646288558684437 -0.03128650122548388)
(-0.5612675169221518 0.0192409552077231 -0.02589971653135643)
(-0.4537056726130767 0.006191475420067944 0.009157622659985955)
(-0.3534855146737571 -0.004692406418116583 -0.06158605811831318)
(-0.3583656552548821 -0.01744417230193307 -0.1045352299958338)
(-0.3366252176310144 -0.05316568161502123 -0.1189358498925877)
(-0.3211557458667749 -0.02623778980783636 -0.08125481968865036)
(-0.3846001017099001 0.005348592501496974 0.008407391575570725)
(-0.4377464966348054 0.003708025029720721 0.02476650401548261)
(-0.4172236030950069 0.00695385750802023 0.04017515275095623)
(-0.5051065578614056 0.01286782546531041 0.03495269710966692)
(-0.4969882296296493 0.004401204644000958 -0.01463231037482036)
(-0.5111778366402032 0.04560475866873769 -0.1167306874890455)
(-0.5265817166857946 0.0279537962490613 -0.04784254656636534)
(-0.5045746487750806 0.01637164168595261 -0.05783988987335359)
(-0.4508199615087923 -0.005873551595689669 -0.06833598362924011)
(-0.4457046130092861 -0.01031871347855597 -0.03032265404024375)
(-0.4411584465059811 -0.01599719448826392 -0.01963715497468835)
(-0.4695525954857889 0.0137490554927283 -0.05537768805657273)
(-0.4701001415971679 0.002659571950148569 -0.07821451566895989)
(-0.4408117348816253 0.005208101151441788 -0.1098091521627857)
(-0.382223272569875 -0.01675325942930461 -0.1317007652154891)
(-0.3230721684843008 -0.03879595722368661 -0.09491432888828878)
(-0.2941494789047194 -0.02304568494760469 -0.07386021960451555)
(-0.2176485728352186 -0.04017446134684556 -0.06143381867948891)
(-0.2181639238561757 -0.01480285271417674 -0.02949260242531153)
(-0.2463898378692839 -0.01209440612317972 -0.0007459296743783997)
(-0.272551713657364 -0.001366848690420927 0.04257883591177583)
(-0.3341891862297772 0.007335735079059373 -0.08155837054631625)
(-0.2691550413998826 0.06960301411498392 -0.03483899199602811)
(-0.2321888661618083 -0.008984326331585359 0.04670181199851774)
(-0.2037924047248581 -0.05188564949394309 0.04003568420735751)
(-0.237021002480298 -0.01198693320211956 0.0004649903271150856)
(-0.3232489679691696 0.03220532452779305 -0.04468923386402224)
(-0.3637779484809819 -0.008539245424881605 0.002509648404325419)
(-0.2475724349434449 -0.06121443099199609 -0.002648861315106694)
(-0.1851950224560956 -0.000513362533851132 -0.04452750226919197)
(-0.2317212263285097 0.01969520204756639 -0.09387553319121864)
(-0.186341415336036 -0.0106501754300669 -0.0934849983159011)
(-0.245306709945503 0.001797174409861838 -0.0583087129727768)
(-0.2846587776520609 -0.01200898565184211 -0.01796205661173241)
(-0.4423264550479645 -0.007426131746275099 -0.08668160113412615)
(-0.5819856863073763 -0.02835340442547406 -0.02122251534461514)
(-0.57585041354817 0.01783826625276246 0.002131283868736831)
(-0.5666407521449043 0.03717885940550919 0.05296584645039043)
(-0.5912527035058267 0.01204609068842946 0.04304665158513594)
(-0.589461357048552 0.005063670019023883 0.01624545301326057)
(-0.5750169303820742 0.04907125964751725 -0.0398502193323394)
(-0.5384027322913152 0.02958142147985862 -0.09159640433388047)
(-0.4537429300656631 0.02156613320781157 -0.0353740255146702)
(-0.4308498100030647 0.01306389215302641 -0.01529452624681265)
(-0.4869168952967122 -0.06645598338852438 -0.07375156839781061)
(-0.4120144335879032 2.04270480933617e-05 0.03850818944465729)
(-0.55902985717586 0.05334819894255539 0.03953388676103319)
(-0.5228365100360566 0.05925603902179574 0.1412643628576126)
(-0.630934388866397 0.04329216033914266 0.08539426016503777)
(-0.6871706453664715 0.05029211622777775 0.007229357696376411)
(-0.5329426500671336 0.06201120530254103 0.05020172997603624)
(-0.6012367533139039 0.04751775277877213 -0.03041233582354317)
(-0.5553261281772884 0.01904678557025344 -0.02633722313416503)
(-0.4494749164059448 0.006089695683853437 0.0101550240990882)
(-0.347215167135855 -0.004763884921208875 -0.05894051324722733)
(-0.3515767331713056 -0.01787640322482553 -0.1036224762732258)
(-0.3308129703968777 -0.05398291247912824 -0.1178994018203971)
(-0.3159671391911997 -0.02694110095729495 -0.08365572763030189)
(-0.3818801505495003 0.005278871480157207 0.006947189251808861)
(-0.4357395115649922 0.00409035360901773 0.02563103033606899)
(-0.4111267379841558 0.006508975306032281 0.03985642232554688)
(-0.4977850159853218 0.01313651973293195 0.03498340299538791)
(-0.4947982442993852 0.004271095144961166 -0.0133307406078359)
(-0.5065207085094688 0.04644086623648584 -0.11857864374113)
(-0.5242144998652601 0.0286017401196467 -0.0491160519823978)
(-0.5024738512246519 0.01685660993754323 -0.05879701599965344)
(-0.4489109383097721 -0.006298579372197547 -0.07029937225075727)
(-0.4421427368578565 -0.01067837457986301 -0.03139124841205003)
(-0.438454223655378 -0.01649457929844437 -0.02019375189765549)
(-0.465003191710173 0.01371872590153422 -0.05487805239625648)
(-0.4659403494130656 0.002437331753088824 -0.07909932457236456)
(-0.4390236485980823 0.005149666534727456 -0.1096522112672)
(-0.3797033538182716 -0.01718457259685888 -0.1332507500276192)
(-0.321346571382954 -0.03953186911740651 -0.09684167698463501)
(-0.2920420956014082 -0.02331049913073339 -0.07399841045588165)