/*--------------------------------*- C++ -*----------------------------------*\
| =========                 |                                                 |
| \\      /  F ield         | OpenFOAM: The Open Source CFD Toolbox           |
|  \\    /   O peration     | Version:  v1812                                 |
|   \\  /    A nd           | Web:      www.OpenFOAM.com                      |
|    \\/     M anipulation  |                                                 |
\*---------------------------------------------------------------------------*/
FoamFile
{
    version     2.0;
    format      ascii;
    class       volScalarField;
    location    "20000";
    object      nut;
}
// * * * * * * * * * * * * * * * * * * * * * * * * * * * * * * * * * * * * * //

dimensions      [0 2 -1 0 0 0 0];


internalField   nonuniform List<scalar> 
3770
(
0.0001428793267679118
0.0001428793267697496
0.0001428793267689817
0.0001428793267685082
0.0001428793267685845
0.000142879326769111
0.0001428793267689195
0.0001428793267690259
0.000142879326768919
0.0001428793267690717
0.0001428793267691386
0.0001428793267691154
0.0001428793267703781
0.0001428793267680303
0.0001428793267680157
0.0001428793267695221
0.0001428793267687383
0.0001428793267695141
0.0001428793267700515
0.0001428793267684023
0.0001428793267703679
0.0001428793267691113
0.0001428793267694767
0.000142879326766825
0.000142879326766861
0.0001428793267692466
0.000142879326770218
0.0001428793267684966
0.0001428793267690949
0.0001428793267698071
0.0001428793267685211
0.0001428793267677321
0.0001428793267681332
0.0001428793267692886
0.0001428793267680146
0.0001428793267670339
0.0001428793267700997
0.00014287932676858
0.0001428793267682022
0.0001428793267695698
0.0001428793267693907
0.0001428793267677709
0.0001428793267676714
0.0001428793267700049
0.0001428793267693334
0.0001428793267682792
0.0001428793267668578
0.0001428793267691175
0.0001428793267685667
0.000142879326769185
0.0001428793267680582
0.0001428793267688785
0.0001428793267694061
0.0001428793267676217
0.0001428793267678783
0.0001428793267671311
0.0001428793267670872
0.0001428793267668953
1.229684382446331e-05
1.229684382565392e-05
1.229684382940452e-05
1.229684383068497e-05
1.229684382975118e-05
1.229684382433243e-05
1.229684382579787e-05
1.229684382448815e-05
1.22968438261958e-05
1.229684382524783e-05
1.229684382832628e-05
1.229684382587306e-05
1.229684383238763e-05
1.229684382655384e-05
1.229684382271685e-05
1.229684382350439e-05
1.229684382862033e-05
1.229684382593401e-05
1.229684382828389e-05
1.229684382496123e-05
1.229684383573669e-05
1.229684382835528e-05
1.229684383660314e-05
1.229684382515362e-05
1.229684382627635e-05
1.229684382715396e-05
1.229684382755107e-05
1.229684381694219e-05
1.229684382747796e-05
1.229684382694727e-05
1.229684382599781e-05
1.22968438286054e-05
1.229684382570582e-05
1.229684382540609e-05
1.229684383580438e-05
1.229684381908738e-05
1.229684383222382e-05
1.22968438312151e-05
1.229684382647927e-05
1.229684383157494e-05
1.229684384706525e-05
1.229684381942591e-05
1.229684383019442e-05
1.229684382757054e-05
1.229684383725612e-05
1.229684382387895e-05
1.229684382345611e-05
1.229684382245133e-05
1.229684382669103e-05
1.22968438253413e-05
1.22968438268019e-05
1.229684383359767e-05
1.229684383254696e-05
1.229684382251806e-05
1.229684383162835e-05
1.22968438240997e-05
1.229684384047724e-05
1.229684382521871e-05
7.451742281064398e-06
7.451742281651463e-06
7.451742309080752e-06
7.451742300078465e-06
7.451742309914045e-06
7.451742299825607e-06
7.451742309883258e-06
7.451742300480916e-06
7.451742312949171e-06
7.451742302432876e-06
7.451742317407197e-06
7.451742293424047e-06
7.451742309819678e-06
7.451742304252585e-06
7.451742288408978e-06
7.451742281322944e-06
7.451742320969684e-06
7.45174228148544e-06
7.451742302010522e-06
7.451742301589553e-06
7.45174232439773e-06
7.451742274475753e-06
7.451742322310468e-06
7.451742280911339e-06
7.451742293361949e-06
7.45174230699417e-06
7.451742314203656e-06
7.451742258029236e-06
7.451742315572864e-06
7.451742296124828e-06
7.451742296529581e-06
7.451742307037381e-06
7.451742286304407e-06
7.451742284541648e-06
7.451742335082884e-06
7.45174225606495e-06
7.451742302308376e-06
7.451742322028601e-06
7.451742288994641e-06
7.451742296510457e-06
7.451742368451659e-06
7.451742257483696e-06
7.451742319830688e-06
7.451742293959187e-06
7.451742328222029e-06
7.451742288220604e-06
7.451742283385521e-06
7.451742283928516e-06
7.451742314705082e-06
7.451742291798517e-06
7.451742297054615e-06
7.45174233781918e-06
7.451742314470911e-06
7.451742273859791e-06
7.451742344533261e-06
7.451742272385177e-06
7.451742328773661e-06
7.451742294602149e-06
1.722080617739264e-05
1.722080622860737e-05
1.722080645095651e-05
1.722080641704784e-05
1.722080645519966e-05
1.7220806426328e-05
1.72208064585094e-05
1.722080643574993e-05
1.722080648071116e-05
1.722080645801174e-05
1.722080654050967e-05
1.722080619009666e-05
1.72208063088827e-05
1.722080650931587e-05
1.722080621982431e-05
1.72208062655154e-05
1.722080654598973e-05
1.722080619510911e-05
1.72208062985938e-05
1.722080649028708e-05
1.722080635564564e-05
1.72208061833088e-05
1.722080654591589e-05
1.722080620469073e-05
1.722080629620004e-05
1.722080649238234e-05
1.722080631546624e-05
1.722080619543934e-05
1.722080651511349e-05
1.722080628055975e-05
1.722080623288054e-05
1.722080651520742e-05
1.722080620579899e-05
1.722080627900558e-05
1.722080654634902e-05
1.72208061778215e-05
1.722080629708824e-05
1.722080650258927e-05
1.7220806339743e-05
1.722080623511135e-05
1.722080663811713e-05
1.722080622065012e-05
1.722080653056918e-05
1.722080633710098e-05
1.722080634495628e-05
1.722080655692458e-05
1.722080622932562e-05
1.722080632501501e-05
1.722080654709766e-05
1.722080632924408e-05
1.72208062787852e-05
1.722080656213757e-05
1.722080636192214e-05
1.722080626828188e-05
1.722080660312511e-05
1.722080623949972e-05
1.722080635110641e-05
1.722080653325321e-05
3.582435679468297e-05
3.58243565577329e-05
3.582435726605854e-05
3.582435713885512e-05
3.582435725624041e-05
3.582435718724707e-05
3.582435726107186e-05
3.582435719403212e-05
3.582435732776337e-05
3.582435724073613e-05
3.582435737736086e-05
3.582435686377874e-05
3.582435674687779e-05
3.582435732660752e-05
3.582435692048127e-05
3.582435665063652e-05
3.5824357391675e-05
3.582435684099478e-05
3.58243567543916e-05
3.582435733351837e-05
3.582435691032507e-05
3.582435666106334e-05
3.582435738798789e-05
3.582435686364767e-05
3.582435675786422e-05
3.582435740308582e-05
3.58243566840673e-05
3.582435684661894e-05
3.582435744876283e-05
3.58243566223135e-05
3.582435687848855e-05
3.582435734132705e-05
3.582435683471354e-05
3.582435671602169e-05
3.582435739086698e-05
3.582435685832691e-05
3.582435673268028e-05
3.582435736552409e-05
3.582435690903954e-05
3.582435676384916e-05
3.582435759669787e-05
3.582435679728906e-05
3.58243574415445e-05
3.582435700117501e-05
3.582435681995237e-05
3.58243575246674e-05
3.582435675819621e-05
3.58243569953452e-05
3.582435755242307e-05
3.582435677725929e-05
3.582435702939516e-05
3.582435757882973e-05
3.582435682240627e-05
3.582435701981553e-05
3.58243575388464e-05
3.582435696512169e-05
3.582435688709122e-05
3.582435743449905e-05
6.647597291066383e-05
6.647597251397236e-05
6.647597363149017e-05
6.647597324760392e-05
6.647597351449196e-05
6.647597342083567e-05
6.647597351994741e-05
6.647597333467301e-05
6.647597368231491e-05
6.64759734185026e-05
6.647597365330021e-05
6.647597308118346e-05
6.647597282062967e-05
6.647597361950498e-05
6.647597311134044e-05
6.647597266684765e-05
6.64759738165231e-05
6.647597264796383e-05
6.647597301120582e-05
6.647597369456602e-05
6.6475972746401e-05
6.647597290375421e-05
6.647597380080661e-05
6.64759726823339e-05
6.64759730098987e-05
6.647597374937797e-05
6.647597271920515e-05
6.647597297938676e-05
6.647597381699196e-05
6.647597263678976e-05
6.647597302838358e-05
6.647597372820427e-05
6.647597270957555e-05
6.647597294255565e-05
6.647597372827836e-05
6.647597302014914e-05
6.647597279573716e-05
6.64759737648123e-05
6.647597275809849e-05
6.64759730478049e-05
6.647597397293476e-05
6.647597296839729e-05
6.64759738166551e-05
6.647597318622233e-05
6.647597292515817e-05
6.647597395365242e-05
6.647597288445724e-05
6.647597321950739e-05
6.647597401878454e-05
6.647597292582907e-05
6.647597329706822e-05
6.647597407632403e-05
6.64759729901502e-05
6.647597331866558e-05
6.647597408100301e-05
6.647597298262226e-05
6.647597327047101e-05
6.647597390513974e-05
0.000124906762849343
0.0001249067627495796
0.0001249067637196267
0.0001249067631513129
0.0001249067631501932
0.0001249067636464287
0.0001249067633065888
0.0001249067630797182
0.0001249067637118796
0.0001249067633415664
0.0001249067632340996
0.0001249067633353965
0.0001249067628071153
0.0001249067636239924
0.0001249067629269863
0.000124906762734127
0.0001249067637236131
0.0001249067625775005
0.0001249067629634265
0.0001249067636577129
0.0001249067626100094
0.0001249067629132512
0.0001249067637014833
0.0001249067625840713
0.0001249067629557208
0.0001249067636778031
0.0001249067626097567
0.0001249067629258286
0.0001249067636946234
0.0001249067625634029
0.0001249067629379978
0.0001249067636507524
0.0001249067625751866
0.0001249067629067726
0.00012490676362834
0.0001249067628474692
0.0001249067627727545
0.0001249067636866097
0.0001249067626279231
0.0001249067630079598
0.0001249067638514138
0.0001249067630661837
0.0001249067637265348
0.0001249067630029975
0.0001249067629110353
0.0001249067638615541
0.0001249067628070939
0.0001249067631651851
0.000124906763933852
0.0001249067628624437
0.000124906763236511
0.0001249067639876886
0.0001249067629024455
0.0001249067632446169
0.0001249067639708386
0.0001249067628444511
0.0001249067631608436
0.0001249067637572029
0.0002228521806568429
0.0002228521807081581
0.000222852181381285
0.0002228521808419716
0.0002228521808534242
0.0002228521813508118
0.000222852180920759
0.0002228521808129469
0.0002228521813796739
0.0002228521808920935
0.0002228521806953975
0.0002228521810802071
0.0002228521806388457
0.0002228521812100869
0.0002228521805861758
0.0002228521805509363
0.0002228521812412622
0.0002228521803753826
0.000222852180665929
0.000222852181195131
0.0002228521803741299
0.0002228521806280817
0.0002228521812001161
0.0002228521803487245
0.0002228521806355016
0.0002228521811780406
0.0002228521803471125
0.0002228521806011471
0.0002228521811667404
0.0002228521803181863
0.0002228521805986529
0.0002228521811458078
0.000222852180317628
0.0002228521805877851
0.0002228521811314103
0.0002228521804767774
0.0002228521805153328
0.0002228521811846184
0.0002228521803745623
0.0002228521806627166
0.0002228521812359266
0.0002228521810023318
0.000222852181218724
0.0002228521806367559
0.0002228521806531397
0.000222852181346713
0.0002228521805716238
0.0002228521808572216
0.0002228521814437648
0.0002228521806427678
0.0002228521809301882
0.0002228521814974737
0.0002228521806780984
0.0002228521809407014
0.0002228521814774331
0.0002228521806241523
0.0002228521808576163
0.000222852181286051
0.0003633314727369322
0.0003633314728470312
0.0003633314732219146
0.0003633314728584056
0.0003633314728960372
0.0003633314731966034
0.0003633314728691034
0.0003633314728398809
0.000363331473188559
0.0003633314727564716
0.0003633314726851556
0.0003633314729117287
0.0003633314728136307
0.0003633314730028877
0.00036333147257295
0.0003633314725998781
0.0003633314729837342
0.000363331472476796
0.0003633314726257758
0.0003633314729442952
0.0003633314724455036
0.0003633314725819019
0.0003633314729200558
0.0003633314724061259
0.0003633314725671879
0.000363331472888932
0.0003633314723807384
0.0003633314725221685
0.0003633314728582719
0.0003633314723555779
0.0003633314725119881
0.0003633314728474918
0.000363331472353486
0.0003633314725088422
0.0003633314728480433
0.00036333147241701
0.0003633314724913565
0.0003633314728877529
0.0003633314724091282
0.0003633314725709201
0.0003633314729377706
0.0003633314728440189
0.0003633314728969875
0.0003633314725855749
0.0003633314726194083
0.0003633314730277978
0.0003633314726282993
0.0003633314727856047
0.0003633314731650832
0.0003633314727035865
0.0003633314728702008
0.0003633314732182896
0.0003633314727558713
0.0003633314728987462
0.0003633314732111323
0.000363331472734869
0.0003633314728804705
0.0003633314730571187
0.0005452587217239288
0.0005452587218182705
0.0005452587219801261
0.0005452587218332408
0.0005452587218640098
0.0005452587219485209
0.0005452587217830979
0.0005452587217652838
0.0005452587218992197
0.000545258721681276
0.0005452587216911457
0.0005452587217193579
0.0005452587217077373
0.0005452587217405165
0.0005452587215185046
0.0005452587215456599
0.0005452587216941088
0.0005452587214790505
0.0005452587215180255
0.0005452587216529105
0.0005452587214281859
0.0005452587214592857
0.0005452587216062315
0.0005452587213660586
0.0005452587214346961
0.0005452587215612684
0.0005452587213314393
0.0005452587213719082
0.0005452587215162463
0.0005452587212933016
0.0005452587213554312
0.0005452587215052358
0.0005452587212903356
0.0005452587213499533
0.0005452587215200834
0.0005452587213087266
0.0005452587213599827
0.0005452587215459806
0.0005452587213336816
0.0005452587213986673
0.0005452587216100574
0.0005452587215159411
0.000545258721488665
0.0005452587214956269
0.0005452587214762743
0.0005452587216453007
0.0005452587216098568
0.000545258721617059
0.000545258721839442
0.0005452587216536523
0.0005452587217264826
0.000545258721887544
0.0005452587217513514
0.0005452587217872201
0.0005452587219103035
0.0005452587217642677
0.0005452587218079243
0.0005452587217585326
0.0007684201228741673
0.0007684201230071038
0.0007684201229714142
0.0007684201230011504
0.0007684201230181698
0.0007684201229317745
0.0007684201229062984
0.0007684201228620421
0.000768420122887747
0.0007684201227751978
0.0007684201227887739
0.0007684201227481608
0.0007684201227601549
0.000768420122733053
0.0007684201226695687
0.0007684201226664161
0.0007684201226884732
0.0007684201226037159
0.0007684201226184059
0.0007684201226255476
0.0007684201225628975
0.0007684201225330144
0.0007684201225736694
0.0007684201224743901
0.0007684201225188907
0.0007684201225026635
0.0007684201224536107
0.000768420122426967
0.0007684201224487053
0.0007684201223803747
0.00076842012240486
0.0007684201224259614
0.0007684201223740208
0.0007684201223833118
0.00076842012246344
0.0007684201223928126
0.0007684201223927257
0.0007684201224719524
0.0007684201224094999
0.0007684201224034889
0.0007684201225128698
0.0007684201224822981
0.0007684201224377363
0.0007684201225163711
0.0007684201225139997
0.0007684201225416592
0.0007684201226742663
0.0007684201227310442
0.0007684201227808661
0.0007684201227124431
0.0007684201227694358
0.0007684201228248126
0.0007684201228613033
0.0007684201228726177
0.0007684201229093609
0.0007684201228739965
0.0007684201228715733
0.0007684201227907597
0.00103757171366957
0.001037571713818803
0.001037571713685689
0.001037571713782804
0.001037571713836249
0.001037571713633415
0.001037571713649903
0.001037571713579583
0.001037571713601863
0.001037571713517569
0.001037571713536373
0.00103757171346419
0.001037571713485951
0.001037571713439128
0.001037571713445499
0.001037571713410031
0.001037571713423156
0.001037571713359131
0.00103757171336549
0.001037571713313995
0.001037571713297352
0.001037571713213152
0.001037571713326028
0.001037571713183968
0.001037571713269446
0.001037571713136516
0.001037571713226241
0.001037571713104958
0.001037571713117148
0.001037571713078412
0.001037571713088005
0.001037571713061467
0.001037571713057214
0.001037571713007262
0.001037571713153631
0.00103757171310217
0.00103757171302615
0.001037571713126158
0.001037571713111977
0.001037571713003896
0.001037571713144442
0.001037571713152869
0.001037571713055919
0.001037571713169765
0.00103757171322537
0.00103757171310476
0.001037571713431059
0.00103757171340402
0.001037571713455161
0.001037571713365637
0.001037571713433553
0.001037571713445154
0.001037571713580219
0.001037571713535819
0.001037571713611627
0.001037571713650027
0.001037571713642773
0.001037571713523361
0.001363083167676318
0.001363083167849239
0.001363083167693296
0.001363083167770161
0.00136308316785772
0.001363083167627466
0.001363083167659104
0.001363083167575865
0.001363083167608268
0.001363083167538252
0.001363083167567337
0.001363083167472105
0.001363083167498155
0.001363083167452747
0.001363083167486857
0.001363083167444137
0.001363083167465909
0.00136308316739809
0.001363083167395772
0.00136308316729913
0.001363083167297404
0.001363083167201137
0.00136308316733726
0.001363083167180111
0.001363083167249117
0.001363083167097253
0.001363083167205375
0.001363083167059246
0.001363083167071952
0.001363083167045758
0.001363083167039826
0.001363083166994992
0.001363083166994426
0.001363083166940705
0.001363083167012083
0.001363083167055245
0.001363083166937408
0.001363083167004474
0.001363083167051203
0.001363083166896735
0.001363083167012329
0.001363083167053389
0.001363083166952183
0.001363083167043019
0.001363083167137763
0.001363083166999382
0.001363083167293977
0.001363083167255798
0.001363083167239009
0.001363083167221022
0.001363083167373704
0.001363083167387003
0.001363083167443936
0.001363083167440181
0.001363083167603523
0.00136308316760122
0.001363083167650278
0.001363083167539223
0.001759601372240837
0.001759601372348894
0.001759601372252993
0.001759601372288667
0.001759601372373632
0.001759601372181279
0.001759601372223762
0.001759601372136461
0.001759601372169891
0.001759601372124871
0.001759601372180994
0.001759601372046132
0.001759601372068558
0.00175960137203123
0.001759601372091479
0.001759601372052254
0.001759601372097556
0.001759601372015781
0.001759601372026528
0.001759601371823624
0.001759601371886841
0.001759601371773122
0.001759601371862323
0.001759601371736901
0.001759601371764492
0.001759601371639854
0.001759601371648892
0.001759601371554198
0.001759601371565898
0.001759601371581047
0.001759601371536715
0.001759601371468973
0.001759601371475357
0.001759601371405308
0.001759601371447212
0.001759601371470466
0.001759601371373948
0.001759601371395801
0.001759601371454858
0.001759601371321996
0.001759601371392013
0.001759601371440025
0.001759601371374248
0.001759601371420565
0.001759601371521755
0.001759601371420223
0.001759601371564265
0.0017596013715723
0.001759601371571508
0.00175960137160579
0.001759601371735673
0.001759601371684405
0.001759601371860539
0.001759601371950787
0.001759601372015469
0.0017596013720724
0.001759601372106218
0.00175960137207264
0.002244801995168303
0.002244801995472989
0.0022448019952782
0.002244801995317124
0.002244801995391193
0.002244801995209671
0.002244801995283415
0.002244801995210639
0.002244801995209101
0.002244801995189752
0.002244801995352293
0.002244801995100913
0.002244801995134623
0.002244801995092907
0.002244801995203229
0.002244801995156883
0.002244801995279707
0.002244801995202245
0.002244801995130444
0.002244801994851371
0.002244801994901803
0.002244801994803151
0.002244801994868911
0.002244801994775619
0.002244801994797284
0.002244801994648552
0.002244801994644569
0.002244801994499428
0.002244801994544386
0.002244801994547849
0.002244801994377875
0.002244801994400751
0.002244801994452861
0.002244801994324909
0.002244801994373474
0.002244801994297532
0.002244801994241198
0.002244801994242237
0.002244801994328774
0.002244801994172733
0.002244801994216283
0.0022448019942877
0.002244801994223193
0.002244801994237045
0.0022448019943598
0.002244801994243201
0.00224480199427974
0.002244801994371857
0.00224480199435605
0.002244801994362307
0.002244801994516995
0.002244801994501187
0.002244801994556274
0.002244801994763816
0.002244801994739556
0.002244801994868156
0.002244801995078111
0.002244801995036415
0.002833991631690056
0.002833991632405062
0.002833991631813353
0.002833991632015308
0.002833991632224384
0.002833991631746243
0.002833991631955884
0.002833991632017011
0.002833991631791335
0.002833991631926134
0.002833991632237891
0.002833991631790444
0.002833991631943499
0.002833991631696302
0.002833991632015276
0.002833991631783834
0.00283399163216116
0.002833991632043016
0.002833991632047837
0.002833991631468835
0.002833991631624415
0.002833991631482504
0.002833991631574803
0.002833991631417155
0.00283399163144533
0.002833991631374662
0.002833991631522488
0.002833991630975554
0.002833991631136668
0.002833991631216582
0.002833991630784356
0.002833991630952307
0.00283399163113036
0.002833991630839496
0.002833991630889024
0.002833991630965007
0.002833991630573125
0.002833991630758859
0.002833991630988823
0.002833991630458432
0.002833991630692071
0.00283399163087049
0.00283399163050154
0.002833991630700779
0.002833991630943386
0.002833991630516111
0.002833991630667116
0.002833991630814572
0.002833991630737797
0.002833991630649434
0.002833991630976988
0.002833991630916711
0.002833991630769825
0.002833991631193058
0.002833991631017356
0.002833991631171885
0.002833991631686385
0.002833991631445697
0.003535536910115576
0.003535536911423384
0.003535536910325794
0.003535536910746716
0.003535536911089548
0.003535536910264987
0.003535536910641906
0.003535536910877812
0.003535536910265104
0.003535536910579424
0.003535536911050999
0.003535536910662149
0.003535536910760261
0.003535536910556632
0.003535536910705428
0.003535536910357881
0.003535536911098076
0.003535536910866828
0.003535536910901953
0.003535536910343487
0.003535536910436803
0.003535536910192871
0.003535536910372069
0.003535536909928517
0.00353553691011233
0.003535536909767261
0.003535536910454228
0.00353553690937842
0.003535536909763323
0.003535536909926935
0.003535536909066912
0.003535536909461789
0.003535536909925305
0.003535536909140829
0.003535536909404627
0.003535536909600935
0.003535536908792226
0.003535536909220719
0.003535536909705266
0.00353553690864918
0.003535536909140582
0.00353553690944687
0.003535536908654976
0.003535536909067828
0.003535536909446614
0.00353553690897038
0.003535536908870193
0.003535536909264645
0.003535536908913363
0.003535536909008058
0.003535536909431226
0.003535536909206456
0.00353553690894795
0.003535536909483579
0.003535536909309744
0.003535536909460527
0.003535536910114102
0.003535536909639834
0.004347919658714239
0.004347919661056999
0.004347919659449712
0.004347919660017476
0.004347919660508083
0.004347919659058165
0.004347919659827401
0.004347919660396754
0.00434791965893376
0.004347919659655839
0.004347919660539691
0.004347919659798211
0.004347919660180647
0.00434791965982716
0.004347919659270126
0.004347919659187409
0.004347919660611407
0.004347919660120806
0.0043479196604051
0.004347919659753317
0.004347919659845966
0.004347919659166001
0.004347919659785432
0.004347919658376742
0.004347919659093735
0.004347919658558726
0.004347919660058382
0.004347919657990329
0.004347919658924175
0.004347919659179331
0.004347919657700054
0.004347919658376977
0.004347919659472392
0.004347919657555063
0.004347919658389841
0.004347919658790817
0.004347919657314874
0.004347919658088081
0.004347919659099975
0.004347919657136997
0.00434791965808235
0.004347919658598635
0.00434791965709097
0.004347919657818897
0.004347919658626286
0.004347919657649695
0.004347919657814908
0.004347919658308653
0.004347919657179592
0.004347919657684323
0.0043479196584275
0.004347919657711861
0.004347919657530453
0.004347919658301954
0.004347919657769487
0.004347919657670302
0.004347919658809722
0.00434791965812563
0.005247664823570884
0.005247664826883583
0.005247664824523288
0.005247664825092212
0.005247664826208922
0.005247664823315023
0.005247664824952977
0.005247664826249078
0.00524766482320235
0.005247664824750232
0.005247664826241188
0.005247664824719015
0.005247664825494639
0.005247664825225532
0.005247664824447685
0.00524766482360452
0.005247664826211626
0.005247664825593364
0.005247664825991008
0.005247664825274813
0.005247664825341457
0.005247664823817242
0.005247664824445906
0.005247664823832804
0.005247664823981918
0.005247664823739755
0.005247664825930793
0.005247664822136137
0.005247664824025455
0.005247664824868035
0.005247664821799553
0.005247664823348284
0.00524766482526046
0.00524766482172837
0.005247664823377948
0.005247664824439657
0.005247664821374835
0.005247664823027618
0.00524766482483584
0.005247664821354407
0.005247664823039746
0.005247664824213832
0.005247664821176121
0.005247664822651904
0.005247664823968269
0.005247664822645667
0.005247664821997901
0.005247664823906639
0.005247664821065829
0.005247664822564905
0.005247664824076432
0.005247664821448525
0.005247664822719195
0.005247664823866051
0.005247664821587524
0.005247664822788376
0.005247664824530268
0.005247664821423315
0.006176939814805761
0.006176939818659978
0.006176939816521528
0.006176939814947818
0.006176939818629589
0.006176939813404616
0.006176939816365965
0.006176939818770657
0.00617693981343456
0.006176939816340985
0.006176939819094147
0.006176939814038223
0.006176939816063304
0.006176939817720069
0.006176939814868335
0.006176939815220558
0.006176939818226431
0.006176939817617507
0.006176939817502337
0.006176939817069374
0.006176939817490922
0.006176939814753197
0.006176939813893274
0.006176939816466161
0.006176939815424365
0.006176939813860307
0.006176939818401837
0.00617693981223274
0.006176939815354385
0.00617693981739275
0.006176939811768647
0.006176939814779801
0.006176939817641594
0.006176939811942126
0.006176939814714066
0.006176939816965363
0.00617693981140545
0.006176939814474695
0.006176939817262879
0.006176939811588017
0.006176939814346939
0.006176939816655732
0.006176939811599991
0.006176939814077823
0.006176939816200168
0.006176939813749268
0.006176939812726612
0.006176939816463194
0.00617693981145076
0.006176939814147635
0.006176939816583146
0.006176939812124067
0.006176939814468417
0.006176939816702259
0.006176939811907436
0.006176939814623645
0.006176939817372841
0.006176939811797115
0.007084647625761281
0.007084647629904509
0.007084647626779794
0.007084647624578314
0.007084647630453295
0.007084647622708829
0.007084647627012121
0.007084647630590527
0.00708464762316469
0.00708464762698402
0.007084647629998733
0.007084647626010013
0.007084647624835557
0.00708464762935994
0.007084647626338492
0.007084647624104145
0.007084647629576952
0.007084647629246559
0.00708464762646083
0.007084647625704799
0.007084647628829563
0.007084647625089809
0.007084647623494038
0.00708464762816619
0.007084647625973377
0.007084647623848452
0.007084647630297227
0.007084647621748229
0.007084647625985345
0.00708464762933755
0.007084647621081745
0.007084647625514654
0.007084647629430949
0.007084647621349724
0.00708464762539473
0.007084647628969119
0.007084647620776961
0.007084647625276999
0.007084647629178911
0.007084647621077632
0.007084647624897208
0.007084647628180295
0.007084647622669457
0.007084647624691551
0.007084647627950689
0.007084647624506388
0.007084647622942547
0.007084647628611285
0.007084647621352922
0.007084647625203649
0.007084647628762835
0.007084647622205856
0.007084647625713951
0.007084647629139813
0.007084647622105185
0.00708464762597548
0.00708464762985161
0.007084647621496807
0.00794324613806462
0.007943246142642052
0.007943246137953995
0.007943246135810779
0.007943246143613051
0.007943246133566534
0.007943246139031437
0.00794324614377399
0.007943246134630787
0.0079432461391384
0.007943246142961519
0.007943246138023429
0.007943246136221745
0.007943246142741297
0.00794324613891585
0.00794324613627658
0.007943246142095567
0.007943246139682768
0.007943246140302219
0.007943246136336443
0.007943246141569068
0.007943246136989306
0.007943246134817976
0.007943246141219372
0.007943246138054076
0.00794324613537997
0.00794324614360436
0.007943246132867916
0.00794324613804075
0.007943246142551104
0.00794324613241372
0.007943246137657468
0.007943246142642297
0.007943246132330115
0.007943246137520723
0.007943246142362309
0.007943246131812923
0.007943246137514985
0.007943246142565582
0.007943246132285605
0.00794324613690137
0.007943246140747113
0.007943246136271835
0.007943246134692735
0.007943246141173897
0.007943246136562481
0.007943246135036839
0.007943246142232871
0.007943246132812694
0.007943246137663527
0.007943246142305245
0.007943246134162415
0.007943246138416345
0.007943246143013328
0.007943246133813675
0.007943246138655173
0.007943246143624337
0.007943246132874558
0.008741475334017644
0.008741475339138575
0.008741475333637226
0.008741475330897858
0.00874147534039281
0.008741475328392732
0.008741475334786732
0.008741475340711225
0.0087414753298144
0.008741475335088015
0.008741475339809223
0.008741475334011768
0.008741475331643224
0.008741475340509857
0.008741475332702853
0.008741475335984836
0.008741475334877076
0.008741475337811236
0.008741475334299746
0.00874147533078122
0.008741475338043822
0.0087414753330354
0.008741475330086073
0.008741475338000584
0.008741475333991701
0.008741475330796325
0.00874147534058096
0.008741475327959568
0.008741475333905239
0.008741475339551233
0.008741475327542195
0.008741475333555713
0.008741475339556761
0.008741475327299825
0.008741475333415035
0.008741475339415052
0.008741475326921707
0.008741475333518673
0.008741475339676102
0.008741475327639059
0.00874147533278998
0.008741475337492213
0.008741475332353074
0.008741475330125885
0.008741475338931605
0.008741475330144938
0.008741475333422347
0.00874147533956404
0.008741475328097081
0.00874147533379834
0.008741475339416415
0.008741475330257266
0.008741475334803588
0.00874147534047362
0.008741475329338302
0.008741475334923759
0.008741475340867114
0.008741475328304054
0.009476501224872194
0.009476501230581153
0.009476501224494668
0.009476501221055941
0.009476501231979703
0.009476501218370841
0.009476501225457058
0.009476501232510405
0.009476501219945125
0.009476501225986872
0.009476501231657565
0.009476501225495483
0.00947650122209971
0.009476501230355804
0.009476501226501585
0.009476501227551058
0.009476501225801152
0.00947650122967207
0.009476501224065173
0.009476501220664336
0.009476501229406594
0.009476501224826239
0.009476501220420593
0.009476501229688303
0.009476501224752796
0.009476501221604334
0.009476501232391297
0.009476501218192868
0.009476501224762552
0.009476501231595611
0.009476501217382312