/*--------------------------------*- C++ -*----------------------------------*\
| =========                 |                                                 |
| \\      /  F ield         | OpenFOAM: The Open Source CFD Toolbox           |
|  \\    /   O peration     | Version:  v1812                                 |
|   \\  /    A nd           | Web:      www.OpenFOAM.com                      |
|    \\/     M anipulation  |                                                 |
\*---------------------------------------------------------------------------*/
FoamFile
{
    version     2.0;
    format      ascii;
    class       volScalarField;
    location    "20000";
    object      nuTilda;
}
// * * * * * * * * * * * * * * * * * * * * * * * * * * * * * * * * * * * * * //

dimensions      [0 2 -1 0 0 0 0];


internalField   nonuniform List<scalar> 
3770
(
0.0004780001408465665
0.0004780001408402053
0.0004780001408421369
0.0004780001408417078
0.000478000140841568
0.0004780001408421706
0.0004780001408419946
0.0004780001408420707
0.0004780001408419279
0.0004780001408416222
0.0004780001408406312
0.0004780001408415975
0.0004780001408410467
0.0004780001408414317
0.0004780001408459713
0.000478000140839947
0.0004780001408412181
0.0004780001408428908
0.0004780001408416435
0.0004780001408409984
0.0004780001408362216
0.0004780001408400416
0.0004780001408387416
0.000478000140845633
0.0004780001408438574
0.0004780001408399625
0.0004780001408388491
0.0004780001408447967
0.0004780001408420806
0.0004780001408396591
0.000478000140840863
0.0004780001408407757
0.000478000140845411
0.0004780001408391067
0.0004780001408384884
0.0004780001408459097
0.0004780001408401128
0.0004780001408407663
0.0004780001408437145
0.0004780001408375634
0.0004780001408336855
0.0004780001408462701
0.0004780001408460598
0.0004780001408379601
0.0004780001408389636
0.0004780001408419319
0.0004780001408461296
0.0004780001408405623
0.0004780001408421394
0.0004780001408418294
0.0004780001408426937
0.000478000140839553
0.0004780001408357848
0.0004780001408417194
0.0004780001408382358
0.0004780001408414911
0.0004780001408354011
0.0004780001408421024
0.0002400418477478645
0.0002400418476764031
0.0002400418477276521
0.0002400418477241869
0.0002400418477194721
0.0002400418476919665
0.0002400418476995378
0.0002400418476921581
0.0002400418477006222
0.0002400418476862633
0.0002400418477038773
0.0002400418476923569
0.0002400418477321426
0.0002400418477060982
0.0002400418477450135
0.0002400418476452408
0.0002400418477139587
0.0002400418477237598
0.0002400418477167031
0.0002400418476730385
0.0002400418476597337
0.0002400418476911773
0.0002400418477279028
0.0002400418477519108
0.0002400418477231093
0.0002400418476725367
0.0002400418476604824
0.0002400418477020077
0.0002400418477064394
0.000240041847677968
0.0002400418476703619
0.0002400418477076499
0.000240041847756803
0.0002400418476476576
0.000240041847707829
0.0002400418477234919
0.0002400418477248381
0.0002400418477224793
0.0002400418477266988
0.0002400418476740996
0.0002400418476964377
0.0002400418477524742
0.0002400418478145702
0.0002400418476461402
0.0002400418477324881
0.0002400418477012207
0.0002400418477653548
0.0002400418476660765
0.0002400418477095708
0.0002400418477185636
0.0002400418477327755
0.0002400418477279558
0.0002400418476480129
0.0002400418476909084
0.0002400418476977397
0.0002400418477067579
0.0002400418477056295
0.0002400418477355658
0.0002109108540260827
0.0002109108534816154
0.0002109108539151411
0.0002109108538504216
0.0002109108539185118
0.0002109108538465502
0.0002109108539206617
0.0002109108538475173
0.0002109108539213954
0.0002109108538472617
0.000210910853945578
0.0002109108537373726
0.0002109108539167315
0.0002109108537871558
0.0002109108540740159
0.0002109108534683297
0.0002109108539730467
0.0002109108539747152
0.0002109108539692063
0.0002109108537048212
0.0002109108535829125
0.0002109108537746428
0.0002109108539748504
0.0002109108539977509
0.0002109108537685664
0.0002109108537022972
0.0002109108536492047
0.0002109108537925511
0.0002109108539531025
0.0002109108537201602
0.0002109108536910649
0.0002109108538720081
0.0002109108540530582
0.0002109108534509985
0.0002109108539326652
0.0002109108539584065
0.0002109108538480999
0.0002109108538801632
0.000210910853851116
0.000210910853580755
0.0002109108538562855
0.000210910853982726
0.0002109108543201039
0.0002109108533804879
0.0002109108539993567
0.0002109108538031343
0.000210910854153792
0.000210910853487453
0.0002109108539757025
0.0002109108538265653
0.0002109108537644455
0.0002109108540744496
0.0002109108534991167
0.0002109108538328259
0.0002109108539333018
0.0002109108538742444
0.0002109108538594445
0.0002109108540840654
0.0002621321243384917
0.0002621321234589288
0.0002621321248157588
0.0002621321246740112
0.0002621321248242603
0.0002621321247168406
0.0002621321248361155
0.000262132124733058
0.0002621321249088622
0.0002621321248437688
0.0002621321250120331
0.0002621321243221484
0.0002621321238395851
0.0002621321248955624
0.0002621321245145673
0.0002621321235837271
0.0002621321250170304
0.0002621321244291047
0.0002621321238417277
0.0002621321251074381
0.000262132123499914
0.0002621321243412827
0.0002621321250185267
0.000262132124443872
0.0002621321237571267
0.0002621321250654843
0.0002621321236554644
0.0002621321242546273
0.0002621321252115695
0.0002621321235364038
0.0002621321242869878
0.0002621321248987276
0.0002621321244972916
0.0002621321236320216
0.0002621321250150607
0.0002621321243912819
0.0002621321238337671
0.0002621321251947903
0.0002621321235311351
0.0002621321243752832
0.0002621321250473464
0.0002621321246250768
0.000262132125444397
0.000262132123414489
0.0002621321246309455
0.0002621321250344321
0.0002621321249136143
0.0002621321236526958
0.0002621321253505836
0.0002621321237703629
0.0002621321245109808
0.0002621321253770093
0.0002621321237978959
0.0002621321244907252
0.0002621321251908233
0.00026213212462473
0.000262132123962172
0.0002621321250688473
0.000318869475550002
0.0003188694764561924
0.0003188694775827772
0.0003188694772519872
0.0003188694775567844
0.0003188694773894186
0.0003188694775418645
0.0003188694773797383
0.0003188694777320657
0.000318869477598338
0.000318869478068106
0.0003188694757364493
0.0003188694769604434
0.0003188694779435313
0.0003188694758624221
0.0003188694767006041
0.000318869478056339
0.0003188694758543945
0.0003188694767944775
0.0003188694779208046
0.0003188694758274296
0.0003188694767649581
0.000318869478045413
0.000318869475877391
0.0003188694767132922
0.0003188694776710163
0.0003188694770330512
0.0003188694759018614
0.0003188694777771348
0.0003188694768992373
0.0003188694760395997
0.0003188694779110942
0.0003188694759427987
0.0003188694767145946
0.0003188694781154433
0.0003188694757230556
0.0003188694769047128
0.0003188694780193692
0.0003188694758360819
0.0003188694768664498
0.000318869477910937
0.0003188694772484356
0.0003188694783027484
0.0003188694757470872
0.0003188694771481872
0.000318869477939634
0.0003188694775090936
0.0003188694760514777
0.0003188694780402441
0.0003188694772672603
0.0003188694763441798
0.0003188694780972427
0.0003188694773688517
0.000318869476387607
0.0003188694783858823
0.0003188694762563743
0.0003188694771448961
0.0003188694782731544
0.0003790786790782069
0.0003790786801240096
0.0003790786812847749
0.0003790786805727
0.0003790786811212218
0.0003790786809346769
0.0003790786810067055
0.0003790786807971779
0.0003790786813618908
0.0003790786810356739
0.0003790786814663256
0.0003790786794605085
0.0003790786806640187
0.0003790786814872638
0.0003790786794194363
0.0003790786803360712
0.0003790786813562239
0.0003790786803236974
0.0003790786797601617
0.0003790786811750009
0.0003790786804667323
0.0003790786796041309
0.0003790786813325609
0.0003790786803639521
0.0003790786797262568
0.0003790786812111762
0.0003790786807495387
0.000379078679458529
0.0003790786813089028
0.0003790786806242497
0.0003790786795721083
0.0003790786812233727
0.0003790786804752069
0.0003790786797231169
0.0003790786816865332
0.000379078679272244
0.0003790786805349025
0.0003790786812944208
0.0003790786804844105
0.0003790786797987825
0.0003790786814715852
0.0003790786808779205
0.0003790786818350619
0.0003790786794766551
0.0003790786807418532
0.000379078681545651
0.000379078681077397
0.000379078679816258
0.0003790786816499106
0.0003790786810871713
0.0003790786799893305
0.0003790786817423152
0.0003790786811974119
0.0003790786800439839
0.0003790786817950512
0.0003790786809279588
0.0003790786802775657
0.000379078682020414
0.0004579854881119042
0.0004579854889740804
0.0004579854898023588
0.0004579854886515284
0.0004579854893094486
0.0004579854897044115
0.0004579854888188062
0.0004579854891946343
0.0004579854896785556
0.0004579854894177361
0.0004579854888557178
0.000457985488998778
0.0004579854890706213
0.0004579854897284432
0.0004579854881972152
0.0004579854889096177
0.0004579854895406159
0.00045798548888177
0.0004579854884561812
0.0004579854894739263
0.0004579854889192529
0.0004579854883973455
0.0004579854895163486
0.000457985488882239
0.0004579854884385788
0.0004579854894912007
0.0004579854889789408
0.000457985488356698
0.0004579854895048996
0.000457985488929198
0.0004579854883814617
0.0004579854894631843
0.0004579854888991541
0.0004579854884539957
0.0004579854897424498
0.0004579854881085705
0.0004579854889484523
0.0004579854895095332
0.0004579854889386245
0.0004579854885073666
0.0004579854896710608
0.0004579854892957131
0.0004579854898524157
0.000457985488274265
0.0004579854891038591
0.0004579854897062077
0.0004579854892161444
0.0004579854886286126
0.0004579854897859817
0.0004579854892666793
0.0004579854887191782
0.0004579854898461072
0.0004579854893180235
0.000457985488732146
0.0004579854898296274
0.0004579854892166476
0.0004579854887570779
0.0004579854899147067
0.0005556359022665867
0.0005556359028315494
0.0005556359032961908
0.0005556359024840985
0.0005556359029387532
0.0005556359032615123
0.0005556359025461956
0.0005556359028826598
0.0005556359032686207
0.0005556359026037275
0.0005556359026738335
0.0005556359028680932
0.0005556359027904846
0.0005556359031512093
0.00055563590220902
0.0005556359026608905
0.0005556359030141097
0.0005556359026117261
0.0005556359023830167
0.0005556359029764864
0.0005556359026106174
0.0005556359023473225
0.000555635902976924
0.0005556359025836448
0.0005556359023539163
0.0005556359029598828
0.0005556359025971086
0.0005556359023117294
0.0005556359029481863
0.0005556359025717148
0.0005556359023126333
0.0005556359029306614
0.0005556359025664844
0.0005556359023523519
0.0005556359030838707
0.0005556359021168433
0.0005556359026270194
0.0005556359029682117
0.0005556359026079919
0.0005556359023900051
0.0005556359030678368
0.0005556359029629998
0.0005556359031571676
0.0005556359022568749
0.0005556359027485589
0.0005556359031150489
0.0005556359027988746
0.0005556359025415967
0.0005556359031984227
0.0005556359028563989
0.0005556359026066553
0.0005556359032449111
0.0005556359028935688
0.0005556359026165642
0.0005556359032264634
0.0005556359028455734
0.0005556359026073376
0.0005556359032345242
0.000671169558767287
0.00067116955909881
0.0006711695593310729
0.0006711695588792038
0.0006711695591376741
0.0006711695593069978
0.000671169558882055
0.0006711695590810511
0.0006711695592930528
0.0006711695588151286
0.0006711695589438508
0.0006711695590480462
0.0006711695590405383
0.0006711695591634421
0.0006711695586444804
0.0006711695588954331
0.0006711695590726213
0.0006711695588519509
0.0006711695587337522
0.0006711695590413234
0.0006711695588300444
0.0006711695586973239
0.0006711695590196322
0.0006711695587971121
0.0006711695586882629
0.0006711695589962045
0.0006711695587814308
0.0006711695586491408
0.0006711695589729232
0.0006711695587602964
0.0006711695586423616
0.0006711695589644524
0.0006711695587589932
0.0006711695586618834
0.0006711695590425647
0.0006711695585335478
0.000671169558809238
0.0006711695589981452
0.0006711695587958675
0.0006711695586984938
0.0006711695590710152
0.0006711695590246219
0.0006711695590723452
0.0006711695586630703
0.000671169558909112
0.0006711695591116124
0.0006711695589745739
0.0006711695588571643
0.0006711695592130957
0.0006711695590264
0.0006711695589195775
0.0006711695592556855
0.000671169559073503
0.0006711695589425321
0.0006711695592497744
0.0006711695590472304
0.0006711695589927963
0.0006711695592035371
0.000809029177171489
0.0008090291772956195
0.0008090291774091594
0.0008090291772321092
0.000809029177346145
0.0008090291773817481
0.000809029177191619
0.0008090291772637297
0.0008090291773374169
0.0008090291771495489
0.0008090291771907447
0.0008090291772037281
0.0008090291772108963
0.000809029177231038
0.0008090291769945015
0.0008090291771036742
0.0008090291771721331
0.0008090291770671733
0.0008090291770133845
0.0008090291771371979
0.0008090291770330869
0.0008090291769649017
0.0008090291771020103
0.000809029176988065
0.0008090291769508443
0.0008090291770656271
0.0008090291769639954
0.0008090291769011747
0.0008090291770339188
0.0008090291769323036
0.0008090291768899509
0.0008090291770250292
0.0008090291769284877
0.0008090291768941476
0.0008090291770647795
0.0008090291768461588
0.0008090291769629034
0.0008090291770569258
0.0008090291769593925
0.0008090291769263046
0.0008090291771113918
0.0008090291770786208
0.0008090291770095164
0.0008090291769991866
0.0008090291770507934
0.0008090291771448073
0.0008090291771591931
0.0008090291771007812
0.0008090291772769568
0.0008090291771926108
0.0008090291771650037
0.0008090291773187753
0.0008090291772694754
0.0008090291772109318
0.0008090291773374692
0.0008090291772612174
0.0008090291772691593
0.0008090291772060119
0.0009785140833895563
0.0009785140835120855
0.0009785140834772182
0.0009785140834788358
0.0009785140835191263
0.0009785140834408432
0.0009785140834116415
0.000978514083389684
0.000978514083405563
0.0009785140833171756
0.0009785140833332377
0.0009785140833040603
0.0009785140833144181
0.0009785140832918766
0.0009785140832329724
0.0009785140832441019
0.0009785140832565221
0.0009785140831991481
0.0009785140831965484
0.000978514083203285
0.0009785140831582624
0.0009785140831228807
0.0009785140831722904
0.0009785140830999731
0.0009785140831159449
0.0009785140831065507
0.000978514083086651
0.0009785140830464863
0.0009785140830677534
0.0009785140830240763
0.0009785140830305063
0.0009785140830480686
0.0009785140830140182
0.0009785140830154866
0.0009785140830867174
0.0009785140830176362
0.0009785140830302196
0.000978514083084958
0.0009785140830440161
0.0009785140830310417
0.0009785140831140753
0.0009785140831034551
0.0009785140830606584
0.0009785140831088974
0.0009785140831282614
0.0009785140831434487
0.0009785140832674645
0.0009785140832760677
0.0009785140833225023
0.0009785140832723907
0.0009785140833021247
0.0009785140833630851
0.0009785140833929692
0.0009785140833839315
0.0009785140834221318
0.0009785140834074476
0.0009785140833989915
0.0009785140833280844
0.001193794784956296
0.001193794785131974
0.001193794785002491
0.001193794785051121
0.001193794785136379
0.0011937947849511
0.001193794784963166
0.001193794784906902
0.001193794784925448
0.001193794784857112
0.001193794784874253
0.001193794784815911
0.001193794784834182
0.001193794784795531
0.001193794784800081
0.001193794784773287
0.001193794784783741
0.001193794784731677
0.001193794784734075
0.001193794784687968
0.001193794784667225
0.001193794784593683
0.001193794784727153
0.001193794784591647
0.001193794784638428
0.001193794784534286
0.001193794784640959
0.001193794784517188
0.001193794784527654
0.001193794784497303
0.001193794784503113
0.001193794784480614
0.00119379478447431
0.001193794784432135
0.001193794784576073
0.001193794784504828
0.001193794784451193
0.00119379478454041
0.00119379478451504
0.001193794784440149
0.001193794784530081
0.001193794784574881
0.001193794784483034
0.001193794784546696
0.001193794784634123
0.001193794784521051
0.001193794784810589
0.001193794784734994
0.001193794784810971
0.001193794784723276
0.001193794784786024
0.001193794784807299
0.001193794784890351
0.001193794784865932
0.001193794784925225
0.001193794784981024
0.001193794784980472
0.001193794784867234
0.001472456411537743
0.00147245641172482
0.001472456411574897
0.001472456411619883
0.001472456411728381
0.001472456411511338
0.001472456411538883
0.001472456411466361
0.001472456411495382
0.001472456411434936
0.001472456411461441
0.001472456411377249
0.001472456411400965
0.001472456411361317
0.001472456411392221
0.001472456411355039
0.00147245641137415
0.0014724564113138
0.001472456411311177
0.001472456411220191
0.001472456411217241
0.001472456411129222
0.001472456411278542
0.001472456411124848
0.001472456411167964
0.001472456411040598
0.001472456411157641
0.001472456411011923
0.001472456411023052
0.001472456411001805
0.001472456410994614
0.001472456410954041
0.001472456410952705
0.00147245641090887
0.001472456410965483
0.001472456411018783
0.001472456410907255
0.00147245641094904
0.001472456411015558
0.001472456410872959
0.001472456410955121
0.001472456411020619
0.001472456410921704
0.001472456410979451
0.001472456411095792
0.001472456410963319
0.001472456411224597
0.001472456411163057
0.001472456411158396
0.001472456411141468
0.001472456411301236
0.001472456411311868
0.001472456411344038
0.001472456411344552
0.001472456411509218
0.001472456411478493
0.001472456411547883
0.001472456411438922
0.001832812373758937
0.001832812373864131
0.001832812373772815
0.001832812373798974
0.001832812373889254
0.001832812373704343
0.001832812373744275
0.00183281237366427
0.001832812373695625
0.001832812373654534
0.001832812373706937
0.001832812373580406
0.001832812373602999
0.001832812373568408
0.001832812373625726
0.001832812373589088
0.001832812373631069
0.001832812373554161
0.001832812373565971
0.001832812373368579
0.001832812373436665
0.001832812373324466
0.00183281237341754
0.001832812373295354
0.001832812373314977
0.00183281237320359
0.001832812373212934
0.001832812373122549
0.001832812373133792
0.001832812373152739
0.001832812373108301
0.001832812373042962
0.001832812373049409
0.001832812372985458
0.001832812373022401
0.001832812373047697
0.00183281237295608
0.001832812372969789
0.001832812373035806
0.001832812372908409
0.001832812372967356
0.001832812373022614
0.001832812372957165
0.001832812372992845
0.00183281237309872
0.00183281237299993
0.001832812373130247
0.001832812373134323
0.001832812373135719
0.001832812373161312
0.001832812373296985
0.001832812373244166
0.001832812373409946
0.001832812373493322
0.001832812373554346
0.001832812373607113
0.001832812373637497
0.001832812373604934
0.002292527492534133
0.002292527492827838
0.002292527492637356
0.002292527492677809
0.00229252749274907
0.002292527492571725
0.002292527492644461
0.00229252749257612
0.002292527492575607
0.00229252749255487
0.002292527492712224
0.002292527492467382
0.002292527492505306
0.002292527492462782
0.002292527492570856
0.002292527492524887
0.002292527492644216
0.002292527492569644
0.002292527492496381
0.002292527492225924
0.002292527492282822
0.002292527492181194
0.002292527492247833
0.002292527492156948
0.002292527492178501
0.00229252749203395
0.002292527492033757
0.002292527491888945
0.002292527491935948
0.002292527491939141
0.002292527491771651
0.002292527491797397
0.002292527491846618
0.002292527491724789
0.002292527491771486
0.002292527491696564
0.002292527491643206
0.002292527491643442
0.002292527491728518
0.002292527491576065
0.002292527491619148
0.002292527491689252
0.00229252749162525
0.002292527491638665
0.002292527491758243
0.002292527491643325
0.002292527491680096
0.002292527491767416
0.002292527491754402
0.002292527491757108
0.002292527491908716
0.002292527491894636
0.002292527491945688
0.002292527492146982
0.002292527492119927
0.002292527492245848
0.002292527492447268
0.002292527492406417
0.002864866249581148
0.002864866250283943
0.002864866249693192
0.00286486624990351
0.002864866250106847
0.002864866249628739
0.002864866249843803
0.002864866249902452
0.002864866249678532
0.002864866249816264
0.002864866250119499
0.00286486624967309
0.002864866249834743
0.002864866249584845
0.002864866249903453
0.002864866249669421
0.002864866250043824
0.00286486624992768
0.002864866249932259
0.002864866249358274
0.002864866249522171
0.002864866249376151
0.002864866249468602
0.002864866249313442
0.002864866249341908
0.002864866249272552
0.002864866249420915
0.002864866248873669
0.002864866249042796
0.00286486624911869
0.002864866248688676
0.002864866248861448
0.002864866249033519
0.00286486624874842
0.00286486624879965
0.002864866248873189
0.002864866248480597
0.002864866248673137
0.00286486624889739
0.002864866248367752
0.002864866248607908
0.002864866248781175
0.002864866248410487
0.002864866248616144
0.002864866248851401
0.00286486624842566
0.002864866248581289
0.002864866248723254
0.002864866248650256
0.002864866248558766
0.002864866248883101
0.002864866248826241
0.002864866248677713
0.002864866249095428
0.002864866248917728
0.002864866249073536
0.002864866249579474
0.002864866249335036
0.003555683528369407
0.003555683529664964
0.003555683528569087
0.003555683528997894
0.003555683529335429
0.00355568352850886
0.003555683528893358
0.003555683529124789
0.003555683528513394
0.003555683528831383
0.003555683529294318
0.003555683528909121
0.003555683529007791
0.003555683528808691
0.003555683528954897
0.003555683528604693
0.003555683529341482
0.003555683529112214
0.003555683529144598
0.003555683528596842
0.003555683528688496
0.003555683528445929
0.003555683528624204
0.003555683528182846
0.003555683528368426
0.003555683528021065
0.003555683528708004
0.003555683527631414
0.003555683528024639
0.003555683528184493
0.003555683527325628
0.003555683527726589
0.003555683528183162
0.003555683527401691
0.00355568352766936
0.003555683527862743
0.003555683527053937
0.003555683527488747
0.003555683527966829
0.003555683526911773
0.003555683527409458
0.003555683527710743
0.003555683526918099
0.003555683527336624
0.003555683527705978
0.003555683527239932
0.003555683527135031
0.003555683527527909
0.003555683527180561
0.003555683527276795
0.003555683527692534
0.003555683527472547
0.003555683527210498
0.003555683527743821
0.003555683527572394
0.003555683527724219
0.003555683528369486
0.00355568352789244
0.004361345334794544
0.004361345337123984
0.004361345335521595
0.004361345336093923
0.004361345336580109
0.004361345335128268
0.004361345335904605
0.004361345336468939
0.004361345335006336
0.004361345335733743
0.00436134533660848
0.00436134533587098
0.004361345336252622
0.004361345335903876
0.004361345335344456
0.00436134533526047
0.004361345336680165
0.004361345336192612
0.00436134533647493
0.00436134533582719
0.004361345335918879
0.004361345335243395
0.004361345335860058
0.00436134533445262
0.004361345335177028
0.004361345334637294
0.004361345336133917
0.00436134533406533
0.004361345335006261
0.004361345335258323
0.004361345333779549
0.004361345334463715
0.004361345335551495
0.004361345333633671
0.00436134533447566
0.004361345334872643
0.004361345333397024
0.004361345334176432
0.004361345335181044
0.004361345333218773
0.004361345334170422
0.004361345334681965
0.004361345333174458
0.004361345333907875
0.004361345334707121
0.004361345333734884
0.004361345333902506
0.004361345334392163
0.004361345333265616
0.004361345333774006
0.00436134533450928
0.004361345333797968
0.00436134533361473
0.004361345334383492
0.004361345333857037
0.004361345333754637
0.004361345334889439
0.004361345334205726
0.005256917951672463
0.00525691795497024
0.005256917952615787
0.005256917953188132
0.005256917954299821
0.005256917951404795
0.005256917953050329
0.005256917954339602
0.005256917951293406
0.005256917952847926
0.00525691795432907
0.005256917952810743
0.00525691795358576
0.00525691795331584
0.005256917952547594
0.005256917951697279
0.005256917954299999
0.00525691795368421
0.005256917954079828
0.005256917953365568
0.005256917953431486
0.005256917951913576
0.005256917952536939
0.005256917951931105
0.005256917952080028
0.005256917951840527
0.005256917954023398
0.005256917950228129
0.005256917952125265
0.005256917952962852
0.005256917949895037
0.005256917951451827
0.005256917953355428
0.005256917949822042
0.005256917951480758
0.005256917952536358
0.005256917949472021
0.005256917951132171
0.005256917952932143
0.005256917949449607
0.005256917951143976
0.005256917952311282
0.005256917949274018
0.00525691795075624
0.005256917952062267
0.005256917950749594
0.005256917950096862
0.005256917952004537
0.005256917949165424
0.005256917950670232
0.005256917952173631
0.005256917949547711
0.00525691795082328
0.005256917951963375
0.005256917949687441
0.005256917950892871
0.005256917952626836
0.005256917949518235
0.006183631855544992
0.00618363185938524
0.006183631857255148
0.00618363185567784
0.006183631859358402
0.006183631854133113
0.006183631857102278
0.006183631859499029
0.006183631854163723
0.006183631857077036
0.006183631859820765
0.00618363185476652
0.006183631856798414
0.00618363185844859
0.006183631855601963
0.006183631855957144
0.006183631858954047
0.006183631858346826
0.006183631858229693
0.006183631857796538
0.00618363185821609
0.006183631855493945
0.00618363185462411
0.006183631857195301
0.006183631856164247
0.006183631854592937
0.006183631859131142
0.00618363185296301
0.006183631856092539
0.006183631858123688
0.006183631852500815
0.006183631855519845
0.006183631858372981
0.006183631852672539
0.006183631855453969
0.00618363185769753
0.00618363185213847
0.006183631855215356
0.006183631857995042
0.006183631852319481
0.006183631855087557
0.006183631857388025
0.006183631852333337
0.006183631854817695
0.006183631856928297
0.006183631854493213
0.006183631853460644
0.006183631857195748
0.006183631852185192
0.006183631854888303
0.00618363185731515
0.006183631852858576
0.006183631855208365
0.006183631857434158
0.006183631852641358
0.006183631855363727
0.006183631858104291
0.006183631852526904
0.007089740270291388
0.007089740274423313
0.007089740271309708
0.007089740269102124
0.007089740274975653
0.007089740267231201
0.007089740271541913
0.007089740275112309
0.007089740267687656
0.007089740271512812
0.007089740274516592
0.00708974027054097
0.007089740269358816
0.007089740273879246
0.007089740270871225
0.00708974026862903
0.007089740274098874
0.007089740273770833
0.007089740270982009
0.007089740270224301
0.007089740273348411
0.007089740269624153
0.007089740268018299
0.007089740272687245
0.007089740270506728
0.007089740268373462
0.007089740274819629
0.007089740266271514
0.007089740270516434
0.007089740273861006
0.007089740265606792
0.007089740270046778
0.007089740273954996
0.007089740265873485
0.007089740269926918
0.007089740273493396
0.007089740265302256
0.007089740269809469
0.007089740273703345
0.007089740265601933
0.007089740269429627
0.007089740272703984
0.00708974026719643
0.007089740269222626
0.007089740272471233
0.007089740269041737
0.007089740267468451
0.007089740273135387
0.007089740265878997
0.007089740269735711
0.007089740273286561
0.007089740266731787
0.007089740270245309
0.007089740273663043
0.007089740266630511
0.007089740270506716
0.00708974027437439
0.007089740266020081
0.007947299872596385
0.007947299877163548
0.007947299872489249
0.007947299870337883
0.007947299878138414
0.007947299868092138
0.007947299873563652
0.007947299878298694
0.00794729986915685
0.007947299873669473
0.007947299877482354
0.007947299872558494
0.007947299870747831
0.007947299877263784
0.007947299873448655
0.007947299870803601
0.007947299876620528
0.007947299874209557
0.007947299874830343
0.007947299870860201
0.00794729987609138
0.007947299871525624
0.007947299869344983
0.007947299875743023
0.007947299872589197
0.007947299869907486
0.00794729987812952
0.007947299867393861
0.007947299872573836
0.007947299877076937
0.007947299866941471
0.007947299872191208
0.007947299877168764
0.007947299866856711
0.007947299872054571
0.007947299876888775
0.007947299866340444
0.007947299872048912
0.007947299877092202
0.007947299866812186
0.007947299871434946
0.007947299875270746
0.007947299870807346
0.007947299869221019
0.0079472998756974
0.007947299871097749
0.007947299869565253
0.007947299876758875
0.007947299867340558
0.007947299872196868
0.007947299876830939
0.007947299868690276
0.007947299872948984
0.007947299877538413
0.007947299868340797
0.007947299873187737
0.007947299878149275
0.007947299867400455
0.008744823813410831
0.008744823818522816
0.008744823813033382
0.008744823810287303
0.008744823819780439
0.008744823807780751
0.008744823814180538
0.008744823820098224
0.008744823809202575
0.008744823814480647
0.008744823819192718
0.008744823813408161
0.008744823811031928
0.008744823819896679
0.008744823812089264
0.008744823815376572
0.008744823814263723
0.008744823817197036
0.008744823813695296
0.008744823810169394
0.008744823817428932
0.008744823812432606
0.00874482380947518
0.008744823817386419
0.008744823813387734
0.008744823810185823
0.008744823819968252
0.008744823807347615
0.008744823813299607
0.008744823818939023
0.008744823806931746
0.008744823812950513
0.008744823818945091
0.008744823806688487
0.008744823812809952
0.008744823818803321
0.008744823806310999
0.008744823812913569
0.008744823819064457
0.008744823807027242
0.008744823812184487
0.008744823816877712
0.008744823811750419
0.008744823809515724
0.00874482381831914
0.008744823809535288
0.008744823812816211
0.008744823818951744
0.008744823807486419
0.008744823813192618
0.008744823818803826
0.008744823809646892
0.0087448238141972
0.00874482381986043
0.008744823808727037
0.008744823814317395
0.00874482382025398
0.008744823807692124
0.00947935111606904
0.00947935112177016
0.009479351115693826
0.009479351112249701
0.009479351123171671
0.009479351109563321
0.009479351116654593
0.009479351123701853
0.009479351111137483
0.009479351117183224
0.009479351122845796
0.00947935111669479
0.009479351113292393
0.009479351121545816
0.009479351117694481
0.009479351118743236
0.009479351116996538
0.009479351120861743
0.009479351115265159
0.00947935111185742
0.009479351120596825
0.009479351116025273
0.009479351111614017
0.009479351120879026
0.009479351115950071
0.009479351112798358
0.009479351123582872
0.009479351109385187
0.009479351115960427
0.009479351122787636