/*--------------------------------*- C++ -*----------------------------------*\
| =========                 |                                                 |
| \\      /  F ield         | OpenFOAM: The Open Source CFD Toolbox           |
|  \\    /   O peration     | Version:  v1812                                 |
|   \\  /    A nd           | Web:      www.OpenFOAM.com                      |
|    \\/     M anipulation  |                                                 |
\*---------------------------------------------------------------------------*/
FoamFile
{
    version     2.0;
    format      ascii;
    class       volScalarField;
    location    "20000";
    object      nuTilda_0;
}
// * * * * * * * * * * * * * * * * * * * * * * * * * * * * * * * * * * * * * //

dimensions      [0 2 -1 0 0 0 0];


internalField   nonuniform List<scalar> 
3770
(
0.0004780001408390237
0.0004780001408449714
0.0004780001408428317
0.0004780001408422824
0.0004780001408424702
0.0004780001408430213
0.0004780001408428003
0.0004780001408429334
0.0004780001408428313
0.0004780001408432194
0.0004780001408437971
0.0004780001408433007
0.0004780001408455711
0.0004780001408416537
0.000478000140839472
0.0004780001408447323
0.0004780001408428813
0.00047800014084332
0.0004780001408447677
0.0004780001408424512
0.0004780001408478489
0.000478000140844034
0.0004780001408452333
0.0004780001408377389
0.0004780001408386404
0.0004780001408442868
0.0004780001408463613
0.0004780001408407955
0.0004780001408430384
0.0004780001408453227
0.0004780001408427047
0.0004780001408414912
0.0004780001408399252
0.0004780001408447605
0.0004780001408430279
0.0004780001408379397
0.0004780001408455722
0.0004780001408428442
0.0004780001408408417
0.0004780001408459415
0.0004780001408475003
0.0004780001408389406
0.0004780001408388823
0.000478000140846445
0.0004780001408448998
0.0004780001408418116
0.000478000140837555
0.0004780001408437962
0.0004780001408421704
0.0004780001408433012
0.000478000140841098
0.0004780001408438961
0.0004780001408465268
0.0004780001408408669
0.0004780001408429314
0.0004780001408401951
0.0004780001408430207
0.0004780001408395294
0.0002400418470530202
0.0002400418470862922
0.0002400418470940093
0.0002400418471040083
0.0002400418470992606
0.0002400418470717613
0.0002400418470791515
0.0002400418470727619
0.0002400418470814996
0.000240041847080043
0.0002400418470949673
0.0002400418470821901
0.0002400418471128903
0.0002400418470820313
0.0002400418470420443
0.0002400418470824986
0.0002400418470934421
0.0002400418470715753
0.0002400418470901705
0.0002400418470827237
0.0002400418471612984
0.0002400418470996281
0.0002400418471432907
0.0002400418470563329
0.0002400418470741516
0.0002400418470979382
0.0002400418471048967
0.0002400418470175497
0.0002400418470882492
0.0002400418470946125
0.0002400418470907732
0.0002400418470955561
0.0002400418470584012
0.0002400418470946918
0.0002400418471448652
0.0002400418470247139
0.0002400418471143332
0.0002400418471082439
0.0002400418470742822
0.0002400418471277091
0.0002400418472260966
0.0002400418470168532
0.0002400418470688895
0.0002400418471100691
0.000240041847146158
0.0002400418470653999
0.0002400418470399677
0.0002400418470679563
0.0002400418470817521
0.0002400418470693359
0.0002400418470743599
0.00024004184712266
0.0002400418471435405
0.0002400418470596897
0.0002400418471197698
0.0002400418470649684
0.0002400418471776854
0.0002400418470625218
0.000210910849553144
0.0002109108497470217
0.0002109108498654806
0.0002109108497998009
0.0002109108498724656
0.0002109108497986657
0.0002109108498714216
0.0002109108498047405
0.0002109108499011529
0.0002109108498239191
0.0002109108499363965
0.0002109108497737835
0.0002109108498721578
0.0002109108498624851
0.0002109108496084115
0.0002109108497483995
0.0002109108499617463
0.0002109108495750114
0.0002109108497776515
0.0002109108498648905
0.0002109108501300805
0.0002109108495755896
0.000210910849974236
0.0002109108495614369
0.0002109108497623974
0.0002109108499186202
0.000210910850007475
0.0002109108494085535
0.0002109108499158566
0.0002109108498061449
0.000210910849820157
0.0002109108498604006
0.0002109108495950704
0.0002109108497858673
0.0002109108501137278
0.0002109108493320327
0.0002109108498224119
0.0002109108500041977
0.0002109108496911606
0.0002109108498580867
0.0002109108504664688
0.0002109108493375048
0.0002109108498306841
0.0002109108499023358
0.0002109108500235835
0.0002109108497001701
0.0002109108495317158
0.0002109108497672742
0.0002109108498995604
0.0002109108497270659
0.0002109108497999358
0.0002109108500914965
0.0002109108500619505
0.0002109108495494608
0.0002109108502059331
0.0002109108495207271
0.000210910850077324
0.0002109108496655085
0.0002621321168126351
0.0002621321174045706
0.0002621321181280069
0.0002621321179944301
0.0002621321181480171
0.0002621321180295477
0.0002621321181617618
0.0002621321180749297
0.0002621321182563793
0.0002621321181563286
0.0002621321185443194
0.0002621321168874579
0.0002621321177047156
0.0002621321184164682
0.0002621321169802507
0.0002621321175604831
0.0002621321185722971
0.0002621321168765201
0.0002621321176480752
0.0002621321182375371
0.0002621321180798568
0.0002621321168437684
0.0002621321185713622
0.0002621321169232866
0.0002621321176652586
0.0002621321182638838
0.000262132117806158
0.0002621321169405621
0.0002621321183352111
0.0002621321176590683
0.0002621321171323492
0.0002621321184473342
0.0002621321169102466
0.0002621321176165143
0.000262132118574951
0.0002621321167961302
0.0002621321176427391
0.0002621321182731819
0.0002621321179823553
0.0002621321171129628
0.0002621321190617987
0.0002621321169453088
0.0002621321183360803
0.0002621321180096232
0.0002621321176182861
0.0002621321186254727
0.000262132116889481
0.0002621321178590024
0.0002621321184593117
0.000262132117839989
0.00026213211730173
0.0002621321185315612
0.0002621321180076313
0.000262132117251916
0.0002621321188205786
0.0002621321170477993
0.0002621321178902851
0.000262132118484642
0.0003188694683017949
0.0003188694671694959
0.0003188694691140117
0.0003188694688130542
0.0003188694690909555
0.0003188694689231954
0.0003188694691127073
0.0003188694689495095
0.0003188694692641985
0.0003188694690235282
0.000318869469303787
0.0003188694684627319
0.0003188694676123538
0.000318869469180925
0.0003188694686049541
0.0003188694673882435
0.0003188694693560507
0.0003188694683422856
0.0003188694676997926
0.0003188694692125588
0.0003188694685841475
0.0003188694673989287
0.0003188694693478295
0.000318869468409367
0.0003188694677418867
0.0003188694695388887
0.0003188694673751443
0.0003188694683432594
0.0003188694696517139
0.0003188694672189827
0.0003188694683980595
0.0003188694692423058
0.0003188694682880928
0.0003188694676015393
0.0003188694693311549
0.0003188694684495388
0.0003188694675858268
0.0003188694692825245
0.0003188694685766015
0.0003188694677043772
0.00031886947009594
0.0003188694676727056
0.0003188694694302069
0.0003188694689179832
0.0003188694677861031
0.0003188694698444023
0.0003188694674441551
0.0003188694687841916
0.0003188694698993941
0.0003188694675986871
0.0003188694687880871
0.000318869469966254
0.0003188694677114407
0.0003188694687397594
0.0003188694697242192
0.0003188694686062264
0.0003188694680117501
0.0003188694694177708
0.0003790786714588331
0.0003790786701217082
0.0003790786722284386
0.0003790786716313957
0.0003790786720248632
0.0003790786718843857
0.0003790786720837278
0.0003790786717413562
0.0003790786723144205
0.0003790786718381831
0.0003790786722053259
0.000379078671697356
0.0003790786706102867
0.0003790786721189626
0.0003790786717834714
0.000379078670388374
0.0003790786726260676
0.0003790786703498476
0.000379078671414929
0.0003790786724182042
0.0003790786705189328
0.0003790786712303183
0.0003790786725994053
0.0003790786704128006
0.000379078671425621
0.0003790786725299256
0.0003790786703419297
0.0003790786714635099
0.0003790786726462764
0.0003790786702026023
0.0003790786715305391
0.0003790786724761892
0.0003790786704306228
0.0003790786712716612
0.0003790786722891423
0.0003790786716327689
0.0003790786706050994
0.0003790786725318536
0.0003790786705387502
0.0003790786714836805
0.0003790786729399729
0.0003790786708644354
0.000379078672432817
0.0003790786719329489
0.0003790786708197679
0.0003790786728655874
0.0003790786705903176
0.0003790786718723991
0.0003790786729735765
0.0003790786706817307
0.0003790786719812215
0.0003790786730688563
0.0003790786707854328
0.0003790786720089126
0.0003790786730583248
0.0003790786708769983
0.0003790786718034039
0.0003790786725618557
0.000457985484256113
0.0004579854836932904
0.0004579854849438656
0.0004579854845162569
0.0004579854842128271
0.000457985484865746
0.0004579854847005353
0.0004579854841470144
0.0004579854849875897
0.0004579854844848058
0.0004579854845617963
0.0004579854846664604
0.0004579854837457334
0.0004579854848170263
0.0004579854843474948
0.0004579854836968671
0.0004579854850705311
0.0004579854834464133
0.0004579854842900407
0.0004579854849903492
0.0004579854834838662
0.0004579854842326855
0.0004579854850444636
0.000457985483457241
0.0004579854842851587
0.0004579854850161943
0.0004579854834560845
0.0004579854842724524
0.0004579854850381826
0.0004579854834009838
0.0004579854842815532
0.0004579854849835751
0.000457985483434557
0.0004579854841958332
0.0004579854848179129
0.0004579854842544919
0.000457985483743983
0.0004579854850225917
0.0004579854835050922
0.0004579854843414206
0.0004579854852255179
0.0004579854840779411
0.0004579854849325322
0.00045798548443992
0.0004579854839051413
0.00045798548522645
0.000457985483678999
0.0004579854845500729
0.0004579854853113863
0.0004579854837488547
0.0004579854846284296
0.0004579854853743034
0.0004579854837925466
0.0004579854846361085
0.0004579854853535396
0.0004579854837415488
0.0004579854844838967
0.0004579854849555211
0.000555635900272968
0.0005556359000297437
0.0005556359007052113
0.0005556359004088051
0.0005556359001716577
0.0005556359006822255
0.0005556359004835742
0.0005556359001467083
0.0005556359007183199
0.000555635900411777
0.0005556359000998138
0.0005556359005256794
0.0005556358999564169
0.000555635900548338
0.0005556359002069456
0.0005556358999065554
0.0005556359006679017
0.0005556358996903106
0.0005556359002207768
0.0005556359006248271
0.0005556358996891894
0.0005556359001881238
0.0005556359006315012
0.0005556358996689473
0.0005556359001947502
0.0005556359006103523
0.000555635899659217
0.0005556359001705573
0.0005556359006011813
0.0005556358996332106
0.0005556359001665932
0.0005556359005818878
0.0005556358996353469
0.000555635900129407
0.0005556359004766398
0.0005556359001064401
0.0005556358998760013
0.0005556359006148445
0.0005556358996912507
0.0005556359002124296
0.0005556359006305957
0.0005556359003647951
0.0005556359005570072
0.0005556359002504994
0.000555635899999586
0.0005556359007580527
0.0005556358998584669
0.000555635900397966
0.0005556359008463247
0.0005556358999251746
0.0005556359004630097
0.0005556359008949805
0.0005556358999535141
0.0005556359004720834
0.0005556359008774384
0.0005556358999053677
0.0005556359003619255
0.0005556359006073805
0.0006711695577745898
0.0006711695576814626
0.0006711695580159492
0.0006711695578563331
0.000671169557719009
0.0006711695579994653
0.0006711695578686228
0.0006711695576847697
0.0006711695579988004
0.0006711695577660525
0.0006711695575767604
0.0006711695578052126
0.0006711695576789714
0.00067116955784373
0.0006711695576436924
0.0006711695574974624
0.0006711695578840207
0.0006711695573638241
0.0006711695576497327
0.0006711695578538193
0.0006711695573377343
0.0006711695576173061
0.0006711695578370419
0.0006711695573088032
0.0006711695576041374
0.0006711695578122841
0.0006711695572861166
0.0006711695575721306
0.0006711695577880423
0.000671169557267698
0.0006711695575633901
0.0006711695577797263
0.0006711695572658366
0.0006711695575449793
0.0006711695577236981
0.0006711695575149621
0.0006711695574144136
0.0006711695578092907
0.0006711695573137383
0.0006711695576017125
0.0006711695578234813
0.0006711695577313351
0.000671169557767763
0.0006711695576471312
0.0006711695575137405
0.0006711695579148397
0.000671169557478102
0.0006711695577746144
0.000671169558025393
0.0006711695575415109
0.0006711695578428264
0.000671169558065871
0.0006711695575774714
0.0006711695578644665
0.000671169558060558
0.0006711695575683694
0.0006711695578034013
0.0006711695578873963
0.000809029176741065
0.000809029176757269
0.0008090291768867179
0.0008090291768449111
0.0008090291767749977
0.0008090291768667986
0.0008090291768102424
0.0008090291767094935
0.0008090291768373337
0.0008090291766987931
0.0008090291766716471
0.0008090291767011701
0.0008090291766762131
0.0008090291767053459
0.0008090291766103921
0.0008090291765399686
0.0008090291766951703
0.0008090291764762423
0.0008090291765903594
0.0008090291766683908
0.0008090291764339315
0.0008090291765508209
0.0008090291766335555
0.000809029176385716
0.0008090291765278913
0.0008090291766025455
0.0008090291763578079
0.0008090291764834255
0.0008090291765666663
0.0008090291763323551
0.0008090291764699055
0.0008090291765590525
0.0008090291763317573
0.0008090291764573047
0.0008090291765409356
0.0008090291764438284
0.0008090291764022237
0.0008090291765882502
0.0008090291763659153
0.0008090291764983258
0.0008090291766297675
0.0008090291765205004
0.000809029176549775
0.000809029176570897
0.0008090291764887774
0.0008090291766490672
0.0008090291765805918
0.0008090291766512371
0.0008090291768084663
0.0008090291766128626
0.0008090291767515696
0.000809029176838681
0.0008090291766824839
0.0008090291767967505
0.0008090291768540941
0.0008090291767105204
0.0008090291767686268
0.0008090291767582623
0.0009785140834538222
0.0009785140835264071
0.0009785140835099817
0.0009785140835662579
0.0009785140835373537
0.0009785140834880871
0.0009785140834830573
0.0009785140834296527
0.0009785140834558182
0.0009785140833705336
0.0009785140833724368
0.0009785140833374437
0.0009785140833450752
0.0009785140833264915
0.0009785140832924337
0.0009785140832689221
0.0009785140832932462
0.0009785140832147567
0.0009785140832478346
0.0009785140832514947
0.0009785140831975348
0.0009785140831933871
0.0009785140831970521
0.0009785140831130525
0.0009785140831762328
0.0009785140831587364
0.0009785140830926549
0.0009785140831023369
0.0009785140831122955
0.0009785140830450166
0.0009785140830834409
0.0009785140830978921
0.0009785140830480701
0.0009785140830641586
0.0009785140831119841
0.0009785140830796044
0.0009785140830598966
0.0009785140831315444
0.0009785140830716398
0.0009785140830798991
0.0009785140831672318
0.0009785140831232806
0.000978514083101625
0.0009785140831821929
0.000978514083147442
0.0009785140831785456
0.0009785140832481716
0.0009785140833470634
0.0009785140833734698
0.000978514083315998
0.0009785140833825088
0.0009785140833973461
0.000978514083423092
0.0009785140834594915
0.0009785140834728252
0.0009785140834257084
0.0009785140834340459
0.0009785140833843632
0.001193794785544309
0.001193794785534183
0.001193794785473883
0.001193794785634629
0.00119379478557409
0.001193794785451585
0.001193794785469171
0.0011937947854064
0.001193794785424457
0.001193794785351478
0.001193794785362924
0.001193794785299988
0.001193794785317221
0.001193794785278447
0.001193794785285531
0.001193794785249834
0.001193794785261672
0.00119379478520665
0.001193794785219177
0.001193794785185702
0.001193794785189764
0.001193794785130324
0.001193794785121154
0.001193794785049979
0.001193794785181334
0.00119379478505702
0.001193794785048264
0.001193794785008085
0.001193794785017151
0.001193794784980936
0.001193794784994253
0.001193794784973786
0.001193794784977378
0.001193794784938412
0.001193794785000739
0.001193794785031399
0.001193794784945224
0.001193794785011065
0.001193794785034127
0.001193794784908135
0.00119379478509096
0.001193794785001545
0.001193794784951363
0.001193794785122856
0.001193794785063122
0.001193794784997666
0.001193794785216444
0.001193794785329758
0.00119379478528611
0.001193794785247115
0.001193794785286326
0.001193794785266134
0.001193794785450421
0.001193794785382498
0.00119379478545364
0.001193794785424047
0.001193794785404194
0.001193794785342669
0.001472456412163204
0.00147245641216194
0.001472456412078776
0.001472456412249515
0.001472456412187075
0.001472456412044879
0.001472456412074642
0.001472456411996576
0.001472456412023417
0.001472456411955264
0.001472456411977313
0.001472456411893479
0.001472456411913334
0.001472456411871137
0.001472456411897808
0.001472456411857568
0.00147245641187735
0.001472456411819412
0.001472456411819945
0.001472456411759765
0.001472456411764636
0.001472456411692956
0.00147245641168275
0.001472456411610665
0.001472456411751692
0.00147245641158707
0.001472456411585976
0.00147245641153151
0.001472456411543161
0.001472456411511529
0.001472456411515043
0.001472456411479777
0.001472456411483033
0.001472456411419323
0.001472456411511284
0.00147245641148133
0.001472456411410591
0.001472456411548189
0.001472456411476209
0.001472456411367324
0.001472456411558979
0.001472456411464092
0.001472456411417369
0.001472456411598569
0.001472456411535768
0.001472456411459425
0.001472456411715013
0.001472456411806101
0.001472456411745627
0.001472456411734401
0.001472456411757582
0.001472456411774339
0.001472456411905961
0.001472456411885455
0.001472456411938327
0.001472456412065045
0.001472456411991469
0.001472456411942082
0.00183281237405935
0.001832812374120761
0.001832812374049202
0.001832812374140993
0.001832812374126135
0.001832812373997248
0.001832812374033281
0.001832812373942089
0.001832812373971013
0.001832812373922593
0.001832812373973124
0.001832812373856773
0.001832812373863165
0.001832812373827372
0.00183281237387275
0.001832812373837537
0.001832812373880987
0.001832812373811974
0.001832812373806838
0.001832812373690386
0.001832812373671715
0.001832812373619539
0.00183281237361819
0.00183281237354764
0.001832812373623712
0.001832812373469862
0.00183281237347044
0.001832812373401616
0.00183281237340949
0.001832812373383046
0.001832812373368545
0.001832812373324973
0.001832812373326656
0.001832812373251446
0.001832812373307399
0.001832812373298435
0.00183281237322403
0.001832812373299567
0.001832812373261999
0.001832812373170262
0.001832812373286951
0.001832812373243152
0.001832812373217579
0.001832812373322424
0.001832812373318466
0.001832812373260322
0.001832812373424872
0.001832812373460699
0.001832812373442165
0.001832812373526573
0.001832812373523357
0.001832812373518495
0.00183281237366606
0.001832812373754729
0.001832812373807716
0.001832812373862236
0.001832812373902638
0.001832812373882512
0.002292527492363899
0.002292527492643424
0.002292527492508157
0.002292527492496938
0.00229252749256711
0.00229252749243843
0.002292527492479673
0.002292527492383882
0.00229252749236695
0.00229252749238259
0.002292527492520975
0.002292527492330708
0.002292527492274726
0.002292527492273458
0.00229252749234701
0.0022925274923252
0.002292527492422966
0.002292527492350314
0.002292527492349283
0.002292527492116321
0.002292527492029972
0.002292527492044039
0.00229252749205234
0.002292527491982047
0.002292527491991223
0.002292527491873639
0.002292527491811595
0.002292527491756912
0.002292527491739472
0.002292527491744978
0.002292527491647339
0.00229252749160916
0.002292527491673181
0.00229252749153157
0.002292527491578009
0.002292527491535838
0.002292527491468998
0.002292527491482214
0.002292527491535065
0.002292527491424486
0.002292527491446812
0.002292527491492133
0.002292527491462091
0.002292527491473812
0.002292527491566457
0.002292527491499859
0.002292527491508577
0.002292527491616742
0.00229252749156665
0.00229252749162564
0.002292527491727601
0.00229252749169456
0.002292527491777917
0.00229252749194861
0.002292527491985094
0.00229252749207177
0.002292527492279905
0.002292527492252179
0.002864866248787259
0.002864866249405912
0.002864866249176882
0.002864866248986259
0.002864866249234221
0.00286486624907209
0.002864866248974986
0.002864866249072218
0.002864866248941882
0.00286486624889656
0.002864866249265203
0.002864866249082352
0.002864866248867946
0.002864866248868221
0.002864866248987019
0.00286486624898913
0.002864866249206704
0.002864866249105017
0.00286486624911415
0.002864866248763864
0.002864866248559021
0.002864866248638316
0.002864866248664693
0.002864866248534627
0.002864866248535093
0.002864866248470733
0.002864866248503937
0.002864866248329269
0.002864866248135735
0.002864866248286981
0.00286486624807293
0.002864866247980414
0.002864866248225448
0.002864866247949091
0.002864866247913168
0.002864866248014361
0.002864866247904272
0.002864866247756361
0.002864866248010452
0.002864866247808454
0.002864866247685616
0.002864866247905074
0.002864866247834531
0.002864866247703147
0.002864866248012207
0.002864866247820821
0.002864866247728683
0.002864866247948221
0.002864866247805499
0.002864866247872435
0.002864866248082386
0.002864866247956366
0.002864866247957665
0.002864866248270975
0.002864866248273557
0.002864866248286065
0.00286486624872423
0.002864866248759145
0.003555683526809324
0.003555683527968491
0.00355568352749976
0.00355568352717695
0.003555683527603536
0.003555683527445226
0.003555683527125714
0.003555683527468086
0.003555683527185419
0.003555683527074974
0.003555683527741295
0.003555683527396093
0.00355568352739613
0.003555683527061414
0.003555683527263677
0.003555683527303488
0.003555683527751971
0.00355568352755801
0.003555683527730973
0.003555683526913744
0.003555683527042819
0.003555683526880672
0.003555683526995076
0.003555683526717342
0.003555683526675013
0.003555683526694183
0.003555683526926118
0.003555683526611416
0.003555683526250874
0.003555683526526841
0.00355568352617034
0.003555683525944838
0.003555683526508642
0.003555683526068888
0.003555683525929641
0.003555683526167524
0.003555683525902081
0.003555683525674125
0.003555683526216874
0.003555683525802247
0.003555683525597412
0.003555683525994372
0.003555683525773053
0.003555683525577675
0.003555683526259559
0.003555683525500524
0.003555683525744302
0.003555683525969157
0.003555683525619925
0.003555683525561147
0.003555683526140023
0.003555683525783317
0.003555683525905043
0.003555683526220279
0.003555683526020384
0.003555683526009637
0.003555683526717442
0.003555683526721889
0.004361345331992974
0.004361345334218462
0.004361345333150821
0.004361345332846414
0.004361345333489117
0.00436134533321262
0.004361345332700884
0.004361345333434832
0.004361345332903218
0.004361345332567738
0.004361345333850284
0.004361345333171369
0.004361345333385196
0.004361345332753733
0.004361345332825698
0.004361345332935605
0.004361345333877645
0.004361345333383472
0.004361345333692474
0.004361345333036826
0.004361345333171696
0.004361345332459199
0.004361345332966134
0.004361345332359411
0.004361345331796261
0.004361345332128938
0.004361345332958802
0.004361345332325266
0.004361345331870315
0.004361345332290601
0.004361345331741396
0.004361345331183534
0.004361345332376548
0.004361345331789032
0.004361345331287427
0.004361345331853713
0.004361345331325228
0.004361345330912222
0.004361345332039108
0.004361345331306285
0.004361345330940647
0.004361345331626663
0.004361345331105485
0.004361345330754339
0.004361345331906167
0.004361345331108028
0.004361345330902448
0.004361345331510159
0.00436134533086055
0.004361345330633048
0.004361345331737379
0.004361345331029527
0.004361345331167005
0.004361345331721471
0.00436134533089249
0.004361345331207549
0.004361345332088433
0.00436134533181864
0.005256917944428373
0.005256917948360432
0.005256917946465933
0.005256917946008126
0.005256917947331875
0.005256917946578773
0.005256917945690357
0.005256917947416164
0.0052569179462981
0.005256917945557915
0.005256917947914036
0.005256917946677297
0.005256917947051255
0.005256917947115318
0.00525691794503741
0.005256917946109902
0.00525691794781108
0.005256917947136193
0.005256917947652795
0.005256917947047135
0.005256917947207135
0.005256917945503752
0.005256917946717724
0.005256917945136715
0.005256917945222627
0.005256917944637573
0.005256917946915898
0.005256917945764951
0.005256917944915353
0.005256917946142132
0.005256917944991245
0.005256917943982278
0.005256917946244399
0.00525691794531048
0.005256917944130911
0.005256917945642383
0.005256917944527092
0.005256917943683866
0.005256917945850074
0.005256917944896303
0.005256917943748869
0.005256917945424986
0.005256917944325985
0.00525691794359935
0.005256917945996797
0.005256917943674777
0.005256917944398926
0.005256917945237636
0.005256917943967618
0.005256917943382696
0.005256917945426755
0.005256917944172865
0.005256917943669399
0.005256917945332663
0.005256917944080673
0.005256917943614865
0.005256917945697669
0.005256917944972288
0.006183631841492298
0.006183631847080422
0.006183631843792589
0.006183631844375722
0.00618363184597683
0.006183631844330732
0.0061836318429117
0.006183631846159705
0.006183631844135579
0.00618363184298364
0.006183631846807932
0.006183631844603735
0.006183631843180971
0.006183631845763257
0.0061836318432389
0.006183631842445074
0.006183631846211064
0.006183631845483219
0.00618363184604941
0.006183631845964138
0.006183631846719628
0.006183631841007156
0.006183631843773419
0.00618363184515426
0.006183631841497824
0.006183631843209665
0.006183631845749175
0.006183631843393601
0.00618363184200693
0.00618363184490969
0.006183631842654027
0.006183631841232913
0.006183631844854326
0.006183631843252419
0.006183631841254473
0.006183631844388048
0.006183631842270241
0.006183631840940961
0.006183631844488799
0.006183631842810693
0.00618363184091181
0.006183631844246277
0.006183631842234638
0.006183631841051507
0.006183631845376658
0.006183631839687486
0.00618363184239951
0.006183631844101724
0.006183631841850558
0.006183631840829995
0.006183631844311323
0.006183631842051209
0.006183631841158561
0.006183631844383257
0.006183631842160335
0.006183631841168971
0.006183631844745518
0.006183631843396123
0.007089740249319575
0.007089740255946775
0.007089740249748835
0.007089740251846529
0.007089740254480093
0.007089740251890565
0.007089740249882586
0.007089740254793359
0.007089740251767199
0.007089740250337494
0.007089740256416281
0.007089740249008076
0.007089740252188137
0.007089740255531643
0.007089740248293191
0.007089740251189711
0.007089740254389894
0.007089740253188453
0.007089740253695648
0.007089740254221983
0.00708974025556774
0.007089740247129259
0.007089740251275538
0.007089740254322431
0.007089740247884602
0.00708974025104654
0.00708974025440834
0.007089740251146484
0.007089740248938783
0.007089740253598956
0.007089740250106209
0.007089740248300982
0.007089740253355029
0.007089740250792466
0.007089740248231078
0.007089740253095043
0.007089740249889983
0.007089740248061339
0.00708974025309165
0.007089740250451572
0.007089740247958361
0.007089740253104399
0.0070897402497426
0.007089740248513837
0.007089740254487662
0.007089740246468221
0.0070897402503297
0.007089740253056365
0.007089740249720164
0.007089740248226035
0.00708974025328171
0.00708974025007115
0.007089740248723185
0.007089740253637468
0.00708974025031888
0.007089740248867236
0.007089740254083834
0.007089740251067679
0.007947299844743235
0.007947299852980504
0.007947299842426991
0.007947299847038021
0.007947299850777996
0.007947299847269456
0.007947299844771495
0.007947299851261738
0.00794729984732438
0.007947299845553799
0.007947299853519562
0.007947299842573042
0.007947299847840164
0.007947299852366063
0.007947299844347442
0.007947299847246696
0.007947299850535192
0.007947299848535856
0.007947299847869439
0.007947299849400043
0.007947299852090495
0.007947299841409171
0.007947299846770579
0.00794729985109829
0.007947299842546683
0.007947299846624864
0.007947299850907835
0.007947299846813088
0.007947299843871864
0.007947299850116427
0.007947299845482177
0.007947299843317275
0.007947299849731995
0.007947299846209087
0.007947299843201167
0.007947299849639586
0.007947299845432626
0.007947299843147399
0.00794729984960702
0.007947299846203989
0.007947299843171335
0.007947299850952267
0.007947299841697683
0.007947299845893804
0.00794729985117933
0.007947299841954048
0.007947299845923999
0.00794729984989849
0.007947299845541302
0.007947299843579895
0.007947299850125435
0.007947299845993671
0.007947299844290549
0.007947299850758977
0.007947299846359942
0.007947299844418452
0.007947299851059388
0.007947299846846894
0.00874482377913751
0.008744823788633527
0.008744823776425912
0.008744823781355273
0.00874482378610229
0.008744823781761387
0.008744823778855626
0.008744823786757162
0.00874482378209834
0.008744823779979274
0.008744823789505718
0.008744823776345926
0.008744823782248914
0.008744823786844727
0.008744823784598087
0.008744823781056565
0.008744823785117704
0.008744823786832527
0.008744823777175727
0.008744823782422048
0.008744823787512243
0.008744823775311529
0.008744823781379016
0.008744823786866055
0.008744823776651405
0.008744823781275076
0.008744823786458121
0.008744823781593148
0.008744823778072591
0.008744823785681166
0.008744823780144118
0.008744823777579869
0.008744823785213639
0.008744823780836432
0.008744823777431611
0.008744823785218507
0.008744823780162538
0.008744823777484343
0.008744823785229913
0.008744823781366352
0.008744823777579716
0.00874482378699005
0.008744823774963687
0.008744823780754139
0.008744823785696292
0.00874482378031561
0.008744823778350803
0.008744823785760695
0.008744823780514588
0.008744823778114676
0.008744823785966468
0.008744823780984049
0.008744823779029231
0.008744823786841717
0.00874482378145253
0.008744823779049711
0.008744823786925326
0.008744823781688093
0.00947935107599023
0.009479351086586617
0.009479351073302791
0.009479351078140507
0.009479351083770736
0.009479351078664305
0.009479351075423238
0.009479351084524234
0.009479351079323873
0.009479351076912003
0.009479351087805704
0.009479351073472335
0.009479351079683451
0.009479351085397679
0.009479351080915702
0.00947935108206141
0.009479351077921375
0.009479351085544966
0.009479351072241298
0.009479351078760852
0.009479351084838843
0.009479351073549826
0.009479351078301815
0.009479351084386555
0.00947935107547551
0.009479351078030785
0.009479351084342688
0.009479351078785399
0.009479351074813748
0.009479351083577411