/*--------------------------------*- C++ -*----------------------------------*\
| =========                 |                                                 |
| \\      /  F ield         | OpenFOAM: The Open Source CFD Toolbox           |
|  \\    /   O peration     | Version:  v1812                                 |
|   \\  /    A nd           | Web:      www.OpenFOAM.com                      |
|    \\/     M anipulation  |                                                 |
\*---------------------------------------------------------------------------*/
FoamFile
{
    version     2.0;
    format      ascii;
    class       volScalarField;
    location    "20000";
    object      p;
}
// * * * * * * * * * * * * * * * * * * * * * * * * * * * * * * * * * * * * * //

dimensions      [0 2 -2 0 0 0 0];


internalField   nonuniform List<scalar> 
3770
(
1.380109614626933e-14
1.509371426822113e-10
1.241403686756881e-10
1.297025739615256e-10
1.560723095650591e-10
1.418390556792826e-10
1.785780852055687e-10
1.625670855852224e-10
1.985163365205391e-10
1.830947546705266e-10
2.152159320582244e-10
2.03621742631028e-10
2.305945944271522e-10
2.221667616937206e-10
2.449384549040997e-10
2.397483821906739e-10
2.582655416504703e-10
2.560073958789597e-10
2.725430215627377e-10
2.709580348593625e-10
2.860401008447044e-10
2.865998441771622e-10
2.98508540302661e-10
3.009282369710621e-10
3.124696599075317e-10
3.141591094300769e-10
3.256748227831581e-10
3.290096102697048e-10
3.381525348335598e-10
3.426122932902426e-10
3.520289658545821e-10
3.549958465505279e-10
3.647584563712501e-10
3.689003264681107e-10
3.764424774369566e-10
3.814538205361708e-10
3.894757402324053e-10
3.929534436384329e-10
4.015902431824372e-10
4.061613924059042e-10
4.130857463071755e-10
4.184599856224774e-10
4.251138995036937e-10
4.292748809027298e-10
4.382004026342454e-10
4.419989802105854e-10
4.488113461006668e-10
4.553297864567342e-10
4.619003788965314e-10
4.670395048214335e-10
4.766039994600031e-10
4.823537246349589e-10
4.92093842963994e-10
5.014660146957145e-10
5.074526600829161e-10
5.326930887311019e-10
5.696546966883453e-10
3.899300498517281e-10
-2.408277629483376e-13
1.50704247496957e-10
1.242714843618573e-10
1.296452344273811e-10
1.560948601397997e-10
1.418279350620298e-10
1.785832199465428e-10
1.625668748051652e-10
1.985181397917687e-10
1.830980244269194e-10
2.152151650245225e-10
2.036223026955637e-10
2.305935798989339e-10
2.221714785597417e-10
2.44934056646377e-10
2.397524820174106e-10
2.582658912773563e-10
2.56005851258547e-10
2.725439509593065e-10
2.709615238533536e-10
2.860358196402274e-10
2.86602405714122e-10
2.985096166873157e-10
3.009258791923684e-10
3.12471129911477e-10
3.14161769454656e-10
3.256714744441461e-10
3.29012460914293e-10
3.381540325298494e-10
3.426091949237258e-10
3.520305116469301e-10
3.549977621201195e-10
3.647556571107582e-10
3.689025606906819e-10
3.764435314703252e-10
3.814517800164327e-10
3.894782505473344e-10
3.929545333038482e-10
4.015870931381786e-10
4.061630018733209e-10
4.130872515958578e-10
4.184614739357636e-10
4.251163253804634e-10
4.292724213941303e-10
4.382019755208037e-10
4.420027815730105e-10
4.488076478838793e-10
4.553320147472404e-10
4.619038045290754e-10
4.670351447465696e-10
4.766055244911865e-10
4.823556306102355e-10
4.920846542630191e-10
5.014610485460086e-10
5.074555597363316e-10
5.327008391986165e-10
5.697590083778453e-10
3.902041076050951e-10
-7.616942090327474e-13
1.502331840836614e-10
1.245253888152809e-10
1.295293139863419e-10
1.561370336486701e-10
1.418034069827376e-10
1.785909108621809e-10
1.62564094387998e-10
1.985185019347311e-10
1.830982601003441e-10
2.152059402863981e-10
2.036295747888127e-10
2.305941770353072e-10
2.221723751528871e-10
2.449308352348688e-10
2.397633232140257e-10
2.582549756147794e-10
2.560080452959687e-10
2.725494935996758e-10
2.709583452696304e-10
2.860316844123999e-10
2.866099271631463e-10
2.985018437044924e-10
3.00924717908973e-10
3.124779054147442e-10
3.141587220144145e-10
3.256696066120481e-10
3.290204543263975e-10
3.381455377613606e-10
3.42606467797359e-10
3.5203661289135e-10
3.549923653954411e-10
3.647564077021144e-10
3.68908597327714e-10
3.764349018895919e-10
3.814530281684729e-10
3.894838574368853e-10
3.929467053457819e-10
4.015862693343965e-10
4.061662763638191e-10
4.130839204420973e-10
4.184602741785115e-10
4.251166636440638e-10
4.292683356840618e-10
4.382012817380425e-10
4.41998741617142e-10
4.488026138510185e-10
4.553340695091049e-10
4.618960152400122e-10
4.670243583801454e-10
4.766066792143136e-10
4.823445523711116e-10
4.920669452761235e-10
5.01451960648494e-10
5.074590341985459e-10
5.327465684317963e-10
5.700339515633925e-10
3.907866297641325e-10
-1.472861160564504e-12
1.493896564128386e-10
1.249254431783402e-10
1.293385000305531e-10
1.562007629940806e-10
1.417701704873378e-10
1.785920868668086e-10
1.625663325470649e-10
1.98507351329369e-10
1.831031969681282e-10
2.152061761569725e-10
2.036715715201308e-10
2.305602681495994e-10
2.221807572354498e-10
2.449444242973776e-10
2.39758812077965e-10
2.582358269107477e-10
2.560378092256369e-10
2.725267485401125e-10
2.7095831540044e-10
2.860480688747081e-10
2.865990775194079e-10
2.984889545507287e-10
3.009480540346149e-10
3.124600589407669e-10
3.141562281715686e-10
3.256885495502434e-10
3.290072177787061e-10
3.381361671149543e-10
3.426269001263452e-10
3.520173492702759e-10
3.549871077979404e-10
3.647795893966464e-10
3.688921409571427e-10
3.764238615586761e-10
3.81477471807548e-10
3.894645584630106e-10
3.929379669326617e-10
4.016084172337177e-10
4.061458306441622e-10
4.130627772716576e-10
4.18455892087463e-10
4.251278860895205e-10
4.292741217180507e-10
4.381747659644353e-10
4.420013991041771e-10
4.488161463829592e-10
4.553109028465225e-10
4.618846363302014e-10
4.67027710402076e-10
4.7657424196344e-10
4.823250114561382e-10
4.920548673955812e-10
5.014053527347496e-10
5.074490605231284e-10
5.327950502419075e-10
5.704502196720081e-10
3.918139142732753e-10
-2.393503254486099e-12
1.48166147977904e-10
1.254289356492462e-10
1.290854095494791e-10
1.562835975316918e-10
1.417244643024036e-10
1.785931613953137e-10
1.625655312909585e-10
1.98491316022848e-10
1.831102578322702e-10
2.152455820930134e-10
2.037552821712929e-10
2.304729651590954e-10
2.222040442015368e-10
2.449925445215755e-10
2.397109804908738e-10
2.582169922613398e-10
2.561082843829405e-10
2.724592342295664e-10
2.709698377935103e-10
2.861016628950739e-10
2.865437622735767e-10
2.984761272467135e-10
3.01011434882877e-10
3.123993702696506e-10
3.141593358103286e-10
3.257457114833257e-10
3.289484480616492e-10
3.381360282663924e-10
3.42687886969443e-10
3.519512600044943e-10
3.549914176809204e-10
3.648368433994769e-10
3.688262365754109e-10
3.764244483643688e-10
3.81538195754353e-10
3.893983561432059e-10
3.929393103156243e-10
4.016665667242976e-10
4.060766039777402e-10
4.130166646599248e-10
4.184512946609688e-10
4.251653377050783e-10
4.293120861979805e-10
4.380995591310042e-10
4.420114273237246e-10
4.488662048686682e-10
4.552406123752979e-10
4.618816820599554e-10
4.67065461006126e-10
4.764907311895126e-10
4.823122224475231e-10
4.920764754003078e-10
5.01319096826364e-10
5.074533727831379e-10
5.328462537289389e-10
5.709587182597336e-10
3.932809681241015e-10
-3.513617581990483e-12
1.465933510893719e-10
1.26049560139065e-10
1.287722799628773e-10
1.56381431857905e-10
1.416668048577824e-10
1.785993966713921e-10
1.625620906159468e-10
1.984724475733025e-10
1.8312488339419e-10
2.152872058597775e-10
2.03859255483439e-10
2.303630440139274e-10
2.22235470911653e-10
2.45054102456963e-10
2.396478944361102e-10
2.581984949625374e-10
2.561990447130255e-10
2.723695687602586e-10
2.709869755412867e-10
2.861687776813382e-10
2.864703051432662e-10
2.984634672377438e-10
3.01092266838306e-10
3.123165860827055e-10
3.141626161364504e-10
3.25820132888269e-10
3.288723428226233e-10
3.381343321002088e-10
3.427686208325108e-10
3.518679473422756e-10
3.549969283579766e-10
3.649094896625317e-10
3.687390085535297e-10
3.764270520911682e-10
3.816160053186814e-10
3.893142887881885e-10
3.929432822758162e-10
4.017392114703945e-10
4.059868297638371e-10
4.129565944968399e-10
4.184447728927048e-10
4.252152331655169e-10
4.293706631568076e-10
4.38002242605854e-10
4.420156598956234e-10
4.48929555068766e-10
4.551472410452929e-10
4.61878778233133e-10
4.671164799270939e-10
4.763847591491064e-10
4.822964402974666e-10
4.921091860943075e-10
5.012196082231414e-10
5.074595531802448e-10
5.328700666459114e-10
5.715765676591477e-10
3.951847730979524e-10
-4.854347073028704e-12
1.447573723286262e-10
1.268018976521944e-10
1.284099199936969e-10
1.564804106557132e-10
1.416026665661288e-10
1.78623310866875e-10
1.625451563900486e-10
1.984604679561845e-10
1.83163875805439e-10
2.152820525770231e-10
2.039427234783849e-10
2.302788456437397e-10
2.222679322250257e-10
2.450930029430103e-10
2.396070225651129e-10
2.581830165106014e-10
2.562738322173876e-10
2.722925305814646e-10
2.710044624294742e-10
2.862148981775654e-10
2.864174765670359e-10
2.9845460088428e-10
3.011552880829731e-10
3.122479793588672e-10
3.141653185912551e-10
3.258744749787064e-10
3.288167593465701e-10
3.381313294712133e-10
3.428288916922661e-10
3.518048183861104e-10
3.549988174545684e-10
3.64964879962386e-10
3.686738608678599e-10
3.764262872220236e-10
3.816739732283985e-10
3.892519959803121e-10
3.929431240327463e-10
4.017918655872201e-10
4.059181799383464e-10
4.12906500305011e-10
4.184381945342534e-10
4.252587077005e-10
4.294102273153825e-10
4.379264958444832e-10
4.420209025397037e-10
4.489688672645692e-10
4.550710564184276e-10
4.618779453502981e-10
4.671445428594644e-10
4.762977692651339e-10
4.822795806625623e-10
4.921165103713886e-10
5.011430251433898e-10
5.074641615226806e-10
5.328338678434543e-10
5.723135261300178e-10
3.974535872460547e-10
-6.419493482131745e-12
1.427329299559692e-10
1.276532803614616e-10
1.279878497992935e-10
1.566003485374958e-10
1.415252985507812e-10
1.786546079922906e-10
1.625300091183965e-10
1.984586422958318e-10
1.832156853022006e-10
2.152381415867801e-10
2.039990250173724e-10
2.302267470910118e-10
2.223027196644042e-10
2.450979205330281e-10
2.3959834006228e-10
2.581655994340241e-10
2.563203621997347e-10
2.722453061654407e-10
2.710213966782604e-10
2.862298721912747e-10
2.863965172017939e-10
2.984454343391631e-10
3.011888063736788e-10
3.12211740434971e-10
3.141676292374154e-10
3.258970957695764e-10
3.287922132335083e-10
3.38129574096569e-10
3.428558838539818e-10
3.51772837824549e-10
3.54998033819763e-10
3.649907681782792e-10
3.686422218771723e-10
3.764243014359007e-10
3.816991264762546e-10
3.892228581089398e-10
3.929393674362644e-10
4.018140598291732e-10
4.058822642514299e-10
4.128760428081638e-10
4.184333905847115e-10
4.252905390091696e-10
4.294186834758577e-10
4.378839060215307e-10
4.420297116353159e-10
4.489752759331774e-10
4.550251355241383e-10
4.618826924988032e-10
4.671383247575501e-10
4.762422396081271e-10
4.822647245080341e-10
4.920875851534173e-10
5.010983289359221e-10
5.074721619813602e-10
5.32740556030144e-10
5.73163784742415e-10
4.000164808241234e-10
-8.198993234681833e-12
1.405729094997383e-10
1.285675076650723e-10
1.274835871823477e-10
1.567643467748822e-10
1.414279380979126e-10
1.78679668441974e-10
1.625291156538686e-10
1.984609305900949e-10
1.832589359851073e-10
2.151867096750855e-10
2.040491461716688e-10
2.301866734958522e-10
2.223394624162027e-10
2.450818175495014e-10
2.396130868090299e-10
2.581431167961508e-10
2.563499174372751e-10
2.722188984768263e-10
2.710361975199901e-10
2.862260994599582e-10
2.863978846793735e-10
2.984327293555346e-10
3.012039320972985e-10
3.121984199875495e-10
3.14166368095367e-10
3.259010542280505e-10
3.287893314079552e-10
3.381260009229411e-10
3.428634071636416e-10
3.517630425667697e-10
3.549924569208832e-10
3.649995904199932e-10
3.686331855739441e-10
3.7641907568193e-10
3.817049367239488e-10
3.892178941883046e-10
3.929311928385575e-10
4.018194634448405e-10
4.05869946146065e-10
4.12858264402073e-10
4.184296107293382e-10
4.253124785955797e-10
4.294073458930774e-10
4.378649397241568e-10
4.420389504306972e-10
4.489622537429445e-10
4.550004431919493e-10
4.618901692547722e-10
4.671104948945752e-10
4.762076432452888e-10
4.822483414190474e-10
4.920351390065104e-10
5.010736833878182e-10
5.074823311221874e-10
5.326234384183489e-10
5.741253948982077e-10
4.028150819906182e-10
-1.021593735854301e-11
1.383091872400004e-10
1.295476531083283e-10
1.268802922431696e-10
1.569733469320114e-10
1.413070697726048e-10
1.787054558092788e-10
1.625340882808933e-10
1.984603359281707e-10
1.832949274134665e-10
2.151369387648672e-10
2.041061567608715e-10
2.301456020410273e-10
2.223790525724613e-10
2.450561426527833e-10
2.396420229079419e-10
2.581136838371197e-10
2.56376055738706e-10
2.722018935355705e-10
2.710484826837036e-10
2.862154345605452e-10
2.86411577718177e-10
2.984145176564909e-10
3.01213441357193e-10
3.121968056910327e-10
3.141597967146658e-10
3.25898562822268e-10
3.287985658415389e-10
3.381186958494469e-10
3.428645617717499e-10
3.517653759121044e-10
3.549811464236855e-10
3.650035919543746e-10
3.686362942328809e-10
3.764093746502794e-10
3.817042139497886e-10
3.892269080853308e-10
3.929186107417912e-10
4.018205128405733e-10
4.058704034200309e-10
4.128452331660324e-10
4.184269318375155e-10
4.253293324802623e-10
4.293870624305753e-10
4.378585032186128e-10
4.420479839771864e-10
4.489411181156231e-10
4.549864229712992e-10
4.618987169874281e-10
4.670718993738985e-10
4.76181966776622e-10
4.822282940841526e-10
4.919693750678789e-10
5.010562355862029e-10
5.074926231877294e-10
5.325185538754858e-10
5.752191934072851e-10
4.057998369087759e-10
-1.249168974083743e-11
1.359492546558204e-10
1.306091840520735e-10
1.261518528139862e-10
1.572305692567156e-10
1.41156099040332e-10
1.787377907556967e-10
1.625418752243399e-10
1.984540433197185e-10
1.833320284595381e-10
2.150855472165575e-10
2.041781816225734e-10
2.300954085646178e-10
2.224253571567699e-10
2.450252485999903e-10
2.39681626771086e-10
2.580750735545995e-10
2.564079504242657e-10
2.721863749070039e-10
2.710600007104383e-10
2.862030322020059e-10
2.864331512530632e-10
2.983893603297037e-10
3.012250257655901e-10
3.121999589735887e-10
3.141481681200479e-10
3.258953162754096e-10
3.288151358132375e-10
3.381069279342115e-10
3.428665025473296e-10
3.517737601393102e-10
3.54964755267054e-10
3.650088057591338e-10
3.68646144938843e-10
3.763948306061419e-10
3.817040955402518e-10
3.892436467027277e-10
3.929017908765636e-10
4.01822866490059e-10
4.058773911973736e-10
4.128303618225881e-10
4.184250922789171e-10
4.253467424448682e-10
4.293627506659793e-10
4.378566216344242e-10
4.420585115481397e-10
4.48915685854183e-10
4.549759648267944e-10
4.619078738532358e-10
4.670254142556112e-10
4.761558033270946e-10
4.822031822687043e-10
4.918909959716772e-10
5.010346907954083e-10
5.075007932727682e-10
5.324555363922712e-10
5.764781599765699e-10
4.089503401969477e-10
-1.50186155061656e-11
1.334708092360795e-10
1.317626339583651e-10
1.252582441489426e-10
1.575452113450273e-10
1.409665653359838e-10
1.78778423876601e-10
1.625536249566532e-10
1.98442100502259e-10
1.833793315329237e-10
2.150250520512641e-10
2.042726206955349e-10
2.300308197168184e-10
2.22484086424594e-10
2.449886255311186e-10
2.397336513150388e-10
2.580241607854e-10
2.564517397463563e-10
2.721678367772604e-10
2.710733111274172e-10
2.861896348299624e-10
2.864626461628667e-10
2.983551784880474e-10
3.012427398959436e-10
3.122048968325106e-10
3.141320709858232e-10
3.258926315377472e-10
3.288382592558238e-10
3.380895419264671e-10
3.428722884933768e-10
3.5178597943527e-10
3.549437633325332e-10
3.650172523418587e-10
3.68661873875138e-10
3.763748166732978e-10
3.817074792162841e-10
3.892661812899711e-10
3.928801438987157e-10
4.018273972839321e-10
4.058892086328559e-10
4.12809576214892e-10
4.184241759060743e-10
4.25368391504269e-10
4.293342561195318e-10
4.378548784074183e-10
4.420727986614915e-10
4.48884758672195e-10
4.549653573889387e-10
4.619172161381658e-10
4.669677662460809e-10
4.761219751271152e-10
4.821707683353822e-10
4.917929782373188e-10
5.009980547349856e-10
5.075046475740663e-10
5.324575623198821e-10
5.779228712622631e-10
4.122908088092313e-10
-1.774087247207782e-11
1.307852194774275e-10
1.330100642727726e-10
1.241451375186048e-10
1.579308972160162e-10
1.407271255235461e-10
1.788283802408195e-10
1.625718230871659e-10
1.984263133713582e-10
1.834437165087857e-10
2.149484795712624e-10
2.043985655091102e-10
2.299476904291089e-10
2.225612661902952e-10
2.449438302296579e-10
2.398032187467468e-10
2.57956665536873e-10
2.565121419906317e-10
2.72144057443468e-10
2.710900643962862e-10
2.86174491234574e-10
2.865035753983963e-10
2.983084125787918e-10
3.012690489110255e-10
3.122116005460392e-10
3.141107911819314e-10
3.258899514978943e-10
3.28870548473415e-10
3.380641910685374e-10
3.428833658972534e-10
3.518029180430307e-10
3.549172988744053e-10
3.650291408933405e-10
3.686858972554403e-10
3.763472293664634e-10
3.817154844933769e-10
3.892956804664551e-10
3.928516599684652e-10
4.018326383062438e-10
4.059072495314391e-10
4.127800963163714e-10
4.18425028248533e-10
4.253962636976109e-10
4.292982522050224e-10
4.378513912495532e-10
4.420931041244119e-10
4.488440938396025e-10
4.549533476853028e-10
4.619258254344785e-10
4.668917060806232e-10
4.760746681641939e-10
4.821274356323732e-10
4.91661941383856e-10
5.009345512503061e-10
5.075053507571978e-10
5.325326230983353e-10
5.795338706111498e-10
4.159447877173022e-10
-2.055956133344243e-11
1.276748367332287e-10
1.343561043803704e-10
1.227434033789742e-10
1.5840511046817e-10
1.404244929529587e-10
1.788908124151582e-10
1.625977895085114e-10
1.984108271243459e-10
1.835302068618244e-10
2.148510767507863e-10
2.045651073336671e-10
2.298427389751081e-10
2.226627439775025e-10
2.448894143182903e-10
2.398967959581658e-10
2.578678785357097e-10
2.565937501648245e-10
2.721140990385815e-10
2.711096909031257e-10
2.861576019465013e-10
2.865615911427562e-10
2.982438023397926e-10
3.013063352101406e-10
3.122217422647426e-10
3.140817574694754e-10
3.258863650781325e-10
3.289170171714295e-10
3.380271745454586e-10
3.429012094135698e-10
3.518271058408779e-10
3.548821677331289e-10
3.650446320632833e-10
3.687225995212714e-10
3.763074455765577e-10
3.817295818313744e-10
3.89334987331856e-10
3.928125125436249e-10
4.018382033143748e-10
4.059348902645773e-10
4.127371802906802e-10
4.184292615545728e-10
4.25432630316663e-10
4.29249267475446e-10
4.378459232162027e-10
4.421217311985003e-10
4.487858212898418e-10
4.549387350323636e-10
4.619332980708328e-10
4.667885744189865e-10
4.760081062150084e-10
4.820686154307882e-10
4.914804970445582e-10
5.008329076531018e-10
5.075092906891463e-10
5.326487746547453e-10
5.812332914480366e-10
4.202252501106036e-10
-2.335639038347932e-11
1.237574632157072e-10
1.35820782573391e-10
1.209723191434239e-10
1.58987460085859e-10
1.400439086316937e-10
1.789721442820557e-10
1.626288981575479e-10
1.984042975720748e-10
1.836421219070044e-10
2.147317577394479e-10
2.047789068310698e-10
2.297152703878466e-10
2.227929888464867e-10
2.448263293353418e-10
2.400208412153071e-10
2.577532576019139e-10
2.567003586113832e-10
2.72077847788675e-10
2.711293375360892e-10
2.861406381071585e-10
2.866434307069122e-10
2.981548959096963e-10
3.013574663751605e-10
3.122380339756649e-10
3.140403771328979e-10
3.258811851889763e-10
3.289843173676331e-10
3.379737787718367e-10
3.429271670386657e-10
3.518618678457584e-10
3.548353916144858e-10
3.650635852736283e-10
3.687771168949243e-10
3.762498066646441e-10
3.81751562116699e-10
3.893874338949466e-10
3.927584725624993e-10
4.018443471192768e-10
4.059762188400453e-10
4.126749115741408e-10
4.184394020891647e-10
4.254794675477783e-10
4.291812118501249e-10
4.37839360043679e-10
4.42160078901658e-10
4.487003179770344e-10
4.549211998212706e-10
4.619391208935325e-10
4.666497173551204e-10
4.759161525301076e-10
4.819894753892236e-10
4.912308816742319e-10
5.006862854898246e-10
5.075238641799244e-10
5.327097467938399e-10
5.828897616467504e-10
4.256934151283291e-10
-2.601076476290768e-11
1.18537678581022e-10
1.37434603169126e-10
1.18757291095622e-10
1.596932203284755e-10
1.395695738943594e-10
1.790849348246342e-10
1.626567369336129e-10
1.984194739731785e-10
1.837799030339379e-10
2.145961323602277e-10
2.050436049987605e-10
2.295689809328511e-10
2.229510570707369e-10
2.447587285376131e-10
2.401804717377759e-10
2.576107856987101e-10
2.568343694108838e-10
2.720374309870422e-10
2.711434173351278e-10
2.861262647495325e-10
2.867558163696043e-10
2.980343554335434e-10
3.01424758005508e-10
3.122664284357196e-10
3.139827972366955e-10
3.258712039301571e-10
3.290776056321699e-10
3.378999138023885e-10
3.42961878630386e-10
3.519100094269193e-10
3.547760519272301e-10
3.65085219921498e-10
3.688551225937857e-10
3.761701513882175e-10
3.817822831444378e-10
3.894563577111558e-10
3.926878365694364e-10
4.01849853898287e-10
4.060349721082354e-10
4.125893815489177e-10
4.184571247262006e-10
4.255387885431155e-10
4.290906592870887e-10
4.378313822695234e-10
4.422099503308948e-10
4.485817050150778e-10
4.549012239981818e-10
4.619422867470974e-10
4.664677545567342e-10
4.757929751179421e-10
4.818867181556262e-10
4.908960565578049e-10
5.004945388569586e-10
5.075528550174503e-10
5.325588439289062e-10
5.843318792435888e-10
4.330864615824944e-10
-2.838050144617603e-11
1.11568213989015e-10
1.392106532132857e-10
1.160554649879334e-10
1.605270176390463e-10
1.389903669202241e-10
1.79245175092044e-10
1.626684727123595e-10
1.98473923479778e-10
1.839371601604526e-10
2.144592511699119e-10
2.053602830041843e-10
2.294087606426188e-10
2.231259282642726e-10
2.446971339957827e-10
2.403772375236127e-10
2.574417055682068e-10
2.569962009157555e-10
2.720007954345877e-10
2.711450029726479e-10
2.86116609012298e-10
2.869038216682063e-10
2.978750958506785e-10
3.015067839685374e-10
3.123166790419696e-10
3.139102526558814e-10
3.258510052987917e-10
3.291993426497363e-10
3.378021809101642e-10
3.430055684284293e-10
3.519733006528898e-10
3.547033524772019e-10
3.651117800359086e-10
3.689631880870406e-10
3.760634451250982e-10
3.818191885910264e-10
3.895446570316704e-10
3.926025507768121e-10
4.01852498614298e-10
4.061148041521306e-10
4.12478950357404e-10
4.184830604044659e-10
4.256134274102284e-10
4.289776875994068e-10
4.378211346611979e-10
4.422749868919941e-10
4.484267574766004e-10
4.548779180693079e-10
4.619453457841682e-10
4.662405468114486e-10
4.756351695891442e-10
4.817617978780588e-10
4.904619412439715e-10
5.002582656456817e-10
5.07593861933801e-10
5.320278975360144e-10
5.853508428222296e-10
4.43088391082883e-10
-3.026647077405198e-11
1.026602043663509e-10
1.411101626565056e-10
1.128790408433581e-10
1.61478994288715e-10
1.383084153972046e-10
1.794685721328324e-10
1.62648136143994e-10
1.985878557364148e-10
1.841029831279351e-10
2.143448855925998e-10
2.057211925788072e-10
2.292331947641494e-10
2.232984328261641e-10
2.446616240139535e-10
2.406107049739797e-10
2.572525130502516e-10
2.571844303894746e-10
2.719835713065767e-10
2.711283183271438e-10
2.861092096809241e-10
2.87089735596923e-10
2.976687159055165e-10
3.0159388813883e-10
3.12396443517983e-10
3.13827737775029e-10
3.25826413178322e-10
3.293534100422741e-10
3.376748138852192e-10
3.430558626927254e-10
3.520520821260253e-10
3.546183432842254e-10
3.651500699302297e-10
3.691034781867505e-10
3.759239308341335e-10
3.818587715306983e-10
3.896532329513036e-10
3.925092038716273e-10
4.018547980478044e-10
4.062162394764406e-10
4.123417070957008e-10
4.185165683896938e-10
4.257039893281462e-10
4.288463310111043e-10
4.378107192559922e-10
4.423592960657932e-10
4.482340352656765e-10
4.548472198889519e-10
4.619507058563138e-10
4.65973739760111e-10
4.754464504106893e-10
4.81616278375539e-10
4.899186865365026e-10
4.999740286487903e-10
5.076357548189468e-10
5.310133154042529e-10
5.857089943989858e-10
4.560252030122634e-10
-3.142218655934871e-11
9.199442495431264e-11
1.430382108063824e-10
1.093130790671531e-10
1.625187393988976e-10
1.375322413740085e-10
1.797857868171089e-10
1.625774874065274e-10
1.987700690284821e-10
1.842775282634772e-10
2.142802740446169e-10
2.06102318207075e-10
2.290541679747926e-10
2.234403250419071e-10
2.446542139473606e-10
2.408942923429372e-10
2.570656720829002e-10
2.573971624799527e-10
2.720016769137031e-10
2.710834260581475e-10
2.860902263695092e-10
2.873117338459857e-10
2.974034840037624e-10
3.016697843597758e-10
3.125117031157121e-10
3.137515431869235e-10
3.258168077376244e-10
3.295343699579167e-10
3.375173534599102e-10
3.431064531383406e-10
3.521392070458116e-10
3.545360696855187e-10
3.652004071242947e-10
3.692664698109669e-10
3.757608615086009e-10
3.818982380110142e-10
3.897733867772851e-10
3.924252336467451e-10
4.018643219035953e-10
4.063322908391334e-10
4.121823183742641e-10
4.185531645495973e-10
4.258024288058087e-10
4.287134513835372e-10
4.37799422733405e-10
4.424581767920007e-10
4.480165476985156e-10
4.54802556512682e-10
4.619560704461883e-10
4.656875628602226e-10
4.752202278309587e-10
4.814428833117279e-10
4.892853828966867e-10
4.996248521738666e-10
5.076506771145157e-10
5.295459554167171e-10
5.851743000943836e-10
4.71663325545291e-10
-3.16426441016163e-11
8.005299673978328e-11
1.448841509002079e-10
1.055190422369518e-10
1.636085064031623e-10
1.366730080406766e-10
1.802327015335058e-10
1.624436101559458e-10
1.990189708457704e-10
1.844791934462102e-10
2.142582189302996e-10
2.064400386685098e-10
2.289526345665619e-10
2.235397273145247e-10
2.446221480680194e-10
2.412637362144653e-10
2.569100251145597e-10
2.576337662954905e-10
2.720734286696151e-10
2.710033985642688e-10
2.860068209543511e-10
2.875273407512718e-10
2.971543709339756e-10
3.017371974936962e-10
3.126212377090044e-10
3.137220099229075e-10
3.25802189880239e-10
3.297149328511364e-10
3.373676379430573e-10
3.431527403420869e-10
3.522204816992381e-10
3.544858680004281e-10
3.652492569472012e-10
3.694343316994355e-10
3.756049792841911e-10
3.819316795570896e-10
3.898877791160302e-10
3.923762706538656e-10
4.01869750707688e-10
4.064507356781785e-10
4.12032612512148e-10
4.185917987546125e-10
4.258941427989125e-10
4.286035597020493e-10
4.377719968069868e-10
4.425566440941565e-10
4.478140207622695e-10
4.547389207666947e-10
4.619521347777798e-10
4.654151986842565e-10
4.749427477953611e-10
4.812286002178549e-10
4.886083281443721e-10
4.99183326620517e-10
5.075970407384542e-10
5.277787428609009e-10
5.835906913934083e-10
4.892526972362004e-10
-3.081830664391651e-11
6.746297658466477e-11
1.46572476964107e-10
1.016876308103204e-10
1.647200458850307e-10
1.357585239694894e-10
1.808187055676361e-10
1.622487450382064e-10
1.993273453345914e-10
1.847269106587347e-10
2.142370486190052e-10
2.067032702190525e-10
2.290131390374786e-10
2.235818181537612e-10
2.445379990913372e-10
2.417408087710112e-10
2.567601386578279e-10
2.578850921558199e-10
2.72212993062552e-10
2.708907180625891e-10
2.858395636477034e-10
2.877045586147578e-10
2.969962658479265e-10
3.018038374095921e-10
3.126919026951115e-10
3.137621811651003e-10
3.257613630475071e-10
3.29870402762072e-10
3.372523174932472e-10
3.431922253425076e-10
3.522876070067447e-10
3.544873366605346e-10
3.652796215510454e-10
3.695943216391211e-10
3.754861177021338e-10
3.819596917288697e-10
3.899835398082707e-10
3.923720326291628e-10
4.018542062787877e-10
4.065602312857851e-10
4.119243693394316e-10
4.186493591480905e-10
4.259686568701934e-10
4.285165915351004e-10
4.377198363797531e-10
4.426485282622213e-10
4.476576196601549e-10
4.546533196365693e-10
4.619312791090283e-10
4.65178779690351e-10
4.746171736459153e-10
4.809646741348793e-10
4.879139350850728e-10
4.986405348554737e-10
5.074288448350169e-10
5.258776378241189e-10
5.809237560629369e-10
5.078018205438166e-10
-2.891110372637959e-11
5.48574845990376e-11
1.480746473641432e-10
9.798417114279821e-11
1.65830185161879e-10
1.348337325410827e-10
1.815321996383769e-10
1.620100023278953e-10
1.996829263869856e-10
1.8502311677439e-10
2.141957882627239e-10
2.069171292663322e-10
2.292481505684538e-10
2.235740134713639e-10
2.444366581294458e-10
2.422914016799449e-10
2.565307937160769e-10
2.581035227696717e-10
2.724186072931457e-10
2.707798632886166e-10
2.856541594921352e-10
2.878646397363225e-10
2.969032756613688e-10
3.018559337026036e-10
3.127487215598451e-10
3.138610520994758e-10
3.25713497643906e-10
3.300006297685656e-10
3.371518946762997e-10
3.432176695247454e-10
3.523422035940199e-10
3.54542951388039e-10
3.65287490129415e-10
3.697434575563473e-10
3.754113282084596e-10
3.81989021523981e-10
3.900591340575884e-10
3.924041632851433e-10
4.018232655698266e-10
4.066603956049087e-10
4.118587684641259e-10
4.187228428132822e-10
4.260256490383978e-10
4.284489236846846e-10
4.376644568326408e-10
4.427387216425196e-10
4.475313046165719e-10
4.545499624103555e-10
4.618907330532476e-10
4.649773146779064e-10
4.742519772543197e-10
4.806510533736951e-10
4.872052587634952e-10
4.979943268025575e-10
5.07102464208262e-10
5.239568968847797e-10
5.772267187792904e-10
5.26362202424784e-10
-2.596706016982193e-11
4.281325991718707e-11
1.493917165904683e-10
9.450422495146378e-11
1.669216167425066e-10
1.339435351994785e-10
1.823585306588088e-10
1.617610315923192e-10
2.00074331096147e-10
1.853553840358554e-10
2.141352644439187e-10
2.070813761526258e-10
2.29638046020758e-10
2.236131535211512e-10
2.443756776167534e-10
2.427686209419424e-10
2.562843668414626e-10
2.582044994010578e-10
2.725303849417163e-10
2.707997058138581e-10
2.855052195904274e-10
2.880200353101622e-10
2.9686314734139e-10
3.018889057855673e-10
3.128023293521684e-10
3.140059858185711e-10
3.256630972100858e-10
3.301127026883032e-10
3.370584518197516e-10
3.432251078043546e-10
3.523877997390281e-10
3.546461190649948e-10
3.652816913231111e-10
3.698814931419455e-10
3.753700602147501e-10
3.820216473393548e-10
3.90120702929983e-10
3.924658951859846e-10
4.017914269422285e-10
4.067572907520466e-10
4.118222172898081e-10
4.187604255203416e-10
4.260700298655471e-10
4.284374339024857e-10
4.376230647141362e-10
4.428253303344186e-10
4.474118371533823e-10
4.544400840971379e-10
4.618306625175129e-10
4.64801252896111e-10
4.738512280867628e-10
4.802923098574169e-10
4.864785925531706e-10
4.972395169667334e-10
5.065819991159232e-10