/*--------------------------------*- C++ -*----------------------------------*\
| =========                 |                                                 |
| \\      /  F ield         | OpenFOAM: The Open Source CFD Toolbox           |
|  \\    /   O peration     | Version:  v1812                                 |
|   \\  /    A nd           | Web:      www.OpenFOAM.com                      |
|    \\/     M anipulation  |                                                 |
\*---------------------------------------------------------------------------*/
FoamFile
{
    version     2.0;
    format      ascii;
    class       surfaceScalarField;
    location    "20000";
    object      phi;
}
// * * * * * * * * * * * * * * * * * * * * * * * * * * * * * * * * * * * * * //

dimensions      [0 3 -1 0 0 0 0];
oriented        oriented;


internalField   nonuniform List<scalar> 
7417
(
-0.000975585802530777
2.763259420424955e-13
-0.000975585802407276
-1.234845615002614e-13
-0.000975585802441834
3.459467645190463e-14
-0.000975585802445558
3.749612343663697e-15
-0.0009755858024259001
-1.964205296718323e-14
-0.0009755858024483987
2.250134172679232e-14
-0.0009755858024197349
-2.866387484877303e-14
-0.0009755858024431842
2.344215339984038e-14
-0.000975585802415894
-2.730314933207989e-14
-0.0009755858024380528
2.211901295587372e-14
-0.0009755858024147194
-2.332223313612753e-14
-0.0009755858024331485
1.839332733408627e-14
-0.0009755858024139939
-1.914816787111822e-14
-0.000975585802428548
1.458725720807493e-14
-0.0009755858024142324
-1.429522669165266e-14
-0.0009755858024250637
1.084329630477386e-14
-0.0009755858024139682
-1.108709095126956e-14
-0.000975585802422549
8.592453318667356e-15
-0.0009755858024129026
-9.635026684370758e-15
-0.0009755858024199964
7.065926032349761e-15
-0.000975585802412585
-7.370517267685292e-15
-0.0009755858024174279
4.846135993426455e-15
-0.0009755858024119061
-5.520446879170678e-15
-0.0009755858024157089
3.808000151462517e-15
-0.0009755858024101849
-5.523593009953074e-15
-0.0009755858024136954
3.506120924506434e-15
-0.0009755858024096274
-4.076363236445797e-15
-0.0009755858024114816
1.84364945664186e-15
-0.0009755858024083858
-3.099762476119961e-15
-0.0009755858024098627
1.473003382730309e-15
-0.0009755858024059686
-3.891274934726286e-15
-0.0009755858024076883
1.662159407623866e-15
-0.0009755858024043381
-3.286686884989893e-15
-0.00097558580240475
4.268282875634691e-16
-0.0009755858024024259
-2.312287926392531e-15
-0.0009755858024025114
5.731902399901261e-17
-0.0009755858023991769
-3.2972598117936e-15
-0.0009755858023993684
2.014240017722436e-16
-0.0009755858023960675
-3.301750346308396e-15
-0.0009755858023944374
-1.622467486321611e-15
-0.0009755858023908102
-3.642342526738035e-15
-0.0009755858023887799
-2.098583209876328e-15
-0.0009755858023848879
-3.826294187328383e-15
-0.000975585802384031
-8.63209644003609e-16
-0.0009755858023776994
-6.33780299357175e-15
-0.0009755858023755016
-2.200411187863256e-15
-0.000975585802371107
-4.400971898113855e-15
-0.0009755858023650588
-5.996026089589497e-15
-0.0009755858023591011
-6.029090684065678e-15
-0.0009755858023534083
-5.706963853624132e-15
-0.000975585802342193
-1.122870478737446e-14
-0.0009755858023320511
-1.014067998510374e-14
-0.000975585802317602
-1.445196916276393e-14
-0.0009755858022950977
-2.250894318182596e-14
-0.0009755858022675646
-2.754242681287451e-14
-0.0009755858022359524
-3.162332600908629e-14
-0.0009755858021950163
-4.095129667508424e-14
5.705209523799837e-14
-0.001003202067258617
5.476107576352533e-13
-0.001003202067137944
-2.441461957481654e-13
-0.00100320206717496
7.164795340076054e-14
-0.001003202067173726
2.542391981473204e-15
-0.001003202067156334
-3.701734202241991e-14
-0.001003202067173951
4.012183498234712e-14
-0.001003202067146034
-5.658126038734879e-14
-0.001003202067164791
4.219332831366743e-14
-0.001003202067137463
-5.464124559564125e-14
-0.001003202067155522
4.014007931123731e-14
-0.001003202067132047
-4.679668138021725e-14
-0.00100320206714911
3.54174827790826e-14
-0.001003202067130527
-3.772241718117243e-14
-0.00100320206714192
2.601799366693624e-14
-0.001003202067128707
-2.748557078794806e-14
-0.001003202067138251
2.039875435142616e-14
-0.001003202067126474
-2.285476744873971e-14
-0.001003202067134271
1.640326227035146e-14
-0.001003202067125173
-1.871863769004037e-14
-0.001003202067129545
1.141187071618707e-14
-0.001003202067123087
-1.378901258112936e-14
-0.001003202067127323
9.084975470437597e-15
-0.001003202067120492
-1.235005133951106e-14
-0.001003202067123964
7.286619067383812e-15
-0.001003202067118545
-1.093979026969176e-14
-0.001003202067119194
4.149348323071675e-15
-0.001003202067116032
-7.247512468182074e-15
-0.001003202067117195
2.994741733516769e-15
-0.001003202067112726
-7.574346405412699e-15
-0.001003202067114026
2.769020973820884e-15
-0.001003202067110244
-7.670089665521667e-15
-0.001003202067109115
4.822019874435868e-16
-0.001003202067106126
-6.218961636486243e-15
-0.001003202067105618
-6.256865333755926e-17
-0.001003202067101751
-6.165216812780953e-15
-0.001003202067101191
-5.311715411435886e-16
-0.001003202067097901
-6.550275253200916e-15
-0.001003202067094949
-2.742640229166052e-15
-0.001003202067091651
-6.60072703245506e-15
-0.001003202067088651
-4.615074040243652e-15
-0.001003202067082012
-1.029801191797704e-14
-0.001003202067077606
-6.569857958105427e-15
-0.00100320206707048
-1.089000913400138e-14
-0.001003202067067447
-3.903742576324799e-15
-0.0010032020670591
-1.469392408481101e-14
-0.001003202067052037
-9.265755485455352e-15
-0.001003202067045256
-1.118850326945956e-14
-0.001003202067034991
-1.622023260512538e-14
-0.00100320206702436
-1.672497834507131e-14
-0.001003202067013943
-1.614170122025398e-14
-0.001003202066997692
-2.749434434592534e-14
-0.001003202066979057
-2.877386795949135e-14
-0.00100320206695898
-3.45311354825613e-14
-0.001003202066929961
-5.153444739219932e-14
-0.001003202066896613
-6.090290377488364e-14
-0.001003202066865108
-6.313962142688599e-14
-0.001003202066858269
-4.780540066927888e-14
1.860584614330052e-13
-0.001045498879241535
8.495975017256152e-13
-0.001045498879131494
-3.541698165764096e-13
-0.001045498879167369
1.075575150346172e-13
-0.001045498879166653
1.850235456343559e-15
-0.001045498879145994
-5.766171050406043e-14
-0.001045498879164313
5.844216547915172e-14
-0.001045498879132028
-8.886613112043281e-14
-0.001045498879150625
6.078207389145128e-14
-0.001045498879116477
-8.880227825901723e-14
-0.001045498879132158
5.578527156067403e-14
-0.001045498879099551
-7.938960202141568e-14
-0.001045498879119901
5.573640652817109e-14
-0.001045498879102472
-5.514711881999943e-14
-0.001045498879109702
3.327637253597421e-14
-0.001045498879095563
-4.160594975489144e-14
-0.001045498879109846
3.469310048249654e-14
-0.001045498879091054
-4.1639129063486e-14
-0.001045498879100292
2.565040707882249e-14
-0.001045498879093904
-2.50975632039598e-14
-0.001045498879092621
1.010719455684903e-14
-0.001045498879086055
-2.032144419514923e-14
-0.001045498879094537
1.757079546488868e-14
-0.001045498879081318
-2.556783116288845e-14
-0.001045498879085174
1.11465150975365e-14
-0.001045498879083221
-1.289404214742975e-14
-0.001045498879078042
-1.032781684591475e-15
-0.001045498879075205
-1.00920551242183e-14
-0.001045498879079745
7.526195865220477e-15
-0.00104549887906805
-1.927278998730856e-14
-0.001045498879070166
4.881396503287557e-15
-0.001045498879070032
-7.802488734545755e-15
-0.001045498879062725
-6.873617767241975e-15
-0.001045498879060939
-7.949381163455083e-15
-0.001045498879063128
2.139039909727492e-15
-0.001045498879053288
-1.599545681272427e-14
-0.00104549887905373
-1.10821600568055e-16
-0.001045498879054181
-6.069477657435174e-15
-0.001045498879044652
-1.226111397803643e-14
-0.001045498879042903
-8.35043577537613e-15
-0.001045498879043892
-3.61860790113024e-15
-0.001045498879033602
-2.060105361972295e-14
-0.001045498879026561
-1.366815226558799e-14
-0.00104549887901331
-2.408705926818113e-14
-0.001045498879010075
-7.144576284813107e-15
-0.001045498879003962
-2.081130157139229e-14
-0.001045498878987671
-2.555803103783847e-14
-0.001045498878980963
-1.790303696859382e-14
-0.001045498878971984
-2.515260103651035e-14
-0.001045498878954615
-3.415559848394665e-14
-0.00104549887894401
-2.67586918862853e-14
-0.001045498878932666
-3.885081118491255e-14
-0.001045498878908794
-5.264546987592472e-14
-0.001045498878894043
-4.928530876854013e-14
-0.001045498878875331
-7.025025170321319e-14
-0.00104549887885288
-8.336075835758676e-14
-0.00104549887884035
-7.567922921183327e-14
-0.001045498878830518
-5.76513605591703e-14
2.951119214030023e-13
-0.001083466315904512
1.148274570454996e-12
-0.001083466315813929
-4.44742016133519e-13
-0.001083466315843427
1.370912440986722e-13
-0.001083466315845953
4.403343898467413e-15
-0.001083466315824007
-7.959146094327864e-14
-0.001083466315842793
7.723247719414198e-14
-0.001083466315810909
-1.207507882970109e-13
-0.001083466315829458
7.932292924675441e-14
-0.001083466315793024
-1.252478288324351e-13
-0.001083466315806047
6.877459560312949e-14
-0.001083466315770369
-1.150694079735514e-13
-0.001083466315790917
7.624670525737838e-14
-0.001083466315776473
-6.958250243287702e-14
-0.001083466315778698
3.553968899338348e-14
-0.001083466315765491
-5.479044991225079e-14
-0.001083466315782183
5.139673244842483e-14
-0.001083466315760642
-6.316994091045927e-14
-0.001083466315769434
3.445624052765516e-14
-0.001083466315765145
-2.937283499851329e-14
-0.00108346631576016
5.10137662441578e-15
-0.001083466315754278
-2.616979518259973e-14
-0.001083466315764643
2.793811354149021e-14
-0.001083466315749672
-4.053642065128934e-14
-0.00108346631575298
1.446140465929483e-14
-0.001083466315753393
-1.247946665420917e-14
-0.001083466315745237
-9.194518531073905e-15
-0.00108346631574188
-1.345900668029965e-14
-0.001083466315747406
1.303969870093408e-14
-0.001083466315734076
-3.260846102452139e-14
-0.001083466315734781
5.583648783283631e-15
-0.001083466315736924
-5.655985446320128e-15
-0.001083466315726254
-1.758571139213288e-14
-0.001083466315725999
-8.156355987507291e-15
-0.001083466315730724
6.882449769317449e-15
-0.001083466315716835
-2.98706599424315e-14
-0.001083466315717582
6.131254105698611e-16
-0.001083466315721709
-1.910797125119057e-15
-0.001083466315709032
-2.492999862509637e-14
-0.001083466315709044
-8.339849823953166e-15
-0.001083466315713265
6.107958558873923e-16
-0.001083466315703111
-3.077188812057069e-14
-0.00108346631569474
-2.209636391503992e-14
-0.001083466315680164
-3.861147975804044e-14
-0.001083466315675936
-1.138007114151257e-14
-0.001083466315675824
-2.093191411662469e-14
-0.001083466315658212
-4.317289213377317e-14
-0.001083466315653224
-2.289810956347449e-14
-0.001083466315648425
-2.991916930007174e-14
-0.001083466315631103
-5.153458668874889e-14
-0.001083466315622252
-3.562840638966486e-14
-0.001083466315616752
-4.43667307898674e-14
-0.001083466315595294
-7.410233151884369e-14
-0.001083466315584931
-5.964921597852132e-14
-0.001083466315573456
-8.173145814894392e-14
-0.001083466315556767
-1.000622278456514e-13
-0.001083466315547028
-8.54287553950948e-14
-0.001083466315522909
-8.178619049030403e-14
3.77996287389459e-13
-0.001115765554606967
1.415782801090626e-12
-0.001115765554528829
-5.228635375542462e-13
-0.001115765554550446
1.587371741383658e-13
-0.001115765554556567
1.054423114472236e-14
-0.001115765554535432
-1.00713911542309e-13
-0.001115765554553801
9.560234128893387e-14
-0.001115765554524731
-1.498223718507936e-13
-0.001115765554545459
1.000430245269495e-13
-0.001115765554511611
-1.591092154716317e-13
-0.001115765554526771
8.390852941086075e-14
-0.001115765554501489
-1.403377183164125e-13
-0.001115765554518079
9.281355495803819e-14
-0.001115765554500174
-8.748584536979621e-14
-0.001115765554507199
4.258481418746328e-14
-0.001115765554493295
-6.86797446209961e-14
-0.001115765554503668
6.177968615667519e-14
-0.001115765554488158
-7.867392541577781e-14
-0.001115765554494608
4.091300272116798e-14
-0.001115765554487602
-3.637285118592184e-14
-0.001115765554488638
6.123670987423263e-15
-0.001115765554482043
-3.274178796478671e-14
-0.001115765554485876
3.177479791424069e-14
-0.001115765554477365
-4.904630878657714e-14
-0.001115765554479005
1.610385443236592e-14
-0.001115765554476803
-1.468442833394574e-14
-0.001115765554473843
-1.215620159068177e-14
-0.001115765554469901
-1.740732151602668e-14
-0.001115765554470307
1.343940047816246e-14
-0.001115765554464361
-3.855691113939672e-14
-0.001115765554462393
3.612291482714815e-15
-0.001115765554460781
-7.26609810281296e-15
-0.00111576555445604
-2.236190956266228e-14
-0.001115765554453752
-1.040356466830708e-14
-0.001115765554453224
6.36171852305414e-15
-0.001115765554446744
-3.634343585990052e-14
-0.0011157655544445
-1.644023777384599e-15
-0.001115765554444661
-1.729425361534188e-15
-0.001115765554438609
-3.097260366670003e-14
-0.001115765554436767
-1.018149307679562e-14
-0.001115765554434888
-1.262579155335505e-15
-0.001115765554429956
-3.571417505306218e-14
-0.00111576555442298
-2.911078461585749e-14
-0.001115765554416321
-4.523534858758031e-14
-0.00111576555441128
-1.642435630568267e-14
-0.00111576555440977
-2.244409766811338e-14
-0.00111576555440098
-5.196408569693538e-14
-0.001115765554397322
-2.65618525986295e-14
-0.001115765554391288
-3.591869339907058e-14
-0.001115765554382726
-6.014192365224661e-14
-0.001115765554374945
-4.34169972736581e-14
-0.001115765554368241
-5.107993184012643e-14
-0.001115765554356022
-8.632223323567651e-14
-0.001115765554346982
-6.869395119100483e-14
-0.001115765554333655
-9.506014471254118e-14
-0.001115765554326013
-1.077080466631931e-13
-0.001115765554313233
-9.821665269627161e-14
-0.001115765554275727
-1.193041671388568e-13
4.417684707626127e-13
-0.001146107456551182
1.627446103546528e-12
-0.001146107456489312
-5.847254205302049e-13
-0.001146107456504239
1.736943995105495e-13
-0.001146107456510721
1.705032703958454e-14
-0.001146107456492874
-1.185464447847361e-13
-0.00114610745650877
1.115015824141123e-13
-0.001146107456482704
-1.758907087879269e-13
-0.001146107456504279
1.216090669241898e-13
-0.00114610745647669
-1.867103476435929e-13
-0.001146107456492986
1.001785240028306e-13
-0.001146107456481545
-1.517819260750068e-13
-0.001146107456493082
1.04319290985417e-13
-0.00114610745647082
-1.097395394100534e-13
-0.001146107456484635
5.643171151749473e-14
-0.001146107456471124
-8.216929216748221e-14
-0.001146107456473309
6.397498423483192e-14
-0.001146107456466895
-8.50781018504169e-14
-0.001146107456470722
4.475203482894153e-14
-0.001146107456460252
-4.68315848403008e-14
-0.001146107456467079
1.293678398139776e-14
-0.001146107456460294
-3.950183921479343e-14
-0.001146107456457258
2.874096920789687e-14
-0.001146107456456374
-4.992767993727253e-14
-0.001146107456455851
1.558674218028682e-14
-0.00114610745644953
-2.100462259935357e-14
-0.001146107456452412
-9.279145417305655e-15
-0.001146107456448973
-2.085628281394898e-14
-0.001146107456443822
8.276991508510897e-15
-0.001146107456445203
-3.718114586998874e-14
-0.001146107456441941
3.476565566461078e-16
-0.001146107456436241
-1.296395313103277e-14
-0.001146107456437731
-2.089964450987938e-14
-0.00114610745643401
-1.40884349996292e-14
-0.001146107456427102
-5.319350596049549e-16
-0.001146107456429863
-3.356859706153888e-14
-0.001146107456425186
-6.336875123243556e-15
-0.00114610745641977
-7.121923460729115e-15
-0.001146107456420794
-2.994354167908766e-14
-0.001146107456417248
-1.372769136448701e-14
-0.001146107456408433
-1.007032062425689e-14
-0.001146107456408491
-3.566895982477842e-14
-0.001146107456403772
-3.38719349696964e-14
-0.001146107456406594
-4.237961341976554e-14
-0.001146107456402215
-2.08101906883286e-14
-0.001146107456395652
-2.901390904106231e-14
-0.00114610745639574
-5.187936158452686e-14
-0.001146107456393479
-2.882905086244864e-14
-0.001146107456384131
-4.524743411558821e-14
-0.001146107456384565
-5.974965165222458e-14
-0.001146107456378321
-4.96786773088036e-14
-0.001146107456369445
-5.997100096820143e-14
-0.001146107456365942
-8.982423371364267e-14
-0.001146107456359061
-7.55761346559677e-14
-0.001146107456343326
-1.108008247446369e-13
-0.001146107456343129
-1.079149751129531e-13
-0.001146107456330448
-1.109068784381017e-13
-0.001146107456292544
-1.572233447035958e-13
4.887132556806641e-13
-0.001182243918495395
1.758775120392556e-12
-0.001182243918462087
-6.180199178667718e-13
-0.001182243918477629
1.892572629821421e-13
-0.001182243918481273
2.070936767847025e-14
-0.001182243918465175
-1.346355610400374e-13
-0.001182243918478944
1.252703621565211e-13
-0.001182243918458156
-1.96679839460374e-13
-0.001182243918472217
1.356626342847984e-13
-0.001182243918455428
-2.03510498889765e-13
-0.001182243918471986
1.167210320797653e-13
-0.001182243918461551
-1.622038806310852e-13
-0.001182243918467742
1.104965040634327e-13
-0.001182243918450143
-1.273387371341839e-13
-0.001182243918463437
6.973624904072693e-14
-0.001182243918451896
-9.370110664920426e-14
-0.001182243918451085
6.317172566157249e-14
-0.001182243918450095
-8.606381815262001e-14
-0.001182243918450948
4.560809741614422e-14
-0.001182243918441286
-5.649055657469086e-14
-0.001182243918448476
2.012053561322442e-14
-0.001182243918442321
-4.564484891138952e-14
-0.001182243918437737
2.416046909304399e-14
-0.001182243918440954
-4.670941821125601e-14
-0.001182243918438201
1.283404324316132e-14
-0.00118224391843182
-2.738956013413171e-14
-0.00118224391843637
-4.73051616204885e-15
-0.001182243918433116
-2.411354285217646e-14
-0.001182243918426609
1.765957027016618e-15
-0.001182243918431474
-3.231704329889399e-14
-0.001182243918426837
-4.291659869820848e-15
-0.001182243918421364
-1.843598799002483e-14
-0.001182243918424422
-1.786175625306909e-14
-0.001182243918420812
-1.767365549320378e-14
-0.001182243918413119
-8.221307931380341e-15
-0.00118224391841919
-2.749431801898121e-14
-0.001182243918413393
-1.213812082773429e-14
-0.001182243918407906
-1.259959828631121e-14
-0.001182243918410729
-2.711283035938637e-14
-0.001182243918406971
-1.748528504309453e-14
-0.001182243918397662
-1.937507671927974e-14
-0.001182243918400924
-3.2414072266133e-14
-0.001182243918398095
-3.672050526167865e-14
-0.001182243918405055
-3.540102416056396e-14
-0.001182243918400903
-2.496500383856507e-14
-0.001182243918394658
-3.525917783379027e-14
-0.001182243918398817
-4.772075899613201e-14
-0.0011822439183974
-3.025038009885507e-14
-0.001182243918388952
-5.367179134919151e-14
-0.001182243918394588
-5.414139637696905e-14
-0.001182243918389761
-5.450915917141634e-14
-0.001182243918383218
-6.651937665396441e-14
-0.001182243918385064
-8.798072916413772e-14
-0.001182243918380848
-7.979619381226729e-14
-0.001182243918368073
-1.23576719600632e-13
-0.001182243918371045
-1.04943537212011e-13
-0.00118224391836163
-1.203278151795503e-13
-0.001182243918338239
-1.806229384206701e-13
5.145913891820786e-13
-0.001237751065373961
1.802467025484706e-12
-0.001237751065365293
-6.266828016147823e-13
-0.001237751065384923
2.089106175133539e-13
-0.001237751065382766
1.857125130107896e-14
-0.001237751065371556
-1.458337509913087e-13
-0.001237751065380876
1.345928658619386e-13
-0.001237751065365802
-2.117560197213901e-13
-0.00123775106537307
1.429213089986155e-13
-0.001237751065363971
-2.126217715819376e-13
-0.001237751065377295
1.300266719603761e-13
-0.001237751065365611
-1.738916104236349e-13
-0.001237751065368228
1.130929181857131e-13
-0.001237751065357559
-1.380018376383014e-13
-0.001237751065366375
7.857656258959146e-14
-0.001237751065357173
-1.028860514970048e-13
-0.001237751065356916
6.292413285412684e-14
-0.001237751065356933
-8.603876357792376e-14
-0.001237751065355413
4.409680933269219e-14
-0.001237751065349802
-6.209342931686855e-14
-0.001237751065354378
2.469036484221474e-14
-0.00123775106534941
-5.059848002625137e-14
-0.001237751065346235
2.098777034169596e-14
-0.001237751065349864
-4.307701975782561e-14
-0.001237751065345614
8.586996732262965e-15
-0.00123775106534272
-3.028293685762348e-14
-0.001237751065345575
-1.879265731873878e-15
-0.001237751065342778
-2.691858392308588e-14
-0.001237751065337997
-3.025379546575685e-15
-0.001237751065342768
-2.755003935508302e-14
-0.001237751065337143
-9.920045759773704e-15
-0.001237751065334843
-2.073287336198087e-14
-0.001237751065336471
-1.624820980247951e-14
-0.001237751065333594
-2.052748561684889e-14
-0.00123775106532823
-1.357466100102588e-14
-0.00123775106533378
-2.193353071814784e-14
-0.001237751065327721
-1.820552017828432e-14
-0.001237751065325697
-1.4609213411778e-14
-0.001237751065327299
-2.550702584000109e-14
-0.001237751065324517
-2.026713989431962e-14
-0.001237751065318595
-2.529160706898708e-14
-0.001237751065323169
-2.78484193292611e-14
-0.001237751065321317
-3.860008387626641e-14
-0.001237751065328291
-2.840955483782266e-14
-0.001237751065324471
-2.879035679636038e-14
-0.001237751065322292
-3.744324995915518e-14
-0.001237751065326248
-4.376710586022629e-14
-0.001237751065325934
-3.057088178759535e-14
-0.00123775106532127
-5.832706951617784e-14
-0.001237751065328235
-4.720391995370188e-14
-0.001237751065324905
-5.785351142943865e-14
-0.001237751065323429
-6.800859464983344e-14
-0.001237751065326902
-8.450833903015246e-14
-0.001237751065325502
-8.119807531277589e-14
-0.001237751065318827
-1.302551342124182e-13
-0.001237751065322641
-1.011372964293202e-13
-0.001237751065316948
-1.260283212670438e-13
-0.001237751065315864
-1.81720296083925e-13
5.289733368871666e-13
-0.001332423617692749
1.773162024235085e-12
-0.001332423617696681
-6.227403874312302e-13
-0.001332423617720563
2.328069036806139e-13
-0.001332423617712091
1.010933404870902e-14
-0.001332423617707494
-1.504260681947171e-13
-0.001332423617711398
1.38495931633147e-13
-0.001332423617700416
-2.227383851132617e-13
-0.00133242361770469
1.47189765974357e-13
-0.001332423617698573
-2.1874674351243e-13
-0.001332423617707041
1.384871805008937e-13
-0.001332423617696645
-1.842773413737781e-13
-0.001332423617698005
1.144464865835589e-13
-0.001332423617691422
-1.445871771143774e-13
-0.001332423617696143
8.330083314715322e-14
-0.001332423617689277
-1.097471482208826e-13
-0.001332423617689877
6.352935247450452e-14
-0.001332423617689364
-8.65503058177762e-14
-0.001332423617686959
4.169335829724055e-14
-0.001332423617684912
-6.41416423846811e-14
-0.001332423617686435
2.6212596885117e-14
-0.001332423617683266
-5.37622540405495e-14
-0.001332423617681443
1.916761665651936e-14
-0.00133242361768426
-4.025951019329727e-14
-0.001332423617679751
4.076462699644716e-15
-0.001332423617680078
-2.995879172653087e-14
-0.001332423617680388
-1.570389841954265e-15
-0.001332423617678852
-2.845559866496195e-14
-0.001332423617675722
-6.156793109374053e-15
-0.001332423617679341
-2.393076153703079e-14
-0.001332423617673751
-1.551218748791995e-14
-0.001332423617674408
-2.007508466995542e-14
-0.00133242361767388
-1.67862150615322e-14
-0.00133242361767246
-2.19346957617888e-14
-0.001332423617669224
-1.681062745357427e-14
-0.001332423617673435
-1.772196426183707e-14
-0.001332423617668053
-2.358720984057462e-14
-0.001332423617669308
-1.335150144546427e-14
-0.001332423617669163
-2.564624502098428e-14
-0.001332423617668268
-2.116078190009052e-14
-0.001332423617665532
-2.802563810166403e-14
-0.00133242361767023
-2.315496481701122e-14
-0.001332423617668684
-4.015305288624611e-14
-0.001332423617674622
-2.246544808780688e-14
-0.001332423617671695
-3.171768786881941e-14
-0.00133242361767313
-3.600805201190209e-14
-0.001332423617675616
-4.128082401594586e-14
-0.001332423617677029
-2.916103329839768e-14
-0.001332423617675518
-5.982364351891701e-14
-0.001332423617682235
-4.05011074832967e-14
-0.001332423617680715
-5.937355141859051e-14
-0.001332423617683321
-6.5405387205209e-14
-0.001332423617686689
-8.114265623512655e-14
-0.001332423617688156
-7.9736118737186e-14
-0.001332423617686537
-1.318738548049312e-13
-0.001332423617690382
-9.729132089885014e-14
-0.001332423617687951
-1.284622150842123e-13
-0.001332423617707514
-1.621607180371451e-13
5.435596958428271e-13
-0.001490171855125044
1.693691660431027e-12
-0.001490171855135883
-6.118975412924307e-13
-0.001490171855163161
2.601014729682385e-13
-0.001490171855150415
-2.62115176012724e-15
-0.001490171855150319
-1.505129630096679e-13
-0.001490171855150372
1.385505867951123e-13
-0.001490171855141716
-2.313971221487215e-13
-0.001490171855144815
1.502792989292644e-13
-0.001490171855138913
-2.246604017413262e-13
-0.001490171855144138
1.436995222066563e-13
-0.001490171855135072
-1.933450672285755e-13
-0.001490171855136291
1.156513676210906e-13
-0.001490171855131433
-1.494409684965444e-13
-0.001490171855133631
8.551581314315559e-14
-0.001490171855128573
-1.147916614765181e-13
-0.001490171855129539
6.450422775765018e-14
-0.001490171855128515
-8.756831396998778e-14
-0.00149017185512607
3.925517281785643e-14
-0.001490171855126173
-6.403273034284748e-14
-0.001490171855125558
2.559590886728851e-14
-0.001490171855124163
-5.51491410418712e-14
-0.001490171855122891
1.789831255730079e-14
-0.001490171855125217
-3.793083750409223e-14
-0.001490171855120949
-1.895094754996849e-16
-0.001490171855123314
-2.759428068826045e-14
-0.001490171855121718
-3.169116928249091e-15
-0.001490171855121703
-2.84779777366328e-14
-0.001490171855119323
-8.544856354850665e-15
-0.001490171855122264
-2.099380126089382e-14
-0.001490171855117105
-2.067289704138046e-14
-0.001490171855119694
-1.748334480916315e-14
-0.001490171855117601
-1.888528332299268e-14
-0.001490171855117789
-2.173166925122637e-14
-0.001490171855115645
-1.894708662071905e-14
-0.001490171855119177
-1.418193997107652e-14
-0.001490171855114731
-2.80371692206816e-14
-0.001490171855118151
-9.922688811788154e-15
-0.001490171855116906
-2.688817055677159e-14
-0.001490171855117952
-2.011462324473371e-14
-0.001490171855116971
-2.900201007766911e-14
-0.001490171855121684
-1.84483061425107e-14
-0.001490171855120226
-4.162724482928654e-14
-0.001490171855125499
-1.718550069761247e-14
-0.001490171855123658
-3.356358993473434e-14
-0.001490171855127311
-3.235927110490776e-14
-0.001490171855128714
-3.987952083223462e-14
-0.001490171855131955
-2.59261789867203e-14
-0.001490171855132177
-5.959948192764098e-14
-0.001490171855138706
-3.399057572428829e-14
-0.001490171855138854
-5.923709242555307e-14
-0.001490171855143857
-6.041370216946279e-14
-0.001490171855146943
-7.805880720033824e-14
-0.001490171855150786
-7.589500694218593e-14
-0.001490171855152058
-1.306037724770246e-13
-0.001490171855155856
-9.349817905619619e-14
-0.001490171855155899
-1.284254488168781e-13
-0.001490171855189585
-1.284870933015038e-13
5.58475460838044e-13
-0.001734334732584215
1.591702391140017e-12
-0.001734334732603674
-5.924287441765698e-13
-0.001734334732631629
2.880669003211334e-13
-0.001734334732617971
-1.627196700727708e-14
-0.001734334732618804
-1.496764441814626e-13
-0.001734334732617772
1.375174605762243e-13
-0.001734334732609097
-2.400723913187541e-13
-0.001734334732612488
1.536662228821502e-13
-0.001734334732604943
-2.322112256610038e-13
-0.001734334732609321
1.480729411817198e-13
-0.00173433473260031
-2.023475919652871e-13
-0.001734334732602159
1.174973631595772e-13
-0.001734334732597372
-1.542298275033513e-13
-0.001734334732598594
8.673662912289688e-14
-0.001734334732594535
-1.188480910558315e-13
-0.001734334732595694
6.566712043080768e-14
-0.001734334732594428
-8.883258758032399e-14
-0.001734334732592333
3.715989970904985e-14
-0.001734334732593499
-6.28674674765993e-14
-0.001734334732591795
2.38927220485358e-14
-0.001734334732591831
-5.511054317319381e-14
-0.001734334732590615
1.668438353148131e-14
-0.001734334732593071
-3.547489700725218e-14
-0.001734334732589075
-4.186651308209441e-15
-0.001734334732592687
-2.398508190998721e-14
-0.001734334732590027
-5.83059412650521e-15
-0.001734334732591438
-2.706698374794915e-14
-0.00173433473258916
-1.082210689688228e-14
-0.00173433473259218
-1.797438781887788e-14
-0.001734334732587414
-2.543907489159319e-14
-0.00173433473259124
-1.365737473261141e-14
-0.001734334732588354
-2.177606819791923e-14
-0.001734334732590013
-2.006619754143002e-14
-0.001734334732588231
-2.073100791701414e-14
-0.0017343347325919
-1.051262181765926e-14
-0.001734334732588273
-3.166162774926511e-14
-0.001734334732593086
-5.110475859217437e-15
-0.001734334732591425
-2.854414698583156e-14
-0.001734334732594106
-1.743383480815392e-14
-0.001734334732593792
-2.93145333745954e-14
-0.001734334732598645
-1.359891915345114e-14
-0.001734334732597173
-4.310007740615667e-14
-0.00173433473260254
-1.181754961186843e-14
-0.001734334732601724
-3.438011561349107e-14
-0.001734334732606494
-2.758765658315734e-14
-0.001734334732607486
-3.888693409798446e-14
-0.001734334732612279
-2.113702539859618e-14
-0.001734334732613132
-5.873708542977892e-14
-0.001734334732619875
-2.725423811032528e-14
-0.001734334732621227
-5.788407858562593e-14
-0.001734334732627271
-5.437178447323611e-14
-0.00173433473263014
-7.519186429093054e-14
-0.001734334732635475
-7.056484991700256e-14
-0.001734334732637523
-1.285550727506314e-13
-0.001734334732640873
-9.014738015491559e-14
-0.001734334732642493
-1.268066818542454e-13
-0.001734334732681447
-8.953506808804539e-14
5.632748841843724e-13
-0.002079962878153741
1.503105604788182e-12
-0.002079962878185666
-5.605000193636898e-13
-0.0020799628782096
3.120153503362985e-13
-0.002079962878199961
-2.58992250024446e-14
-0.002079962878197042
-1.525878088228486e-13
-0.002079962878198603
1.390788726378184e-13
-0.0020799628781868
-2.518789000167213e-13
-0.00207996287819248
1.593373681337071e-13
-0.002079962878181409
-2.432933393310997e-13
-0.002079962878187417
1.540724282742407e-13
-0.002079962878176676
-2.130893901698606e-13
-0.002079962878180124
1.209373892767784e-13
-0.002079962878174082
-1.602695339358828e-13
-0.002079962878175757
8.842293396272596e-14
-0.00207996287817176
-1.228355781098433e-13
-0.002079962878173403
6.731804779877102e-14
-0.002079962878172027
-9.020398100465926e-14
-0.002079962878170526
3.566492882752002e-14
-0.002079962878172151
-6.123835341105279e-14
-0.002079962878170302
2.204434933312083e-14
-0.002079962878171322