/*--------------------------------*- C++ -*----------------------------------*\
| =========                 |                                                 |
| \\      /  F ield         | OpenFOAM: The Open Source CFD Toolbox           |
|  \\    /   O peration     | Version:  v1812                                 |
|   \\  /    A nd           | Web:      www.OpenFOAM.com                      |
|    \\/     M anipulation  |                                                 |
\*---------------------------------------------------------------------------*/
FoamFile
{
    version     2.0;
    format      ascii;
    class       volVectorField;
    location    "20000";
    object      U;
}
// * * * * * * * * * * * * * * * * * * * * * * * * * * * * * * * * * * * * * //

dimensions      [0 1 -1 0 0 0 0];


internalField   nonuniform List<vector> 
3770
(
(-1.02965304865711 7.313007870345754e-12 -1.295981786376684e-06)
(-1.029653048600721 -3.894137737953223e-12 -1.295985582328877e-06)
(-1.029653048621568 1.307661978855503e-12 -1.295963889232045e-06)
(-1.029653048619857 -3.310767166597879e-14 -1.295983985327415e-06)
(-1.029653048617395 -4.922970164428173e-13 -1.295965289617912e-06)
(-1.029653048615397 6.811240763410626e-13 -1.295982212951639e-06)
(-1.029653048617566 -8.174149905734463e-13 -1.295965978131393e-06)
(-1.029653048605483 7.567562936482623e-13 -1.295981146110275e-06)
(-1.029653048616497 -7.990822129976712e-13 -1.29596614175651e-06)
(-1.029653048596732 7.071193072336289e-13 -1.295980471477594e-06)
(-1.029653048617373 -6.904208957317713e-13 -1.295966030724198e-06)
(-1.029653048589823 5.848216718910526e-13 -1.295980013231883e-06)
(-1.029653048618332 -5.804431246512383e-13 -1.295965771110733e-06)
(-1.029653048583321 4.751579576684638e-13 -1.295979680131983e-06)
(-1.029653048618485 -4.40131338217496e-13 -1.295965433650726e-06)
(-1.029653048579972 3.518119564819748e-13 -1.295979418654196e-06)
(-1.029653048618114 -3.213950764813755e-13 -1.295965062924133e-06)
(-1.029653048576944 2.798031663680103e-13 -1.295979194803784e-06)
(-1.029653048617665 -3.001842678414991e-13 -1.295964688328299e-06)
(-1.029653048573944 2.492401121153959e-13 -1.295978987304656e-06)
(-1.029653048616651 -2.270849411433666e-13 -1.295964329033178e-06)
(-1.029653048572109 1.598099636559719e-13 -1.295978783553455e-06)
(-1.029653048615561 -1.513054997512611e-13 -1.295963997538156e-06)
(-1.029653048570011 1.294358001821556e-13 -1.295978576462707e-06)
(-1.029653048614489 -1.59849071655397e-13 -1.295963701801597e-06)
(-1.029653048567636 1.369857617780965e-13 -1.295978363191562e-06)
(-1.029653048612813 -1.327156635219402e-13 -1.295963446349585e-06)
(-1.029653048566758 7.355465517767894e-14 -1.295978143717229e-06)
(-1.029653048610866 -7.464838302970318e-14 -1.295963233799215e-06)
(-1.029653048565232 5.744760422392775e-14 -1.295977919209174e-06)
(-1.029653048608735 -1.108500957041102e-13 -1.2959630653176e-06)
(-1.029653048562944 8.659425113475584e-14 -1.295977691888166e-06)
(-1.029653048606225 -9.819693806150526e-14 -1.295962940602133e-06)
(-1.029653048561104 3.305279016204084e-14 -1.295977464259332e-06)
(-1.029653048603421 -5.094078506501053e-14 -1.295962858394418e-06)
(-1.029653048559051 2.194038046491621e-14 -1.295977237926892e-06)
(-1.029653048600368 -8.410806407283427e-14 -1.295962816060893e-06)
(-1.029653048556241 5.222744271545246e-14 -1.295977013313403e-06)
(-1.02965304859619 -8.358713366987352e-14 -1.295962808699882e-06)
(-1.029653048552881 -2.867377880631852e-15 -1.295976788623866e-06)
(-1.029653048590256 -6.399534023242402e-14 -1.295962828616371e-06)
(-1.029653048547047 -1.890144325092717e-14 -1.295976557997416e-06)
(-1.029653048584342 -6.547202531841412e-14 -1.295962863825341e-06)
(-1.029653048541384 1.516654961168129e-14 -1.295976310330891e-06)
(-1.029653048578423 -1.368910797343345e-13 -1.295962895529879e-06)
(-1.02965304853245 1.1319462559998e-14 -1.295976026029402e-06)
(-1.029653048570972 -7.660553865355129e-14 -1.29596289475941e-06)
(-1.029653048524049 -8.601742825956357e-14 -1.295975673039951e-06)
(-1.02965304855772 -8.359417364462724e-14 -1.295962817101082e-06)
(-1.029653048513266 -6.358094239169336e-14 -1.295975198198512e-06)
(-1.029653048542311 -2.061408393705616e-13 -1.295962592850805e-06)
(-1.029653048493349 -1.20149862660775e-13 -1.295974517736847e-06)
(-1.029653048518009 -2.675928961753008e-13 -1.295962079585265e-06)
(-1.02965304846325 -4.415262550350512e-13 -1.295973423650853e-06)
(-1.029653048476674 -5.25189726814999e-13 -1.295961307203159e-06)
(-1.029653048397969 -7.345997719767307e-13 -1.295971585182997e-06)
(-1.02965304835633 -1.682734357973462e-12 -1.295955807995273e-06)
(-1.029653048368234 5.303481706818991e-13 -1.295971946721237e-06)
(-1.05866958013331 1.801631363084331e-11 -2.683241575974168e-06)
(-1.05866958000801 -7.722279045103329e-12 -2.683253932741729e-06)
(-1.058669580068922 2.022361937099847e-12 -2.683220287652824e-06)
(-1.058669580040972 3.500771651853628e-13 -2.683254033833372e-06)
(-1.058669580055893 -1.288967210407615e-12 -2.683220428187941e-06)
(-1.058669580035702 1.405492885109448e-12 -2.683252158426987e-06)
(-1.058669580053002 -1.809782117704426e-12 -2.683220708039239e-06)
(-1.058669580019592 1.430833402690842e-12 -2.683250681331521e-06)
(-1.058669580049812 -1.697702605114764e-12 -2.683220533439726e-06)
(-1.058669580003239 1.359790425303098e-12 -2.683249636035409e-06)
(-1.058669580049105 -1.432879717676482e-12 -2.683220028605922e-06)
(-1.058669579989508 1.091155313929351e-12 -2.683248875786907e-06)
(-1.058669580053029 -1.215366823926118e-12 -2.683219331937884e-06)
(-1.05866957997898 9.011326724694008e-13 -2.683248285374664e-06)
(-1.058669580051227 -9.051544436079565e-13 -2.683218541587486e-06)
(-1.058669579973808 6.412603737721835e-13 -2.683247786966806e-06)
(-1.058669580051727 -6.406685651820422e-13 -2.68321772528488e-06)
(-1.058669579966199 4.913076022641503e-13 -2.683247329216168e-06)
(-1.058669580052481 -6.233852066012273e-13 -2.683216927977701e-06)
(-1.058669579961679 4.600119582284816e-13 -2.683246880921503e-06)
(-1.058669580048195 -4.784778237527071e-13 -2.683216178485056e-06)
(-1.058669579959721 2.643625840320292e-13 -2.68324642433337e-06)
(-1.058669580047572 -3.120228212467129e-13 -2.683215495718668e-06)
(-1.05866957995339 2.048221568333726e-13 -2.683245950463067e-06)
(-1.058669580047197 -3.454904505512829e-13 -2.683214890853346e-06)
(-1.05866957994981 2.364095684962004e-13 -2.683245457753949e-06)
(-1.058669580040887 -2.811534984693646e-13 -2.683214369715968e-06)
(-1.058669579949647 9.433219044304747e-14 -2.683244948661508e-06)
(-1.058669580038389 -1.458109829506958e-13 -2.683213936105264e-06)
(-1.058669579944454 4.313478498119533e-14 -2.68324442735518e-06)
(-1.058669580036686 -2.695464095893834e-13 -2.683213591182508e-06)
(-1.058669579941491 1.206338199764032e-13 -2.683243900359008e-06)
(-1.058669580029114 -2.356658087789299e-13 -2.68321333389982e-06)
(-1.058669579939601 -3.305039959659418e-15 -2.683243374130421e-06)
(-1.05866958002494 -1.239664389714014e-13 -2.683213162793418e-06)
(-1.058669579933853 -3.075865993865738e-14 -2.683242853717092e-06)
(-1.058669580021018 -2.125407030282107e-13 -2.683213073926072e-06)
(-1.05866957993049 6.47935263405553e-15 -2.683242342933297e-06)
(-1.058669580010913 -2.460028110090268e-13 -2.683213059944177e-06)
(-1.058669579926576 -1.401938997253479e-13 -2.683241841654374e-06)
(-1.058669580002475 -2.413811850514618e-13 -2.683213110063795e-06)
(-1.058669579914104 -1.487856427799813e-13 -2.683241343265489e-06)
(-1.0586695799918 -2.621954367283193e-13 -2.68321320617582e-06)
(-1.058669579901226 -1.005189986464677e-13 -2.683240833472903e-06)
(-1.058669579981917 -4.445862224517018e-13 -2.683213320218434e-06)
(-1.058669579887355 -1.627659443873226e-13 -2.683240284714629e-06)
(-1.05866957996464 -3.349847575920565e-13 -2.68321340808328e-06)
(-1.058669579873775 -4.455261877804728e-13 -2.683239650305186e-06)
(-1.058669579942567 -3.96155241417175e-13 -2.683213404030161e-06)
(-1.058669579852861 -4.714601819108492e-13 -2.683238854387454e-06)
(-1.058669579917701 -8.079468905880735e-13 -2.683213210319239e-06)
(-1.058669579821744 -7.290172179205467e-13 -2.683237783008853e-06)
(-1.05866957987593 -1.090551481684356e-12 -2.683212644196297e-06)
(-1.058669579779699 -1.650074436715768e-12 -2.683236264697141e-06)
(-1.058669579819902 -2.020294623722662e-12 -2.683211876454909e-06)
(-1.058669579703275 -2.347183811504381e-12 -2.683233171182495e-06)
(-1.058669579708032 -2.316981086480961e-12 -2.683207609258346e-06)
(-1.058669579736627 4.848208254369691e-12 -2.683243367082053e-06)
(-1.102852191163723 3.227741493122435e-11 -5.01102611131772e-06)
(-1.102852191039331 -1.411148852962716e-11 -5.011042759458876e-06)
(-1.102852191135207 4.391255387655021e-12 -5.010994541429269e-06)
(-1.102852191067361 1.647913829985665e-14 -5.011044448237034e-06)
(-1.102852191122008 -2.154047144589903e-12 -5.010992057826112e-06)
(-1.102852191057699 2.290063766353457e-12 -5.011043535873918e-06)
(-1.102852191117611 -3.365755955861513e-12 -5.010990358079387e-06)
(-1.102852191035508 2.444723135070202e-12 -5.01104248843931e-06)
(-1.102852191110988 -3.28208390235981e-12 -5.010988632168791e-06)
(-1.102852191007753 2.305560842553458e-12 -5.011041557644169e-06)
(-1.102852191102477 -2.983277412083884e-12 -5.010986835515041e-06)
(-1.102852190977319 2.047523505395118e-12 -5.011040715064908e-06)
(-1.102852191111045 -2.115826527226404e-12 -5.010985029844843e-06)
(-1.102852190971287 1.405212334208617e-12 -5.011039900463686e-06)
(-1.102852191098604 -1.680586062799378e-12 -5.010983275242403e-06)
(-1.102852190965786 1.373152312448217e-12 -5.011039063397771e-06)
(-1.102852191107714 -1.487419396365321e-12 -5.010981619963687e-06)
(-1.102852190944596 9.100523502496271e-13 -5.011038172401051e-06)
(-1.102852191110388 -9.699415803199024e-13 -5.010980091264538e-06)
(-1.102852190946854 5.599159573195484e-13 -5.011037215508708e-06)
(-1.102852191093201 -9.125814129511335e-13 -5.010978704173249e-06)
(-1.102852190945497 6.565852469236539e-13 -5.011036188555051e-06)
(-1.102852191100866 -8.550519946668717e-13 -5.010977469036831e-06)
(-1.102852190926258 3.425192775622964e-13 -5.01103509541963e-06)
(-1.102852191100745 -4.477481908631978e-13 -5.010976386760342e-06)
(-1.102852190930572 1.45067666757302e-13 -5.011033948741426e-06)
(-1.102852191081585 -5.243126340256842e-13 -5.010975456242821e-06)
(-1.10285219093155 3.206225520120939e-13 -5.01103276045448e-06)
(-1.102852191085877 -5.571874805871986e-13 -5.010974678767546e-06)
(-1.102852190911411 4.330076780512834e-14 -5.011031544397051e-06)
(-1.102852191085571 -3.256192651475472e-13 -5.01097405125357e-06)
(-1.102852190916516 -8.659432277500591e-14 -5.011030319584335e-06)
(-1.102852191064585 -4.092853040696106e-13 -5.010973570875027e-06)
(-1.102852190917485 1.293522552893663e-13 -5.011029101013417e-06)
(-1.102852191065894 -5.251687298116388e-13 -5.010973238944352e-06)
(-1.102852190899287 -7.200023400652116e-14 -5.011027903651178e-06)
(-1.102852191063901 -2.20991372103996e-13 -5.010973052719211e-06)
(-1.102852190904088 -3.27905825206462e-13 -5.011026745011822e-06)
(-1.10285219103963 -4.642127715827081e-13 -5.010973008494536e-06)
(-1.102852190903666 -1.561710621916286e-13 -5.011025636245301e-06)
(-1.102852191039468 -6.684654600224543e-13 -5.010973104660961e-06)
(-1.102852190883599 -4.353069390497191e-13 -5.011024584645855e-06)
(-1.102852191023137 -7.644059764355841e-13 -5.010973330445051e-06)
(-1.102852190857969 -3.201669651145691e-13 -5.011023593153685e-06)
(-1.102852191012573 -8.457154792542633e-13 -5.010973671791514e-06)
(-1.102852190849092 -7.878791006442955e-13 -5.011022655614067e-06)
(-1.102852190975661 -7.558611852281648e-13 -5.010974100514599e-06)
(-1.10285219083572 -8.986694591430539e-13 -5.011021749494847e-06)
(-1.102852190956294 -1.192116920646283e-12 -5.010974578980665e-06)
(-1.102852190800705 -1.17097128592492e-12 -5.011020835863452e-06)
(-1.102852190930817 -1.520183487212081e-12 -5.010975054465029e-06)
(-1.1028521907802 -1.887761194210215e-12 -5.011019857653363e-06)
(-1.102852190877839 -2.205966829205703e-12 -5.0109754245306e-06)
(-1.102852190749424 -2.947822466246002e-12 -5.011018926528278e-06)
(-1.102852190843964 -3.552045811030846e-12 -5.010976283414146e-06)
(-1.102852190695617 -3.361455278756838e-12 -5.011014418999149e-06)
(-1.102852190768844 -2.008766282308083e-12 -5.010976811418978e-06)
(-1.102852190725777 1.157014662586643e-11 -5.011046958958467e-06)
(-1.141479858598611 4.626869931465059e-11 -7.273791074383327e-06)
(-1.141479858472389 -1.867265155295754e-11 -7.273815510329912e-06)
(-1.14147985860129 5.709412859231805e-12 -7.273749766299064e-06)
(-1.141479858490332 1.121429707791636e-13 -7.273817780429793e-06)
(-1.141479858594664 -3.182310884475207e-12 -7.273745335666995e-06)
(-1.141479858476781 3.129192987285962e-12 -7.273817555093221e-06)
(-1.141479858593071 -4.858899065961004e-12 -7.273741582390461e-06)
(-1.141479858453422 3.228839137253386e-12 -7.2738171091112e-06)
(-1.141479858588436 -4.917030599137417e-12 -7.273738046577773e-06)
(-1.14147985841886 2.876846966109582e-12 -7.273816462932907e-06)
(-1.141479858576247 -4.550046514208599e-12 -7.273734787868854e-06)
(-1.141479858380203 3.092337187448247e-12 -7.273815568926653e-06)
(-1.141479858586862 -2.876277842338235e-12 -7.273731839085751e-06)
(-1.141479858378997 1.544729339278392e-12 -7.273814422918363e-06)
(-1.141479858565171 -2.176853895249567e-12 -7.273729193581706e-06)
(-1.141479858374375 2.017089542263269e-12 -7.27381303952007e-06)
(-1.141479858580311 -2.501841139376042e-12 -7.273726838428568e-06)
(-1.141479858346526 1.432067679833281e-12 -7.27381144483656e-06)
(-1.141479858582882 -1.256046587253874e-12 -7.273724747449359e-06)
(-1.141479858352435 3.781753251965031e-13 -7.273809673792689e-06)
(-1.141479858558584 -1.086025592046256e-12 -7.273722896626434e-06)
(-1.141479858351975 1.000632122531461e-12 -7.273807754533991e-06)
(-1.141479858570652 -1.565070568168326e-12 -7.27372127003939e-06)
(-1.141479858328652 6.476290243568174e-13 -7.273805715117278e-06)
(-1.141479858569802 -5.374023168370421e-13 -7.273719847256422e-06)
(-1.141479858337535 -2.508426981931296e-13 -7.273803587578801e-06)
(-1.14147985854476 -5.411294105266271e-13 -7.273718613504345e-06)
(-1.141479858337129 4.627154812595698e-13 -7.273801396036719e-06)
(-1.141479858551337 -1.174749817105114e-12 -7.273717562696527e-06)
(-1.141479858313359 2.492725544073832e-13 -7.273799165223644e-06)
(-1.141479858548313 -3.587977652136827e-13 -7.273716685368581e-06)
(-1.141479858322979 -5.780051762881842e-13 -7.273796925059068e-06)
(-1.141479858520511 -3.258022008954095e-13 -7.273715976750423e-06)
(-1.141479858326998 2.314154256062985e-13 -7.273794698994831e-06)
(-1.141479858527292 -1.132994665012649e-12 -7.273715441258645e-06)
(-1.141479858300141 6.944786786895758e-14 -7.273792511853339e-06)
(-1.141479858526135 -1.741310796572633e-13 -7.273715079766896e-06)
(-1.141479858312475 -8.383131890581277e-13 -7.273790396752502e-06)
(-1.141479858495435 -3.913344599871721e-13 -7.273714897902894e-06)
(-1.141479858315662 -1.336692917879175e-13 -7.273788380361737e-06)
(-1.141479858502156 -1.29710323987544e-12 -7.273714911788078e-06)
(-1.141479858295823 -7.828522768340604e-13 -7.273786493194063e-06)
(-1.141479858483113 -1.343462190025261e-12 -7.273715132328723e-06)
(-1.141479858267346 -5.052465213694256e-13 -7.273784770293273e-06)
(-1.141479858470651 -1.063092417147754e-12 -7.273715580845066e-06)
(-1.1414798582709 -1.623413853683312e-12 -7.273783250449774e-06)
(-1.141479858431123 -8.961400379063108e-13 -7.273716276320583e-06)
(-1.141479858261169 -1.266669900336599e-12 -7.273781966308379e-06)
(-1.14147985842058 -2.053425528940509e-12 -7.273717244844631e-06)
(-1.141479858226218 -1.460501273339499e-12 -7.273780949944247e-06)
(-1.141479858398999 -1.971165014209995e-12 -7.273718505193019e-06)
(-1.141479858217865 -2.923288194805857e-12 -7.273780208512952e-06)
(-1.141479858351307 -2.539743432226742e-12 -7.273720013402436e-06)
(-1.14147985819638 -3.565538916687065e-12 -7.273779976523151e-06)
(-1.141479858332438 -4.314754949005701e-12 -7.273722445209947e-06)
(-1.141479858155142 -3.658641309359676e-12 -7.273774484523106e-06)
(-1.141479858265419 -3.013600906621326e-12 -7.27372601029686e-06)
(-1.141479858152333 1.578145871845103e-11 -7.273822643106844e-06)
(-1.171480668624837 5.96162224244135e-11 -9.250430845457133e-06)
(-1.171480668465598 -2.275596266984877e-11 -9.25046127267478e-06)
(-1.17148066864053 6.941038876726598e-12 -9.250375750507517e-06)
(-1.171480668471309 2.749397059434048e-13 -9.250465693459745e-06)
(-1.171480668641228 -4.177942808393314e-12 -9.250368794061626e-06)
(-1.171480668457869 3.996270837562444e-12 -9.250466299312544e-06)
(-1.1714806686412 -6.298270825759837e-12 -9.250363256503114e-06)
(-1.171480668437778 4.139660417602158e-12 -9.250466059900716e-06)
(-1.171480668643922 -6.559966421621225e-12 -9.250358504503049e-06)
(-1.171480668406089 3.467985314577832e-12 -9.250465113741019e-06)
(-1.17148066863877 -5.99736297856661e-12 -9.250354463326236e-06)
(-1.171480668387037 3.99949115305965e-12 -9.250463554357349e-06)
(-1.171480668643239 -3.693601386080777e-12 -9.250351028792113e-06)
(-1.171480668376559 1.830209907842638e-12 -9.250461497355909e-06)
(-1.171480668633436 -2.795453304451155e-12 -9.250348087129348e-06)
(-1.171480668369074 2.566886408532377e-12 -9.250459049587262e-06)
(-1.171480668636464 -3.426555720596453e-12 -9.250345546186809e-06)
(-1.171480668352824 1.848608936197943e-12 -9.250456298995695e-06)
(-1.171480668635257 -1.485725392567901e-12 -9.25034332915662e-06)
(-1.171480668351931 2.457223314931947e-13 -9.250453318756759e-06)
(-1.171480668624597 -1.285118914848485e-12 -9.250341378353884e-06)
(-1.171480668349298 1.31037496609435e-12 -9.250450162753194e-06)
(-1.171480668623435 -2.238816897778235e-12 -9.250339653395276e-06)
(-1.171480668339077 8.406016627037101e-13 -9.250446874634305e-06)
(-1.171480668619699 -5.552520241416572e-13 -9.250338121196936e-06)
(-1.17148066834183 -6.317583922061938e-13 -9.250443493497653e-06)
(-1.171480668606149 -5.699820174327399e-13 -9.250336757656164e-06)
(-1.171480668339877 6.41052729432682e-13 -9.250440049262442e-06)
(-1.171480668602178 -1.836811840872706e-12 -9.250335548605816e-06)
(-1.17148066833141 3.786538347296026e-13 -9.250436570031588e-06)
(-1.171480668593949 -3.044205636633965e-13 -9.250334481734803e-06)
(-1.171480668332671 -1.018662127937012e-12 -9.250433085182716e-06)
(-1.171480668579038 -3.323579324949439e-13 -9.250333550805207e-06)
(-1.171480668332226 2.543647413697955e-13 -9.250429620812238e-06)
(-1.171480668574853 -1.565518665767539e-12 -9.250332757692953e-06)
(-1.171480668320874 5.598182370773817e-14 -9.250426204764037e-06)
(-1.171480668567698 -1.436306706210076e-13 -9.250332106391407e-06)
(-1.171480668324486 -1.249109630948264e-12 -9.250422872016742e-06)
(-1.171480668551293 -3.401683142831324e-13 -9.250331608408463e-06)
(-1.171480668323661 -1.020797945315106e-13 -9.250419657695372e-06)
(-1.171480668545222 -1.784486200755392e-12 -9.250331287096939e-06)
(-1.171480668314771 -1.132972831588373e-12 -9.250416605392927e-06)
(-1.171480668529258 -1.800109268890531e-12 -9.250331171864305e-06)
(-1.171480668302898 -6.477972901356648e-13 -9.250413770081848e-06)
(-1.171480668515411 -1.111598220063546e-12 -9.250331309735671e-06)
(-1.171480668303158 -2.35447768710717e-12 -9.25041122195763e-06)
(-1.171480668494713 -9.950537283838416e-13 -9.250331762408745e-06)
(-1.171480668296304 -1.512819411686438e-12 -9.250409044382699e-06)
(-1.17148066848154 -2.808457331564117e-12 -9.250332615542916e-06)
(-1.171480668279766 -1.690546118873609e-12 -9.250407342647773e-06)
(-1.171480668462567 -2.223149099947746e-12 -9.250333975521071e-06)
(-1.1714806682686 -3.905555444173187e-12 -9.250406219251953e-06)
(-1.171480668434615 -2.829169973356735e-12 -9.250335912189628e-06)
(-1.171480668250032 -4.092903019196087e-12 -9.250406037060517e-06)
(-1.171480668411477 -4.924980813696047e-12 -9.250339261749529e-06)
(-1.171480668228449 -4.156145819977269e-12 -9.250400496942065e-06)
(-1.171480668341166 -4.593874585029627e-12 -9.250344122060604e-06)
(-1.171480668193732 1.939362246060415e-11 -9.250458200182319e-06)
(-1.193064801090509 7.100437969529869e-11 -1.087549128986874e-05)
(-1.193064800878536 -2.621482009405527e-11 -1.087553070829499e-05)
(-1.193064801124607 7.829526437128646e-12 -1.087541809420652e-05)
(-1.193064800875265 6.092349814850712e-13 -1.087553799147828e-05)
(-1.193064801125873 -5.101719768815947e-12 -1.087540920070865e-05)
(-1.193064800866808 4.804639209657812e-12 -1.087553845388517e-05)
(-1.193064801123568 -7.573870745662546e-12 -1.087540325243476e-05)
(-1.193064800849953 5.225846634790785e-12 -1.087553712399406e-05)
(-1.193064801131262 -7.938090550769764e-12 -1.087539869759544e-05)
(-1.193064800828433 4.225284705130753e-12 -1.087553470132649e-05)
(-1.193064801131482 -7.000810471846867e-12 -1.087539507918187e-05)
(-1.193064800835576 4.614943545373655e-12 -1.087553153993325e-05)
(-1.193064801127974 -4.573562838484816e-12 -1.087539211506205e-05)
(-1.19306480081376 2.340330292949386e-12 -1.087552786708687e-05)
(-1.193064801134437 -3.497623539929659e-12 -1.087538961586724e-05)
(-1.193064800805489 2.877418572893806e-12 -1.087552384122736e-05)
(-1.193064801121796 -3.877895796686066e-12 -1.087538745338182e-05)
(-1.193064800806981 2.092247876340176e-12 -1.087551956688715e-05)
(-1.193064801116476 -1.904002914527749e-12 -1.087538554275902e-05)
(-1.193064800797632 3.48453289098159e-13 -1.087551511593601e-05)
(-1.193064801119007 -1.585326322561938e-12 -1.087538382429111e-05)
(-1.193064800793835 1.404998396532956e-12 -1.087551054037441e-05)
(-1.193064801104191 -2.453606872575208e-12 -1.087538225510905e-05)
(-1.193064800798935 8.675495974962876e-13 -1.087550587785095e-05)
(-1.193064801096699 -7.920582655422685e-13 -1.087538080622209e-05)
(-1.19306480079239 -6.47736048724119e-13 -1.08755011570793e-05)
(-1.193064801095988 -7.748203536637141e-13 -1.087537945480926e-05)
(-1.193064800791125 5.594408269506513e-13 -1.087549640279576e-05)
(-1.19306480108076 -1.941408963663035e-12 -1.087537818364523e-05)
(-1.193064800797633 2.185968117289363e-13 -1.087549163574047e-05)
(-1.193064801070383 -4.396508550344213e-13 -1.087537698166496e-05)
(-1.193064800789873 -1.141953462375469e-12 -1.087548687469085e-05)
(-1.193064801068966 -4.812927750521442e-13 -1.087537584089616e-05)
(-1.193064800786227 1.528282967198843e-13 -1.087548213987169e-05)
(-1.193064801051641 -1.673795236385583e-12 -1.087537475693134e-05)
(-1.193064800794055 -1.586306796124608e-13 -1.087547745193378e-05)
(-1.193064801039792 -2.43330957790524e-13 -1.087537373233681e-05)
(-1.193064800785625 -1.414835900953245e-12 -1.087547283321529e-05)
(-1.193064801038573 -4.698387108903217e-13 -1.087537277483213e-05)
(-1.193064800781128 -2.698948426405041e-13 -1.087546831275127e-05)
(-1.193064801018188 -1.892282595439001e-12 -1.087537189930036e-05)
(-1.193064800782579 -1.414561517591551e-12 -1.087546392584535e-05)
(-1.193064801007167 -1.925985417707626e-12 -1.087537113443361e-05)
(-1.193064800790407 -8.97239552807235e-13 -1.08754597197726e-05)
(-1.193064800995138 -1.245434620094087e-12 -1.087537052360854e-05)
(-1.193064800779744 -2.508921460860547e-12 -1.087545575817814e-05)
(-1.1930648009933 -1.201513162818543e-12 -1.087537013363741e-05)
(-1.193064800775908 -1.858152705835973e-12 -1.087545213278119e-05)
(-1.193064800973263 -2.973280599572764e-12 -1.087537006396083e-05)
(-1.193064800778117 -2.057321180837409e-12 -1.087544897380323e-05)
(-1.193064800957989 -2.56968849979673e-12 -1.087537046924145e-05)
(-1.19306480076217 -4.274935956147899e-12 -1.087544645685698e-05)
(-1.193064800948605 -3.243854541882093e-12 -1.087537153867825e-05)
(-1.193064800748338 -4.749753907782943e-12 -1.087544505371235e-05)
(-1.193064800920141 -5.165723683006382e-12 -1.087537433427239e-05)
(-1.19306480074304 -4.834820450114922e-12 -1.087543971807287e-05)
(-1.193064800853995 -6.412050037088799e-12 -1.087537792542293e-05)
(-1.193064800703374 2.209448935291102e-11 -1.087549820951613e-05)
(-1.20712388972032 7.905471905134414e-11 -1.211318336092909e-05)
(-1.207123889442667 -2.838382642628292e-11 -1.211324367641133e-05)
(-1.207123889795192 8.532555427036938e-12 -1.21130936216204e-05)
(-1.207123889445964 9.302949593283461e-13 -1.211325093538564e-05)
(-1.207123889790647 -5.975753315448113e-12 -1.211308590710527e-05)
(-1.207123889438928 5.537824175565862e-12 -1.211324877750664e-05)
(-1.207123889787289 -8.637581972226944e-12 -1.211308176907573e-05)
(-1.207123889429624 6.035849067669204e-12 -1.211324476805768e-05)
(-1.207123889783072 -8.882385919404087e-12 -1.211307886005939e-05)
(-1.207123889427091 5.112734850830225e-12 -1.211323991991513e-05)
(-1.207123889787159 -7.651476882658519e-12 -1.21130765978599e-05)
(-1.207123889433 4.933994098384907e-12 -1.211323461918996e-05)
(-1.207123889775636 -5.391846414731032e-12 -1.211307470876962e-05)
(-1.207123889418607 2.986310508392482e-12 -1.21132290586134e-05)
(-1.207123889783147 -4.139813396200121e-12 -1.211307304929433e-05)
(-1.207123889412605 2.929680419943737e-12 -1.211322334766924e-05)
(-1.207123889766269 -3.973278517246355e-12 -1.211307153377167e-05)
(-1.207123889423654 2.118604928606283e-12 -1.211321754805212e-05)
(-1.207123889756394 -2.383840854494689e-12 -1.211307011477073e-05)
(-1.207123889414807 7.51897607536319e-13 -1.211321169442321e-05)
(-1.207123889760784 -1.971123053665197e-12 -1.211306876022111e-05)
(-1.207123889411423 1.234146747790357e-12 -1.211320581274597e-05)
(-1.207123889743859 -2.294615012853569e-12 -1.211306744489226e-05)
(-1.207123889424089 6.931094277257835e-13 -1.211319992021964e-05)
(-1.207123889732695 -1.102126675012606e-12 -1.211306615334361e-05)
(-1.207123889416809 -3.559308978950299e-13 -1.211319402712095e-05)
(-1.207123889736052 -1.043516394268777e-12 -1.21130648713252e-05)
(-1.207123889415456 2.700476845995427e-13 -1.211318814568789e-05)
(-1.207123889718723 -1.655991395529395e-12 -1.211306358396712e-05)
(-1.207123889428571 -8.514542333419053e-14 -1.211318228490889e-05)
(-1.207123889706184 -7.147004344983708e-13 -1.211306228227545e-05)
(-1.207123889420941 -9.326605129175562e-13 -1.211317645018461e-05)
(-1.207123889708424 -7.535577995051299e-13 -1.211306095711757e-05)
(-1.207123889417284 -1.738798928715093e-13 -1.211317065066237e-05)
(-1.207123889690032 -1.408250127494879e-12 -1.211305959842604e-05)
(-1.207123889431518 -4.841179584478581e-13 -1.211316489424891e-05)
(-1.207123889676406 -4.774355229238318e-13 -1.211305820272222e-05)
(-1.20712388942274 -1.291570912541203e-12 -1.211315918609647e-05)
(-1.207123889679225 -7.463226883725232e-13 -1.211305676810738e-05)
(-1.207123889417687 -6.884843230875279e-13 -1.211315353795639e-05)
(-1.207123889658357 -1.658728721700367e-12 -1.211305529369131e-05)
(-1.207123889425519 -1.591763817412365e-12 -1.211314796312536e-05)
(-1.207123889651528 -1.731599211594406e-12 -1.211305379032099e-05)
(-1.207123889441474 -1.12832310343356e-12 -1.211314248041856e-05)
(-1.207123889640515 -1.523792619404947e-12 -1.211305227454976e-05)
(-1.20712388943129 -2.308685286942205e-12 -1.211313711718283e-05)
(-1.207123889647243 -1.393398549726551e-12 -1.211305078061269e-05)
(-1.207123889429237 -2.288789566791851e-12 -1.211313192351578e-05)
(-1.2071238896294 -2.680992958309946e-12 -1.211304936429333e-05)
(-1.207123889441906 -2.428665388210183e-12 -1.211312697985567e-05)
(-1.207123889617608 -2.943832240410292e-12 -1.211304813361748e-05)
(-1.207123889430704 -4.171195773856619e-12 -1.211312241905995e-05)
(-1.207123889619536 -3.614791934499015e-12 -1.211304725251026e-05)
(-1.207123889422598 -5.434812881312675e-12 -1.211311860841316e-05)
(-1.207123889597165 -4.995940435055235e-12 -1.211304769191382e-05)
(-1.207123889424523 -5.460169774864619e-12 -1.211311244022456e-05)
(-1.207123889542668 -7.957580719192164e-12 -1.211304673342897e-05)
(-1.207123889410517 2.366600362656303e-11 -1.211316083383164e-05)
(-1.215415177930395 8.306003715877485e-11 -1.29978913711084e-05)
(-1.215415177572397 -2.911220435538321e-11 -1.299798428558304e-05)
(-1.215415178036536 9.219465112449931e-12 -1.299779448286268e-05)
(-1.215415177588091 9.576066506887945e-13 -1.299798718525785e-05)
(-1.215415178020712 -6.566003047704859e-12 -1.299779087925122e-05)
(-1.215415177589013 6.073446540500267e-12 -1.299798078627e-05)
(-1.215415178011469 -9.497536140418944e-12 -1.299778969791706e-05)
(-1.215415177588294 6.530421841446828e-12 -1.299797361740729e-05)
(-1.21541517799709 -9.534162688435865e-12 -1.299778885012635e-05)
(-1.215415177598014 5.768330770366064e-12 -1.299796633813016e-05)
(-1.215415177997514 -7.982111548595262e-12 -1.299778805438616e-05)
(-1.21541517759857 5.148754647722301e-12 -1.299795909102104e-05)
(-1.215415177981776 -6.098363442442736e-12 -1.299778722740622e-05)
(-1.215415177596257 3.494150451939259e-12 -1.299795191740406e-05)
(-1.215415177982087 -4.607015892913597e-12 -1.299778634886593e-05)
(-1.215415177593422 2.909476688740867e-12 -1.299794482475648e-05)
(-1.215415177968365 -3.96222177703681e-12 -1.29977854125463e-05)
(-1.215415177604774 2.067354695439843e-12 -1.299793780998663e-05)
(-1.215415177955361 -2.757715933364282e-12 -1.299778442140155e-05)
(-1.21541517760314 1.070373794947312e-12 -1.299793086430709e-05)
(-1.215415177955432 -2.252350419973546e-12 -1.299778337704499e-05)
(-1.215415177601378 1.037020943454144e-12 -1.29979239836301e-05)
(-1.215415177942612 -2.076495721097567e-12 -1.299778227564496e-05)
(-1.215415177613779 4.867119548924179e-13 -1.29979171650098e-05)
(-1.215415177929498 -1.339419606713828e-12 -1.299778111449035e-05)
(-1.215415177613055 -1.280275513237485e-13 -1.299791040363287e-05)
(-1.21541517792995 -1.214543461371061e-12 -1.299777988805029e-05)
(-1.21541517761219 -1.587193562482515e-14 -1.299790369918445e-05)
(-1.215415177917019 -1.373873378831732e-12 -1.29977785859217e-05)
(-1.215415177624318 -3.571733016954714e-13 -1.299789705074826e-05)
(-1.215415177903344 -9.133951551758076e-13 -1.2997777200209e-05)
(-1.215415177622851 -7.718805555711371e-13 -1.299789045373423e-05)