/*--------------------------------*- C++ -*----------------------------------*\
| =========                 |                                                 |
| \\      /  F ield         | OpenFOAM: The Open Source CFD Toolbox           |
|  \\    /   O peration     | Version:  v1812                                 |
|   \\  /    A nd           | Web:      www.OpenFOAM.com                      |
|    \\/     M anipulation  |                                                 |
\*---------------------------------------------------------------------------*/
FoamFile
{
    version     2.0;
    format      ascii;
    class       volVectorField;
    location    "20000";
    object      wallShearStress;
}
// * * * * * * * * * * * * * * * * * * * * * * * * * * * * * * * * * * * * * //

dimensions      [0 2 -2 0 0 0 0];


internalField   uniform (0 0 0);

boundaryField
{
    inlet
    {
        type            cyclic;
    }
    outlet
    {
        type            cyclic;
    }
    bottomWall
    {
        type            calculated;
        value           nonuniform List<vector> 
58
(
(0.0005600403078320227 -2.161584713762762e-13 2.447647278964939e-08)
(0.0005600403067669286 1.02954309066866e-13 2.447654448162598e-08)
(0.00056004030715878 -3.556351312143053e-14 2.447613477641964e-08)
(0.0005600403071276154 1.408120641791825e-15 2.447651431997183e-08)
(0.0005600403070805825 1.301092225343051e-14 2.447616122471166e-08)
(0.0005600403070430393 -1.717549094899757e-14 2.447648084611452e-08)
(0.0005600403070839401 2.194880233833885e-14 2.447617422827522e-08)
(0.0005600403068556543 -1.890947982293998e-14 2.447646069728353e-08)
(0.0005600403070637698 2.132709780920608e-14 2.447617731856964e-08)
(0.0005600403066902844 -1.792720467487391e-14 2.447644795587584e-08)
(0.0005600403070803398 1.833719874804665e-14 2.447617522156565e-08)
(0.0005600403065597418 -1.485892600558842e-14 2.447643930124673e-08)
(0.0005600403070984569 1.551158305517067e-14 2.447617031839373e-08)
(0.0005600403064368958 -1.198642930753693e-14 2.447643301017569e-08)
(0.00056004030710135 1.154447060197518e-14 2.447616394497807e-08)
(0.0005600403063736136 -8.808269488048159e-15 2.447642807179195e-08)
(0.0005600403070943291 8.510013451133679e-15 2.447615694327509e-08)
(0.0005600403063164388 -6.98404259270432e-15 2.447642384405518e-08)
(0.000560040307085825 7.972222543299249e-15 2.447614986849594e-08)
(0.0005600403062597404 -6.136782187031304e-15 2.447641992513586e-08)
(0.0005600403070666855 5.971026672298944e-15 2.447614308269249e-08)
(0.0005600403062250695 -3.874301092684305e-15 2.447641607700188e-08)
(0.0005600403070460784 4.098921453349699e-15 2.447613682193368e-08)
(0.0005600403061854538 -3.111784386764917e-15 2.44764121657957e-08)
(0.0005600403070258071 4.352215501579321e-15 2.447613123652471e-08)
(0.0005600403061405687 -3.218958455591071e-15 2.447640813786379e-08)
(0.0005600403069941721 3.462999053602691e-15 2.447612641194691e-08)
(0.0005600403061239612 -1.584247514957773e-15 2.447640399277626e-08)
(0.0005600403069573733 2.08975887772232e-15 2.4476122397628e-08)
(0.0005600403060951544 -1.153280986017543e-15 2.447639975261947e-08)
(0.0005600403069171011 3.106458750042851e-15 2.447611921561059e-08)
(0.0005600403060519116 -1.835111147669764e-15 2.447639545933579e-08)
(0.0005600403068696857 2.726168128269986e-15 2.447611686017947e-08)
(0.0005600403060171331 -4.46297874404912e-16 2.44763911602385e-08)
(0.0005600403068166899 1.565340049214143e-15 2.447611530756805e-08)
(0.0005600403059783639 -1.322771725373878e-16 2.447638688562542e-08)
(0.0005600403067589993 2.50476865764477e-15 2.447611450803775e-08)
(0.0005600403059252776 -7.401163314853697e-16 2.447638264347693e-08)
(0.0005600403066800817 2.567416251957594e-15 2.44761143690131e-08)
(0.0005600403058617896 8.889625537104381e-16 2.447637839989199e-08)
(0.0005600403065679657 2.414671958590123e-15 2.447611474516252e-08)
(0.0005600403057515571 1.290053162329535e-15 2.447637404417909e-08)
(0.0005600403064562166 2.428324688762312e-15 2.447611541013238e-08)
(0.0005600403056445692 4.329357709873716e-16 2.447636936664001e-08)
(0.0005600403063443723 4.677007641056824e-15 2.4476116008916e-08)
(0.0005600403054757425 7.405414964355993e-16 2.447636399719607e-08)
(0.0005600403062036208 3.085386702198198e-15 2.447611599436208e-08)
(0.0005600403053170382 3.990259776132051e-15 2.447635733048172e-08)
(0.0005600403059532141 3.589526327121316e-15 2.447611452766883e-08)
(0.000560040305113315 3.722211827481458e-15 2.44763483624172e-08)
(0.000560040305662086 7.932695842641005e-15 2.447611029237587e-08)
(0.0005600403047369842 6.370972771414147e-15 2.447633551091703e-08)
(0.0005600403052029726 1.088167185605001e-14 2.447610059861258e-08)
(0.0005600403041683418 1.680836210808285e-14 2.447631484752542e-08)
(0.0005600403044219827 2.22115552979975e-14 2.447608601105599e-08)
(0.0005600403029350925 3.506464380266456e-14 2.447628012540396e-08)
(0.0005600403021478604 4.646750491759552e-14 2.447598215059577e-08)
(0.000560040302371189 -5.475899474749503e-14 2.447628695356157e-08)
)
;
    }
    topWall
    {
        type            calculated;
        value           nonuniform List<vector> 
58
(
(0.009679709432578249 9.577325487781511e-14 7.741611039149924e-08)
(0.009679709436458621 1.582753839994475e-13 7.741875966503455e-08)
(0.009679709442642915 1.213130770930903e-14 7.74172727763424e-08)
(0.009679709439598529 9.856482541281019e-14 7.741852971971677e-08)
(0.00967970944443926 -3.9408914660158e-14 7.741755778105528e-08)
(0.00967970944077641 6.559224752281349e-14 7.741828886426099e-08)
(0.009679709445260573 -2.459251522690102e-14 7.741768735676825e-08)
(0.009679709441968437 4.841820132023773e-14 7.741811864742641e-08)
(0.009679709445392207 -8.77387054277627e-15 7.74177466580444e-08)
(0.009679709443042446 5.920630321873271e-15 7.741799790231398e-08)
(0.00967970944442044 -2.738934986955846e-14 7.74177654966715e-08)
(0.009679709442986999 2.645365243392409e-14 7.741790793932959e-08)
(0.009679709444736652 -6.819167973051659e-15 7.741775994038402e-08)
(0.009679709443292247 1.303674890418432e-14 7.74178367328931e-08)
(0.009679709444699638 3.026023225283913e-15 7.741773955096039e-08)
(0.009679709443954543 -8.565182701046952e-15 7.741777685033596e-08)
(0.009679709443894813 -1.546983325144787e-14 7.741771014428762e-08)
(0.009679709443611273 1.351238020460828e-14 7.741772372997931e-08)
(0.009679709444275103 -5.638948849166307e-15 7.741767525682163e-08)
(0.009679709443483222 5.114052673098105e-15 7.74176746225602e-08)
(0.009679709444294001 1.053380415460147e-14 7.741763700982381e-08)
(0.009679709444109529 -1.206164982905814e-14 7.741762785874268e-08)
(0.009679709443656833 -1.303209298055799e-14 7.741759667122692e-08)
(0.009679709443690763 6.414259414838815e-15 7.74175824045784e-08)
(0.009679709443930477 -9.842102218496632e-15 7.741755501453201e-08)
(0.009679709443309609 1.935902545969666e-15 7.741753764876503e-08)
(0.009679709443867172 1.237403024746553e-14 7.741751246815028e-08)
(0.009679709443793169 -1.224600254881028e-14 7.741749321443364e-08)
(0.009679709443259367 -1.081669251013795e-14 7.741746927670709e-08)
(0.009679709443442888 1.020298207427657e-14 7.741744883882306e-08)
(0.009679709443611319 -7.901487513904545e-15 7.741742558253091e-08)
(0.009679709443083176 -6.81661397155659e-15 7.741740435703756e-08)
(0.009679709443358948 6.069960007796363e-15 7.741738142102943e-08)
(0.009679709443517667 -5.230681202072347e-15 7.741735964820057e-08)
(0.009679709442990287 1.027378666833933e-15 7.74173367937762e-08)
(0.009679709443388466 9.719439154257282e-15 7.741731458048943e-08)
(0.009679709443383422 -1.417873055973989e-14 7.741729165673409e-08)
(0.009679709442695861 -1.464101387442772e-14 7.741726902973609e-08)
(0.009679709442833147 5.887877429017725e-15 7.741724590602653e-08)
(0.009679709442984706 -2.694278762839942e-15 7.741722286461024e-08)
(0.009679709442534651 -9.593261477756714e-15 7.741719940672594e-08)
(0.009679709442653435 4.548567454160478e-15 7.741717588176047e-08)
(0.00967970944283442 -2.616284808799813e-15 7.741715196173753e-08)
(0.009679709442531889 -4.682428978037773e-15 7.741712782110037e-08)
(0.009679709442596759 1.052196692767983e-14 7.741710324874701e-08)
(0.009679709442956414 3.397798093470089e-15 7.741707831043085e-08)
(0.009679709442721007 -2.520275713651791e-15 7.74170528208001e-08)
(0.009679709442793777 1.242073016474728e-14 7.741702676247092e-08)
(0.009679709443155753 5.949664282803423e-15 7.74169999579082e-08)
(0.00967970944303384 -9.318402311099445e-15 7.74169722531134e-08)
(0.009679709442828388 -1.597142128214058e-15 7.741694350349787e-08)
(0.009679709442708561 -1.136014128786236e-14 7.741691310734466e-08)
(0.009679709442533154 -7.958897611276599e-15 7.741688165581412e-08)
(0.009679709441853097 -1.289515950449828e-14 7.741684563268665e-08)
(0.009679709442414874 -1.904899443575805e-17 7.741681253841593e-08)
(0.009679709440374884 -8.323552434341706e-14 7.74167462074861e-08)
(0.009679709440571938 4.473194426119108e-14 7.741673193891039e-08)
(0.009679709436969303 -2.999034571415221e-13 7.741669495409672e-08)
)
;
    }
    left
    {
        type            cyclic;
    }
    right
    {
        type            cyclic;
    }
}


// ************************************************************************* //
