/*--------------------------------*- C++ -*----------------------------------*\
| =========                 |                                                 |
| \\      /  F ield         | OpenFOAM: The Open Source CFD Toolbox           |
|  \\    /   O peration     | Version:  v1812                                 |
|   \\  /    A nd           | Web:      www.OpenFOAM.com                      |
|    \\/     M anipulation  |                                                 |
\*---------------------------------------------------------------------------*/
FoamFile
{
    version     2.0;
    format      ascii;
    class       volVectorField;
    location    "0";
    object      U;
}
// * * * * * * * * * * * * * * * * * * * * * * * * * * * * * * * * * * * * * //

dimensions      [0 1 -1 0 0 0 0];


internalField   nonuniform List<vector> 
2494
(
(-0.6119500478123674 0.08080435150693828 0.08017061540423277)
(-0.6544189891151561 0.006171013516420378 0.005412317064147429)
(-0.6662387434064336 -0.001819729253086236 -0.01298355046496787)
(-0.68909575641103 0.000628237658650296 -0.03767552539469724)
(-0.7326361175782689 0.004737474979306513 -0.03872267052491606)
(-0.7228998972992603 0.0005380549910401686 -0.02467896672286577)
(-0.6821528983500267 -0.003339405010729175 -0.05050446645906331)
(-0.6995301893799721 -0.008408365272787491 -0.07633040618460699)
(-0.7216253478695419 -0.004598287021633317 -0.08741610349318202)
(-0.6969834213266893 -0.008104382223592731 -0.06081654440128866)
(-0.7887382726942648 0.004596874487718277 0.01163329720560877)
(-0.7963100932394735 -0.008802930704954179 -0.0225188077483619)
(-0.7745280057498443 -0.001912414193420726 -0.03307694137982215)
(-0.7622843225045529 0.00457689723261205 0.04113548592535487)
(-0.7654350864837147 0.01415791955080469 0.03700642780086644)
(-0.8345807552360367 0.008120235447615207 0.03295798826475152)
(-0.8022301246002088 -0.005792985435909371 0.02515673119091143)
(-0.7562690098647347 -0.01638466303882434 0.01940253242047637)
(-0.7047590813802228 -0.003735839711043498 0.006108276774536068)
(-0.7071726711310551 0.001868044031748727 -0.003188078585310172)
(-0.6990546736991867 -0.01148135685705255 0.01977365474027746)
(-0.6761515276708256 -0.0131815856164788 0.03958652626935567)
(-0.7114582921964815 -0.02014646826474685 0.02680532103641863)
(-0.7536101298284499 -0.002925313024897984 0.006433350410312906)
(-0.847080275051882 0.0132850925845307 -0.04130493752929811)
(-0.8638110065482196 0.01376101969324546 0.06764751257887237)
(-0.8800092790261489 0.01808520708259725 0.02535335413399451)
(-0.9111550644562351 0.009038655449631068 0.004421302385440487)
(-0.8305940606507582 0.00589872036829453 0.03912550896095257)
(-0.9070101574125786 0.009957805990693649 -0.02208510939009807)
(-0.8534048709639814 0.01366723415223201 0.01268002800718319)
(-0.8420884324281518 0.01095773651072987 -0.03245700997451735)
(-0.81640053724892 0.00154362472873594 -0.05699970452978513)
(-0.8132810760012339 0.002778727310062526 -0.06250383926962366)
(-0.7856650653844681 -0.005294547589118783 -0.0551538755810171)
(-0.7522783630021581 0.001881811008946542 0.007014325683339115)
(-0.7497449581293761 0.001665398820312203 0.02309985915747015)
(-0.8043178048232489 -0.000488197920452814 0.009978847447006355)
(-0.8366140680235901 -0.0005894543686118065 0.01439018098118212)
(-0.8513244576423776 0.001376088744428991 0.002578439355431892)
(-0.7960887568958741 -0.004546736592869922 -0.006113026931311057)
(-0.7977540819917993 0.00399770159372518 0.008824527817862211)
(-0.7959945739560353 0.005713007011078051 0.01354194440340241)
(-0.7786718308757655 0.0003304217232135833 0.006943954291480698)
(-0.7650443902865055 0.0009916507539529729 0.01394306998561423)
(-0.7855450140255943 0.001176513928479598 0.005279125087974815)
(-0.7658309947963804 -0.002520498713464405 -0.003891985647924815)
(-0.7684090769328908 0.006974624821684586 -0.02015820384309718)
(-0.7410965265155509 0.005055642334804166 -0.01601769712130535)
(-0.6847242633619967 -0.0002371930511858582 -0.02072588290341549)
(-0.6727481620368766 -0.003410820424924356 -0.0168058463598269)
(-0.630021653714507 -0.01147799803964396 -0.02643384491384835)
(-0.6407547641504148 -0.002283190113967061 -0.01278491162314854)
(-0.6100080805576797 -0.008756139992337392 -0.004646849599703275)
(-0.638023505352361 -0.004751884421985784 -0.0005070339279364935)
(-0.6682896572690347 -0.005786296446725296 -0.02033790501360864)
(-0.6239034699043707 -0.005817577127328573 0.01219430827725008)
(-0.6742300366322779 0.01062577568370865 -0.0006078031174566031)
(-0.6038130373793907 0.08103210797217489 0.08049238396459291)
(-0.6466644267802941 0.005820528716844546 0.006447119884075292)
(-0.6564288524293154 -0.00246689783845362 -0.01141568655333369)
(-0.6787075985618937 0.001067696083456677 -0.03769583325486119)
(-0.7269427029742543 0.004377028950751731 -0.03792764371422674)
(-0.715676747856874 0.0003378579568298946 -0.02309425533683445)
(-0.6725773907608699 -0.003542893647900371 -0.04990678035458293)
(-0.6898173560307707 -0.007803778322240627 -0.07699354287151265)
(-0.7135706335970866 -0.004474997367754013 -0.08781881715321191)
(-0.6868480994393177 -0.007929537166249293 -0.06252071052388924)
(-0.7839387985339978 0.004302536600288271 0.01168637502991613)
(-0.7905698544204747 -0.008906394940499905 -0.02112033446336632)
(-0.7730141321851961 -0.002758312442419931 -0.03535013303570386)
(-0.7584811402389149 0.004400019623568442 0.04074302402034885)
(-0.7604651777219734 0.01409456474220181 0.03690635872903986)
(-0.8305503051899705 0.008571813717980149 0.03382970137356298)
(-0.7979765473845999 -0.00565667176707265 0.02608479761391741)
(-0.7533003252377748 -0.01637170172683786 0.01944444459233704)
(-0.7010967487206744 -0.003602443585334696 0.006122052800614869)
(-0.7021143712541399 0.002483265123102974 -0.003978480122729813)
(-0.6937677430675779 -0.01124190187801399 0.01930878833744825)
(-0.671236745465698 -0.0136252496572493 0.03886770961864075)
(-0.7048999703138044 -0.0208359454780261 0.02631884594907582)
(-0.7479909399140648 -0.002404459732282571 0.008461948627420397)
(-0.844958114018542 0.0142682870052384 -0.03954289978328714)
(-0.8578313829895736 0.0144455616817097 0.07078373302297834)
(-0.8779629801755691 0.01922471106338892 0.0242955777124385)
(-0.9071920476235737 0.01101151342806302 0.002250839866291014)
(-0.8271860162445325 0.006265955807953229 0.04002944357410326)
(-0.9043350233920986 0.009976644147014968 -0.02298306322849065)
(-0.8513238767268599 0.01378500784106522 0.01227634298869645)
(-0.8355787342888362 0.01088262427027179 -0.03248174386305813)
(-0.8109884919285149 0.00148139438280544 -0.05888068673688739)
(-0.8085385079374345 0.002737267003901311 -0.06366325932776046)
(-0.7795098993713412 -0.005713550363187423 -0.05710736521255087)
(-0.7453736110379123 0.001667055401294559 0.006592141328923485)
(-0.7424979630335662 0.001748997331021658 0.02378756333000121)
(-0.7970089346377245 -0.0006488409261142217 0.009810196487410945)
(-0.831309190392276 -0.0003054235646938281 0.01512596537381177)
(-0.8490890522047184 0.001324676247595897 0.003234433593142703)
(-0.7900294687591027 -0.004235678337997937 -0.007428272972262928)
(-0.793885994768003 0.004395421476206864 0.007449969833698302)
(-0.7910631417844424 0.005881577571928021 0.01301403187342066)
(-0.7734419021091349 0.0003353905832207219 0.006355417933999215)
(-0.7590892932103264 0.001174519243512323 0.01331700992873617)
(-0.7808889952985688 0.001066604000522448 0.005204894841801234)
(-0.7603509879242791 -0.002539841615001519 -0.003888837547354543)
(-0.7650747905295056 0.007048063130873812 -0.02149130100401526)
(-0.7377451099004202 0.005184424406659843 -0.01691143551639645)
(-0.6798676533247189 7.889436866123471e-05 -0.02250655689689076)
(-0.6670307873297575 -0.00336751081766407 -0.0178831977065229)
(-0.6228176328896412 -0.01164276912409478 -0.02645362873702078)
(-0.6339566743541779 -0.002629835045606955 -0.01415166963742944)
(-0.600904943427911 -0.009058594781813322 -0.005373912563510997)
(-0.6284850930338475 -0.004783662849341869 -0.0004422124558136221)
(-0.6612201529390376 -0.006107571309478966 -0.02023875814383271)
(-0.6173125954062639 -0.005967955375685856 0.01255444275769911)
(-0.6663129208948582 0.0109573273787833 -0.001404214925749315)
(-0.3742268133057773 0.09134363186692129 0.06898065495850707)
(-0.3757862666580871 -0.005314104643804315 0.04341184034743208)
(-0.342914966639378 -0.02540949834883114 0.02946732091636161)
(-0.3602409107157775 0.006316322553781946 -0.02727934739300545)
(-0.4973511600648023 0.004109897390172322 -0.02330826773136833)
(-0.4785030713492149 -0.006302985640607005 0.01334119068534246)
(-0.3756629123824553 -0.01668004709798665 -0.02841295279816149)
(-0.3692629213000164 0.007007569405098038 -0.08575674958477864)
(-0.434503686716348 0.001526560372822395 -0.09266389048960125)
(-0.3745427374340936 -0.005994793250382758 -0.1042333564712852)
(-0.547283481470201 -0.002751489902325864 -0.01732410404394038)
(-0.5704123309373283 -0.01380361448696556 -0.007431873602271465)
(-0.6653392050584013 -0.01693604346159104 -0.08852390599064502)
(-0.6362850096551209 -0.001899307610749202 0.02040931999353875)
(-0.6094288046589008 0.01512792553955052 0.03133633327665855)
(-0.662626536009136 0.02172298633952079 0.05198174848768924)
(-0.6583827926624658 0.009763903298405707 0.04335533625383454)
(-0.6498296841616658 -0.004275709437265176 0.01874209458550961)
(-0.5986904005709663 0.01184236758191352 -0.004428022017347851)
(-0.5446038486685038 0.01429915345411101 -0.03707214640105653)
(-0.5216581861412544 0.001313982268756225 -0.005242594111685442)
(-0.5088012659223321 -0.01845911085285831 0.009924718246696605)
(-0.5133850230820803 -0.04015420904859204 0.0002410119664347354)
(-0.5518523139429645 0.008587292037733058 0.05634371104034659)
(-0.7239006843358669 0.04590516330190476 0.02222202798086058)
(-0.6494425126571964 0.04737297668236527 0.1499855633181104)
(-0.7797443922772604 0.03887495135754949 0.02357236315864023)
(-0.7773534053630564 0.05079422446532111 -0.04008681204485594)
(-0.6844312867869617 0.02745712694872104 0.04738630871881657)
(-0.7572779655148656 0.01649657827121241 -0.03970902067932586)
(-0.7289950960413172 0.01709426679097811 -0.00794881966597921)
(-0.6365272388589153 0.007460918912842221 -0.02954418701773745)
(-0.6012334317673439 -0.001429017324284772 -0.1008681044954715)
(-0.5989235920646349 -0.002037650462350511 -0.104553162232029)
(-0.557201849365764 -0.02174828076457604 -0.1101346765058158)
(-0.5115341099688998 -0.009375963488237452 -0.0204754179849537)
(-0.516502803470886 0.0004982016796965074 0.03279465732007956)
(-0.5559215610093435 0.001025527925416561 0.01210478928692681)
(-0.6129430363486726 0.006642827056638049 0.02752810993534218)
(-0.6876297973616714 0.007229032561021404 0.008209575372823253)
(-0.6267640819156937 0.001620328717271461 -0.03468604952398256)
(-0.6616905751981553 0.0187102517305413 -0.05005461917969319)
(-0.6399488697278418 0.01262363929464026 -0.007469653658862202)
(-0.6097080632529188 0.002657100881863544 -0.01861709776757731)
(-0.5654906426857944 0.002897571176199461 -0.01475668607351237)
(-0.5974751290402283 -0.001133712049146089 -0.000173020176719314)
(-0.5738484734619518 -0.004091789716484523 -0.008347849632343047)
(-0.6361759869265879 0.008845647851349723 -0.05396538309858201)
(-0.6026938496751352 0.005762929835224082 -0.05573018758875832)
(-0.5306841976398868 0.00756340451056007 -0.0701012784127488)
(-0.4797585184077644 -0.006447593886837044 -0.05349537740460656)
(-0.4069499523371208 -0.01908295624698526 -0.03980517414226358)
(-0.4113158193141269 -0.01133903817949613 -0.05538534268211751)
(-0.3310896060269894 -0.01977523904290981 -0.03061082559165972)
(-0.3515999253454526 -0.005695565740035664 -0.0007990801043467888)
(-0.4218836885120232 -0.01438297998844041 -0.01911722149703239)
(-0.4009469913272747 -0.009242766053702828 0.02013175346781306)
(-0.4427753416147734 0.01463140248596514 -0.03128755863510317)
(-0.3640693271936767 0.09206378897029346 0.06213251889420781)
(-0.3641130653739524 -0.005612055133710082 0.04486121318630739)
(-0.3301805981733844 -0.02682242232616256 0.03089709085422521)
(-0.3470615434210665 0.00622423474331073 -0.02647237857098471)
(-0.4869999164394578 0.004719179697740307 -0.02342056023402433)
(-0.4686409800705181 -0.006775614434581539 0.01430079960450896)
(-0.3634554448669811 -0.01823623866887539 -0.0270660858408331)
(-0.3548845546048072 0.007599057258063463 -0.0853596669648531)
(-0.4214557734294062 0.002402357506578633 -0.09309919149322299)
(-0.3601118890995071 -0.006006392949264142 -0.1056449774564087)
(-0.5322835335374519 -0.003046591715062384 -0.01947364785775543)
(-0.5561309270812222 -0.01404462978181579 -0.007189318025582684)
(-0.6564302318911135 -0.01720161258595853 -0.09036002148118698)
(-0.6306680839639193 -0.002698034371696705 0.01908032269448011)
(-0.6034922112277976 0.01528875862465339 0.03026065879139633)
(-0.6552089426332367 0.02233114566857564 0.05296138959770116)
(-0.6520301682430336 0.01078736551301243 0.04431524323709041)
(-0.645535211825026 -0.003393884631587926 0.01902877917905595)
(-0.5948960406619301 0.01321581603593359 -0.005653108929523067)
(-0.5392208629218314 0.01529514516439665 -0.03915969049879033)
(-0.5144384181183386 0.002368061238894645 -0.006258304612908812)
(-0.5018764088379173 -0.01765887123750751 0.009001859187928316)
(-0.5084201206318336 -0.04154621773776326 -0.002342368276083855)
(-0.5421814686246215 0.009019610359425743 0.05807835281941615)
(-0.7169585697910857 0.04740448138454205 0.02491173528133788)
(-0.6375283584005145 0.04874018669116933 0.1522623351667571)
(-0.7747920663392431 0.03961740016324861 0.02488107009448032)
(-0.7713603720479635 0.05216572169331559 -0.04053588464727074)
(-0.6769525315292527 0.02861623659846125 0.04804469791866498)
(-0.7498446415260774 0.01738408300618901 -0.04009426197198218)
(-0.7225438241636509 0.01727585720736203 -0.008941591733752596)
(-0.6265377377226569 0.007561551080435157 -0.02845426368259037)
(-0.5890515222709056 -0.001421942713420027 -0.1019906815159227)
(-0.5867996877481061 -0.002624645768752133 -0.1065821636483198)
(-0.5455057341620373 -0.0229777618108113 -0.1119281352611761)
(-0.4997522061535346 -0.01010295361416679 -0.02290282972628201)
(-0.5063874940890329 0.0007123648342885966 0.03238938494682509)
(-0.5452645057952441 0.001148868665475519 0.01264143554338563)
(-0.6000581695184515 0.007119120179569146 0.02820662404597241)
(-0.6782592731004946 0.007733659138333218 0.009289435316996669)
(-0.6190134616423584 0.001646580712607084 -0.03503925960788901)
(-0.6543288227531889 0.01969533540573152 -0.05388692692802918)
(-0.6325615041990953 0.01304561435202327 -0.008433693655036333)
(-0.6020401734248523 0.003024607106722598 -0.02010214455715188)
(-0.5558000851969748 0.002701160295624821 -0.01689429136979397)
(-0.5882995022621282 -0.001393536723204824 -0.0007948831993789549)
(-0.56470304727693 -0.004502182655240862 -0.008731796189430423)
(-0.6287277796626294 0.009080745929958589 -0.05534765279289528)
(-0.5955634922124475 0.005822284317965229 -0.05722117836960051)
(-0.5247034503872031 0.007848751441472382 -0.072930028822562)
(-0.4717123162462285 -0.006868452234657485 -0.05719439136121139)
(-0.398591536521801 -0.0198310950685395 -0.04144378751151197)
(-0.401708747507274 -0.01194338331037409 -0.05724934748526566)
(-0.3201702713792883 -0.02075438466385233 -0.03237402155094943)
(-0.3397900544711636 -0.006063512388025305 -0.001861174301907577)
(-0.4097522653458379 -0.01457717044357355 -0.01849791995500475)
(-0.3913233800666616 -0.009115266622543272 0.02140861620768367)
(-0.4329810103427618 0.01452292346764053 -0.03475911873324559)
(-0.2695945922969772 0.0701174213811956 -0.03242630104326227)
(-0.2341516849983828 -0.008920462581668115 0.04687340573602543)
(-0.2052635368983873 -0.05156633995993438 0.04029863123177152)
(-0.2372999826674707 -0.0113806382968171 -0.0002154351543630913)
(-0.3260570723520628 0.0314342753703651 -0.04395043455376371)
(-0.3650149878603907 -0.008636308691184771 0.003091850587978302)
(-0.2482457672827968 -0.06042570860115496 -0.002995630837402663)
(-0.1869360828912839 -0.0001855457563662796 -0.04576092275394813)
(-0.2342019344561801 0.01943583265879722 -0.09417192753799068)
(-0.1877147284241067 -0.0104120835239305 -0.09419159064615605)
(-0.250456815960247 0.001665188431923191 -0.0572764698213127)
(-0.2888189708022396 -0.0120401908477832 -0.0172875755697655)
(-0.4470765423906414 -0.007946846860977682 -0.08738754397965413)
(-0.5827513492261605 -0.02783741671438207 -0.02033188696762738)
(-0.5754085054781009 0.01785188085172625 0.00249224816427656)
(-0.5686645749780316 0.03684052294193028 0.053264105917334)
(-0.592238486142814 0.0121251456638384 0.04324924162787489)
(-0.5907390077677181 0.005005251168330146 0.01632946591904443)
(-0.5751152304984889 0.0482551926756739 -0.03938617792064159)
(-0.538025096682921 0.02943493483752883 -0.0904690034705966)
(-0.4541397811859526 0.02125301464889387 -0.03474805774333362)
(-0.4318760808518178 0.01216554546470207 -0.01508824106856346)
(-0.4864682873256096 -0.06614750202009453 -0.072458937174)
(-0.4141539635972375 0.0004832866045959292 0.0394792718893415)
(-0.5626974981962655 0.05326984320085839 0.03959204095429716)
(-0.5243604575386299 0.05948064015501762 0.1426836751917807)
(-0.6345293636659062 0.04349106425503897 0.08365396216119086)
(-0.688414908510127 0.0506542430301543 0.005740349790881136)
(-0.5356177733142455 0.06144601986386114 0.05027531598754933)
(-0.6040030742439333 0.04687043385744747 -0.03091833338254299)
(-0.5588648236480052 0.0191395101879667 -0.02604793335576668)
(-0.4520179897767876 0.006167241934493177 0.009556535746950251)
(-0.3509997838517205 -0.004700307288025897 -0.06055496770946531)
(-0.3556422454236504 -0.0176195987222264 -0.104261407730973)
(-0.3343186607399388 -0.05350220256036888 -0.1185870357121483)
(-0.3190755959694233 -0.02653486266500416 -0.08225096053343431)
(-0.3835414581634534 0.005327470710140754 0.00788687399455406)
(-0.4369364869907192 0.0038489143024824 0.02508389249606514)
(-0.4147317602360734 0.006769812272262206 0.0400308600403894)
(-0.502228184463487 0.01297911749706524 0.03495854607057038)
(-0.4961430823729426 0.004350923094920759 -0.0141484584588916)
(-0.5093299888809781 0.04592715780967938 -0.1174757415938445)
(-0.525635190822074 0.02820358922607043 -0.0483181878216156)
(-0.5037176469397158 0.01655774853530488 -0.05823231028907003)
(-0.450044128470576 -0.006043331412864614 -0.06910049427905482)
(-0.4442271519595081 -0.01043986192455539 -0.03075504546975249)
(-0.4400646124607632 -0.01618264962093431 -0.01985707037678262)
(-0.4677552144418485 0.01375151258672951 -0.0551729629995318)
(-0.4684412082025047 0.002569123308879838 -0.0785640444340887)
(-0.4401837891735382 0.005200995178808618 -0.1097460907137084)
(-0.3812508354198543 -0.0169297218555349 -0.1323478991801306)
(-0.3224250313061118 -0.03906332738224955 -0.09567183880233919)
(-0.2933253394499725 -0.02312627568503205 -0.07391970566231058)
(-0.2173015257934892 -0.04042087459660111 -0.061701878673336)
(-0.2177698106340753 -0.01492693187494473 -0.02984528088425385)
(-0.2446561603716729 -0.01219521293715017 -0.0006235125633767)
(-0.2713516944570143 -0.001268994610424604 0.04293179546615104)
(-0.3334703093460556 0.007232793998858555 -0.08199738590806462)
(-0.2689472872471661 0.06859896362858414 -0.03840021008735962)
(-0.2291982760393058 -0.00890525010867556 0.04632844012730265)
(-0.201601844927377 -0.05225862859337517 0.03958268898198918)
(-0.2367190457930812 -0.01279263431943299 0.001348548044821908)
(-0.3195458251389959 0.03322753964084187 -0.04568417376214468)
(-0.361902086657057 -0.008143441358237765 0.001505940832568573)
(-0.2465468004615239 -0.06227924511155741 -0.002192057724671239)
(-0.1830995997361172 -0.0009361353463972397 -0.04269673661631466)
(-0.22824265253753 0.01997923749815989 -0.09319987368403351)
(-0.1846794000667099 -0.01087674470934236 -0.09242082991209527)
(-0.2389122611483799 0.00194022358655927 -0.05944010881108198)
(-0.2791462990382179 -0.01197926071125337 -0.01878786475973744)
(-0.4352862005241598 -0.00660665112295533 -0.08538938078373534)
(-0.5807556069809044 -0.02889798467472167 -0.02248659084906678)
(-0.5769802328640388 0.01769955525123517 0.001667824455486246)
(-0.5641523720520047 0.03784643317550899 0.05240723057003916)
(-0.589946214423994 0.01186039269496167 0.04286425430352333)
(-0.5876384696252581 0.005099998300673514 0.0162372010738075)
(-0.5750914980469177 0.05029280386458986 -0.04037365366734886)
(-0.5390915022137249 0.02974739215870912 -0.09340947410915493)
(-0.4535662855089668 0.02192485271247519 -0.03629001961714877)
(-0.4295607555884851 0.01444383332076873 -0.0156254024522741)
(-0.4872966311833269 -0.06688568324927983 -0.07536221697019396)
(-0.4091318947833078 -0.0006106225450931888 0.03725489876455598)
(-0.5528439987273414 0.05336183346696387 0.03961515222274718)
(-0.5209512570706826 0.05877472016220631 0.1390883158437414)
(-0.6257569588737307 0.04305246649762054 0.08772212132237793)
(-0.6851426562742912 0.04984907404184535 0.009563486408528696)
(-0.529175009904194 0.06271826945999513 0.05024707572723613)
(-0.5975575274918915 0.04848337696225919 -0.02985128908770005)
(-0.550735551128981 0.01907060202253751 -0.02689568819972088)
(-0.446017306972938 0.005877663021883134 0.01095348967965258)
(-0.3419985217200828 -0.004980736737032459 -0.05658182673238777)
(-0.3461803567294578 -0.01820534209014247 -0.1021686687847325)
(-0.3259872459054771 -0.05456805482266247 -0.1165426821365893)
(-0.3118095305817827 -0.0273901469540936 -0.08532383145032292)
(-0.3794631204240044 0.005172370988705289 0.005281351173524133)
(-0.4341877808292661 0.004492023121579545 0.02654743796630335)
(-0.4066232259741359 0.006192132462951258 0.03972790740186363)
(-0.4915089629178429 0.01332164080276867 0.03505631990973843)
(-0.4927820984011103 0.004152454344744089 -0.01199937392954245)
(-0.5026398155569767 0.0472107682482092 -0.1200241370257444)
(-0.5223049648518006 0.02920048093663342 -0.05040665469553176)
(-0.5009073884175146 0.01730864515638869 -0.05949479857564439)
(-0.447476904143144 -0.006643559231012308 -0.07205049359015497)
(-0.4396950159646191 -0.01114611143087204 -0.0322166404451653)
(-0.4363747510191585 -0.01700319636856269 -0.02066401647458382)
(-0.4611652012110442 0.0135796160623056 -0.05451018933178737)
(-0.4625454532950418 0.00226889456917069 -0.0798487726468266)
(-0.4369037351199789 0.004979476734574651 -0.1095138909595629)
(-0.3773797786909901 -0.01750413736598141 -0.1342826288152881)
(-0.3196043007883003 -0.04033636673846813 -0.09849475220805465)
(-0.290204646834664 -0.0237192635322081 -0.0740757922018548)
(-0.2161142108670125 -0.04121449557322434 -0.06229451836733235)
(-0.216656065819093 -0.01557298392677026 -0.031284952528362)
(-0.2383644012708692 -0.01292572753954394 7.032577932982636e-05)
(-0.2671860033420364 -0.0008661413662853909 0.04410182802809962)
(-0.3304919191080441 0.006956930925660643 -0.08312980079587459)
(-0.2605818905765004 0.0347666804797277 -0.1120294510517391)
(-0.1455181237910748 -0.01176723164558852 0.01466494542415643)
(-0.1252303308713919 -0.05104016393003002 0.02585195162409915)
(-0.2360753874317851 -0.03067346776449766 0.02743818044912712)
(-0.2502523594958584 0.05215307568871534 -0.06755823122773683)
(-0.3105321586093071 0.01565103987368787 -0.03180428432026668)
(-0.2398266752285332 -0.08023831808920578 0.00638663795742518)
(-0.1739419010686267 -0.01973913721573351 0.02564542862159388)
(-0.1703323157933165 0.0136780867495539 -0.04734999654443887)
(-0.1773658397106478 -0.01991221411126279 -0.04899217395025423)
(-0.1579249177395998 0.00368522136595195 -0.06243317408668177)
(-0.1861495756282863 -0.008043741766690017 -0.02108178869224495)
(-0.2288564961345749 0.01738879996991948 -0.0402536663360116)
(-0.4603112975799574 -0.02194277921146494 -0.07540678559454755)
(-0.5732960089238605 0.01348619153954123 -0.01999333362039833)
(-0.5196153018568812 0.04351683938735017 0.02543984167923575)
(-0.4867329043796761 0.01363536436589878 0.0526443561949733)
(-0.5047678809090099 0.001535098695341192 0.02738145870293408)
(-0.5468514299395006 0.07394046748719335 -0.0518373996559565)
(-0.5406515499314861 0.04341899594034108 -0.1624318327682304)
(-0.4707275489709028 0.02107258672624513 -0.07730812201127696)
(-0.4041316217013949 0.04922439097865607 -0.02956572819270578)
(-0.4550922503167518 -0.05322649329857919 -0.09375614205415855)
(-0.3448353827469539 -0.02317827821684743 -0.01389294962992532)
(-0.3565789096909475 0.05012015150873589 0.01927328143739416)
(-0.4662850396268889 0.01856742652402209 0.0430331605136072)
(-0.427128824761646 0.02490617413205941 0.1185784156723417)
(-0.5632626534159216 0.04115095205859766 0.07899255658671578)
(-0.4734362503379615 0.064928406046575 0.07151383062218931)
(-0.5062940239621835 0.07619860515370991 -0.008172106638925787)
(-0.4366991761332998 0.01815950404525059 -0.02663245100528196)
(-0.3364413633048779 -0.008012514996954628 0.01655461500541782)
(-0.2370951472782947 -0.01798260764466388 0.03159915235562051)
(-0.2401514901372861 -0.02564441917752803 -0.004126487868558739)
(-0.2076948594435171 -0.06732612121937126 -0.03831572120827879)
(-0.2023666503181469 -0.03415266194481758 -0.110010401935686)
(-0.2954767622109466 0.00426965972605806 -0.04879603560895179)
(-0.3870137323671906 0.01605535656036796 0.05131742487911768)
(-0.3257580498430276 -0.008171111527604281 0.03944143055053329)
(-0.3497145535041239 0.009435740589906656 0.03827557506367018)
(-0.4277911883425237 0.002637393044008809 0.02501971348707885)
(-0.4010704220499623 0.0676788175324264 -0.117743932231564)
(-0.4239927210334247 0.0527983638039367 -0.1117976011438124)
(-0.4394761341824974 0.03247999946922264 -0.07701264153997447)
(-0.4264427949437604 -0.003042433948929532 -0.1126441812941965)
(-0.4158045842825071 -0.0311782675662107 -0.06947558065310006)
(-0.3996454185359835 -0.03240227828803258 -0.04206730580645472)
(-0.3759987413234976 0.004943080921867635 -0.05632390287138298)
(-0.3733734867123514 0.002197550994685898 -0.09611793245703375)
(-0.3435329319773569 -0.004604702029787177 -0.09782834889469924)
(-0.2882797617290243 -0.02842128618684066 -0.1382794834377283)
(-0.2401438322244699 -0.06303513080714679 -0.1346059685720078)
(-0.2325538959659635 -0.04368386674943549 -0.07855384596898055)
(-0.2071927622303343 -0.04636407908501484 -0.05351673817694085)
(-0.2176011668560096 -0.03197238630467562 -0.04747645110396976)
(-0.1471776908804149 -0.03003024580218609 0.02209301132918066)
(-0.191794509667234 0.0009251670233220168 0.05366067392150042)
(-0.2355049141962596 0.01661677336607077 -0.04065350837897488)
(-0.2580857768224021 0.03384294378306713 -0.1126142619304784)
(-0.1425709673560282 -0.01271867871164072 0.01251154624042909)
(-0.1221045256595472 -0.05086542472757313 0.02526909791230591)
(-0.2370573258890404 -0.0316797860164424 0.02907167328422268)
(-0.2476000791404354 0.05297182612759963 -0.0686300839865733)
(-0.3079271929835404 0.01718631773246308 -0.03332663793054307)
(-0.240307423403018 -0.08051787282701481 0.006652953809069455)
(-0.1755199861148548 -0.02117330459948717 0.02949663805789453)
(-0.1696656980890836 0.01286538819302906 -0.04465789808456655)
(-0.1787251460668773 -0.02058173419824552 -0.04658697882460298)
(-0.1574102031566446 0.00365231368891801 -0.06204921830056045)
(-0.1848102089614883 -0.007768041831363042 -0.02077916571688488)
(-0.223596508778292 0.01775752543394084 -0.03738312046916795)
(-0.452183058866937 -0.02113929651520531 -0.07821598700757812)
(-0.5705646133771527 0.01353251167001726 -0.02035562932335118)
(-0.518208505842484 0.04261897460317723 0.02319203524403766)
(-0.4811072931024545 0.01346820074570222 0.05349231007139821)
(-0.4986331899350972 0.001084629508627658 0.02814428798282593)
(-0.5461743794879846 0.0745165415513977 -0.05130105535789666)
(-0.5391762900509426 0.04398929458992479 -0.1654944341343138)
(-0.4713835537838497 0.02041721574062876 -0.08007278340971888)
(-0.4047841158528918 0.05003812380329553 -0.03070372223917302)
(-0.4519018995270316 -0.05128893684917375 -0.09325027335031276)
(-0.3445140540629557 -0.02487115124886118 -0.01781871702820969)
(-0.3504378579063291 0.04922281465703394 0.01733146002054726)
(-0.4635801523756711 0.01566518033150758 0.03735288324267375)
(-0.4150727566886708 0.02400163897266995 0.1192487541725267)
(-0.5532135425371707 0.04090777702706819 0.08201037734162839)
(-0.4717326090701048 0.06467293202154781 0.07278517708210697)
(-0.5026291310360982 0.07749425914845018 -0.00709261369804769)
(-0.4315973585660522 0.01786235584992647 -0.02666828732516207)
(-0.3316216127569677 -0.008836067870419897 0.01663440388644639)
(-0.235028350431194 -0.01819049780528531 0.03659428603609206)
(-0.2380313023900511 -0.02588490117876526 0.001702703387829447)
(-0.2044285314164809 -0.06835146373403182 -0.03368928503606188)
(-0.1986508499485217 -0.03449616447446095 -0.1106480546335445)
(-0.2918729673290502 0.004094622777025988 -0.05165670277747786)
(-0.3846306009011814 0.01634455757163771 0.05133475368383351)
(-0.32486241224109 -0.009257053828850618 0.03960798993037865)
(-0.3457499232456874 0.008280400769197394 0.03745255351031718)
(-0.4241444872665477 0.003023804342299754 0.0264210717913409)
(-0.3971976013462932 0.06877696782993262 -0.1155143345704161)
(-0.4191362381664644 0.05421644133310172 -0.1154014652399858)
(-0.4373748267119044 0.03339838737787124 -0.07795051994770968)
(-0.4260071885710126 -0.002448509445245384 -0.113842979811055)
(-0.4149878356393584 -0.03208361037868004 -0.07150806699796458)
(-0.3984490601598653 -0.03270311716550762 -0.04310317924317092)
(-0.373262644348979 0.004725864395256575 -0.0565965559018554)
(-0.3703378214524806 0.002088914638585579 -0.0976645792083982)
(-0.3391245509089535 -0.005005721432046971 -0.09656211797631392)
(-0.2844674404349721 -0.0287925275354674 -0.1367594286865663)
(-0.236526132659447 -0.06377849715067081 -0.1351987318777088)
(-0.2297771414299992 -0.04443936033065213 -0.07875799408251977)
(-0.2081329495455936 -0.04601441591649565 -0.05270909526495519)