/*--------------------------------*- C++ -*----------------------------------*\
| =========                 |                                                 |
| \\      /  F ield         | OpenFOAM: The Open Source CFD Toolbox           |
|  \\    /   O peration     | Version:  v1812                                 |
|   \\  /    A nd           | Web:      www.OpenFOAM.com                      |
|    \\/     M anipulation  |                                                 |
\*---------------------------------------------------------------------------*/
FoamFile
{
    version     2.0;
    format      ascii;
    class       volScalarField;
    location    "0";
    object      nut;
}
// * * * * * * * * * * * * * * * * * * * * * * * * * * * * * * * * * * * * * //

dimensions      [0 2 -1 0 0 0 0];


internalField   nonuniform List<scalar> 
2494
(
0.0001266661272506649
9.869604735412067e-07
5.383929815894329e-07
7.271494075274978e-07
6.485835713201774e-07
1.034831517316243e-07
3.480886543714464e-07
1.852670685390549e-07
1.795603505329737e-07
1.165866349318674e-06
1.141077738194046e-06
1.169249449797663e-06
1.096309901844799e-06
7.780584722683682e-07
1.591442244908967e-06
5.594697715773299e-07
1.361121483919913e-06
3.697993004680845e-06
1.808012304033756e-05
1.313269037965319e-05
5.340423696514777e-06
4.384197129398087e-06
5.95683048348502e-06
6.942780078455206e-06
1.505788635882991e-05
3.540176186091352e-05
3.035859891147304e-05
4.496207616336623e-05
5.716944349415761e-06
1.322466708273089e-05
1.791250991301906e-05
7.09055357499436e-06
4.51704124426552e-06
4.724892538739804e-07
1.107986648174631e-06
5.133885172660218e-07
6.205847544386015e-07
2.462170490848309e-07
3.432990607517901e-06
4.521224572053302e-07
1.202797783952089e-06
1.111135307646713e-05
1.355590938390362e-06
4.350605806646705e-07
1.087495261860734e-07
1.679636560159311e-08
2.022145625690125e-08
9.284201483583393e-07
2.05922901062786e-06
7.492268502543426e-06
3.98114845987917e-06
6.630016578747398e-08
1.27288927122092e-07
3.456751495721331e-07
8.882609543193959e-07
4.298747217349494e-07
1.873446620981285e-07
6.85045335259366e-06
0.0001256851472989944
9.69098354459124e-07
5.621543441004673e-07
8.200173923121038e-07
7.30412024900357e-07
1.138339107003021e-07
3.865866727764386e-07
1.979707525695007e-07
1.886708033070708e-07
1.271857942873056e-06
1.16817125666536e-06
1.18617572994253e-06
1.082476834402484e-06
8.641400170253305e-07
1.778773793082339e-06
5.800750599725258e-07
1.406067494782459e-06
4.097126023059936e-06
1.995036884566705e-05
1.484061291162353e-05
6.02305071920192e-06
4.720791342681247e-06
6.235125190153368e-06
7.429341010585723e-06
1.49636620305279e-05
3.538486613342123e-05
3.107299679750743e-05
4.457080206658304e-05
6.221962576402301e-06
1.296607803032024e-05
1.857678217925009e-05
7.555048409069995e-06
4.412155871854616e-06
4.66994423579602e-07
1.100263627371195e-06
5.729667390612157e-07
6.718518055018031e-07
2.506661679805436e-07
3.808111579388049e-06
4.676186594924898e-07
1.308884062800759e-06
1.24608125717783e-05
1.498007121369791e-06
4.824608276621999e-07
1.214245847754393e-07
1.699241309541271e-08
2.138583381403113e-08
9.408732292769986e-07
2.215445424922389e-06
8.439505265602019e-06
4.508673343704171e-06
6.751188379691221e-08
1.383435193323167e-07
3.596786690075742e-07
9.669325781457045e-07
4.809339343296828e-07
1.916242351383709e-07
6.900080609860998e-06
4.918294183226922e-05
5.076281240287547e-06
1.923258744942442e-06
1.152939207913004e-05
2.054708156982979e-06
4.333256960293388e-06
4.304414377815288e-06
3.345507937092539e-06
1.069264269866588e-06
4.081117517243565e-06
3.222196455206245e-06
3.889416685718515e-06
1.388852584962136e-05
3.55349812606749e-05
2.659028996846403e-05
6.001057293527887e-06
8.598875443976983e-06
2.214700806339699e-05
7.151183413267735e-05
6.498204227845906e-05
4.582816813572218e-05
3.950433824478581e-05
1.557486833227371e-05
2.369346195294341e-05
2.19149886636549e-05
9.846961730558348e-05
6.196515561637906e-05
7.169302253052575e-05
3.084563602549956e-05
2.095704606399262e-05
2.872677387072736e-05
1.967039535682984e-05
4.774371176423037e-06
1.353230913724821e-06
2.885843018177123e-06
3.256001981318872e-06
6.536818573615446e-06
1.670813131700142e-06
8.099567381530137e-06
1.998884952464029e-05
8.14837308603456e-06
3.480029738371459e-05
2.968754805709096e-05
1.101799463208146e-05
9.007635652485001e-06
1.572435511923799e-06
2.8539739902038e-06
3.501102917677737e-06
7.860447365632468e-06
3.478329341155515e-05
1.730558112024142e-05
2.145660956878453e-06
1.280760191030772e-06
3.746283004608845e-06
2.876085007290247e-06
3.688545625829508e-06
2.132877217698707e-06
1.006969598889014e-05
4.840812385838712e-05
5.755808531177103e-06
1.963228329885544e-06
1.29128405504843e-05
2.074793968238911e-06
4.93495656426962e-06
4.717857725832907e-06
3.668150907037965e-06
1.097168623574143e-06
4.298677542542763e-06
3.265027745877642e-06
3.912970304343228e-06
1.436885844279957e-05
3.831414660051715e-05
2.980674844081079e-05
6.478078522437405e-06
8.66573863938871e-06
2.264757792718613e-05
7.291749822164906e-05
6.689537246018244e-05
4.764403556605267e-05
4.078346538755852e-05
1.636349141715448e-05
2.484234392722139e-05
2.308125497437782e-05
0.0001092094284993761
6.266596349690297e-05
7.082581081577308e-05
3.115873719167258e-05
2.122727726318612e-05
2.985533953868505e-05
1.997693230791667e-05
5.090974301402579e-06
1.496344909112794e-06
3.056541721715183e-06
3.456352914182321e-06
7.378125017325859e-06
1.853492167325053e-06
8.350413560398363e-06
2.020593619507939e-05
8.494947224484127e-06
3.568420879702773e-05
3.21596798098161e-05
1.206686636415697e-05
1.03595779008693e-05
1.759138737533812e-06
3.164649565681467e-06
3.530608026561683e-06
7.843446921323254e-06
3.618334962563864e-05
1.763790607528752e-05
2.414154271990651e-06
1.432248399869822e-06
4.195780662652352e-06
2.920996743613279e-06
4.147174314325157e-06
2.260108898277463e-06
1.013376820943789e-05
9.923610809145844e-05
3.682587110443545e-05
5.018276651551148e-06
7.126666957904087e-05
1.082666459168959e-05
1.344663812456195e-05
1.656296080276813e-05
1.478893774881533e-05
5.388846370040539e-06
1.096219737359082e-05
5.244026533167805e-06
4.792074889460908e-06
1.170407144650553e-05
7.000055559978961e-05
0.000111586739767647
7.515499265779653e-05
1.176868724831692e-05
1.90210483222351e-05
9.025571536747134e-05
8.78077754957689e-05
0.0001275821737568385
5.524603702250737e-05
4.35455373020261e-05
4.324331084280155e-05
3.967566520471938e-05
0.000325908611419597
6.25762845922094e-05
8.768832840907281e-05
3.028465102598517e-05
5.771718772095372e-05
4.996514863112294e-05
1.785598356061462e-05
1.486008919617846e-05
1.547331456908433e-05
7.914741316166606e-06
1.406224555122699e-05
1.208242403915473e-05
2.120246280578867e-05
1.311814478044864e-05
9.221853864459717e-06
1.922925107443423e-05
4.604959286667071e-05
8.560895744217658e-05
4.57183307415768e-05
5.998452675553059e-05
1.698100525604657e-05
1.493345885467419e-05
4.729705537868534e-06
3.744996678351417e-06
2.604118387621828e-05
4.228965959935075e-05
1.027932219373359e-05
6.700663375681213e-06
1.897217296812762e-05
1.0064398996704e-05
9.456076590765338e-06
1.455835879548447e-05
1.614647966697772e-05
9.83895611955983e-05
3.841149344667811e-05
5.134019821028047e-06
7.761754102653074e-05
1.106529314214421e-05
1.359325582263446e-05
1.702777505577739e-05
1.518571522202981e-05
5.446417137321725e-06
1.09692739677272e-05
5.543824275599609e-06
5.143495898449151e-06
1.181234060309781e-05
7.027618207801596e-05
0.0001124654146236335
8.088769656068523e-05
1.179747729182771e-05
1.882219481155274e-05
8.951182287425962e-05
8.771362847263928e-05
0.0001320508904234156
5.52102824915901e-05
4.382104703409298e-05
4.434875368013083e-05
4.044710429167583e-05
0.0003341696331786121
6.267847559060412e-05
8.8336642660644e-05
3.091601797913604e-05
6.058644526608904e-05
5.2277598465955e-05
1.738534084880773e-05
1.517440069073551e-05
1.579811861337442e-05
8.084286339089718e-06
1.479418560294413e-05
1.218189409911902e-05
2.161298324068853e-05
1.326240219797781e-05
9.549581286094186e-06
1.94401503944497e-05
4.594463075480846e-05
8.93374809538971e-05
4.773917050142371e-05
6.148591244084052e-05
1.906867958865526e-05
1.574334259442769e-05
4.939564688418609e-06
3.582944808061714e-06
2.563739062877619e-05
4.525902869478835e-05
1.058566429314748e-05
7.065238555236936e-06
2.060143448683382e-05
1.008763615627644e-05
9.744524610629704e-06
1.475882981994943e-05
1.647795865381647e-05
4.17686453199721e-05
5.83875377931052e-05
1.493082061480648e-05
0.0001270409855647908
4.165394033902808e-05
1.911715702730801e-05
3.003400263771436e-05
2.448907425049113e-05
1.06628932484081e-05
2.363206070625714e-05
1.760438306412127e-05
1.217647179832147e-05
8.677403361339174e-06
2.550252572840203e-05
6.548746547922896e-05
0.0001421948666971221
8.593319514524461e-06
2.075332714486464e-05
0.0001017632310187819
8.29663539608141e-05
0.0001385624102064721
0.0001490307862018693
4.750812209066887e-05
9.350333564511306e-05
5.094480760866318e-05
0.0002313843561014271
4.73209139832826e-05
5.164408748131951e-05
8.274095311684865e-05
9.110446073327496e-05
8.883398865450968e-05
2.229648318316531e-05
1.99510189686076e-05
2.295887813113561e-05
1.647757977249852e-05
2.559808438033685e-05
1.425878153721991e-05
2.737525318256369e-05
2.325211470989782e-05
1.512803829099317e-05
1.679326839856197e-05
8.101553052263367e-05
7.503905116351885e-05
7.356442317426206e-05
7.204998988526915e-05
8.722396069960429e-05
3.709459801153846e-05
1.053458876429924e-05
1.669119557950762e-05
3.829466043266904e-05
5.711045311477239e-05
2.953475433505488e-05
2.298797894886323e-05
4.872670885703041e-05
3.855813732677231e-05
2.258897639813856e-05
9.745411130214565e-06
1.797598314774723e-05
4.117844703280126e-05
5.939983156145056e-05
1.596382992430583e-05
0.000126827881796414
4.245845263121559e-05
1.891044325446033e-05
3.01115828067265e-05
2.536655035379237e-05
1.127494992998651e-05
2.391557032678863e-05
1.79745868173043e-05
1.257244047200766e-05
8.408943752887606e-06
2.228678285094331e-05
6.218698583757083e-05
0.0001433219380944695
8.591362541036234e-06
2.096904667761106e-05
0.0001022554033718976
8.172470872721292e-05
0.0001393795319329704
0.0001554641879378446
4.687307263032699e-05
9.460925971746443e-05
5.082899143601239e-05
0.0002189839867779343
4.613182096230305e-05
5.047321500639195e-05
8.669965500041189e-05
9.11941845417659e-05
8.951936832674138e-05
2.244272452760967e-05
2.011556516232094e-05
2.378669015757338e-05
1.682012119124786e-05
2.629444867261219e-05
1.338444347278471e-05
2.765180036669962e-05
2.366707937814981e-05
1.512464359065988e-05
1.709952593265479e-05
8.448507569940215e-05
7.272546264134042e-05
7.625378715484345e-05
7.110752257556699e-05
8.917864284481646e-05
3.690206654523758e-05
1.090906936552868e-05
1.780243245300858e-05
3.695954650424454e-05
5.972883580833443e-05
3.05232281296966e-05
2.35856071507739e-05
4.887648138855357e-05
3.87372119437504e-05
2.28551513218833e-05
9.936418652556398e-06
1.809367884732013e-05
5.872701041007654e-05
9.114415300556111e-05
4.646752847761834e-05
0.0001271848435763913
9.985115763787398e-05
3.26161716803323e-05
2.752642321064089e-05
3.865704364244576e-05
2.140726876954966e-05
4.375002151260056e-05
2.61225268220013e-05
1.082235821644014e-05
1.607851398865634e-05
8.700964218400078e-06
1.625371388634857e-05
0.0001196753933356009
2.005210621103991e-05
2.865289914704621e-05
8.542020057089173e-05
0.0001259526908288484
0.0001133556708681821
0.0001632480939203654
4.529268451369941e-05
0.0001010452154361839
7.959177516008447e-05
9.381210775670153e-05
7.79963199603702e-05
4.493730894039553e-05
0.0001030989936807144
0.0001078312276400938
9.779230618588162e-05
5.449624720234717e-05
4.804186907170948e-05
3.74551338086502e-05
2.331714703244166e-05
7.959242238682394e-05
1.305959280352611e-05
3.525757487291964e-05
2.638850666592135e-05
2.061185261007606e-05
1.71042279947786e-05
0.000162556918905316
7.028886293497885e-05
0.000113634123073441
3.500873916302551e-05
7.050982893995625e-05
2.374242905433553e-05
2.815871327987139e-05
3.860778186956477e-05
3.863959538376706e-05
0.000111477773961897
3.683476294603588e-05
4.493956273338079e-05
3.348060482469997e-05
1.780079286186491e-05
3.877393398394638e-05
2.247920117877165e-05
1.683350924252549e-05
5.891184747928258e-05
9.40363188061368e-05
4.989533381756879e-05
0.0001186752688192311
0.0001023594394843258
3.38272877932709e-05
2.746280037566528e-05
3.941167227140106e-05
2.260274607095043e-05
4.625992758787053e-05
2.583677066715134e-05
1.02959985745459e-05
1.658845554146738e-05
9.121921940602031e-06
1.692905910603701e-05
0.0001123283220298636
2.113930796737383e-05
2.867648505921856e-05
8.660122645644062e-05
0.0001317453166825605
0.0001086184727081448
0.0001651344342142445
4.825298127013885e-05
0.0001002354794261869
8.253172734288252e-05
8.557125171705506e-05
8.263837571054975e-05
4.391743020627324e-05
0.0001024250179012027
0.0001051917446210932
9.638356698443538e-05
5.48162005845851e-05
4.918639362376673e-05
3.857412656925933e-05
2.375169255596915e-05
8.0827232515602e-05
1.335710341646573e-05
3.527073598757044e-05
2.647635624802038e-05
2.064224965688917e-05
1.731029688658841e-05
0.000166021726795821
6.554617822658724e-05
0.0001141268985457769
3.588192675370648e-05
6.921956370642906e-05
2.289828081768094e-05
2.833125470531523e-05
4.029194967054034e-05
3.980558019828246e-05
0.0001120322020852642
3.72374126239535e-05
4.720194609349451e-05
3.163133122295437e-05
1.840239847916596e-05
3.892111170047912e-05
2.306915999049078e-05
1.702077115590234e-05
4.63766724657885e-05
0.0001622006912070229
0.0001281695430842372
4.397526203282985e-05
0.0001309123640027999
4.925193649494142e-05
3.200596246662417e-05
5.461200998277409e-05
3.08350782511068e-05
6.530537438407693e-05
3.661895127899155e-05
6.990694569735114e-06
1.61223547933837e-05
1.538266142198941e-05
4.250681212109704e-05
1.598005953757109e-05
3.414329085591989e-05
1.497130426557184e-05
6.250682738423215e-05
0.0002605745256362209
4.684131911947471e-05
0.0001559947720248242
7.011577068727396e-05
6.462731812544542e-05
0.0001392709347065508
4.701477791978741e-05
0.000172393952488663
6.972921097969348e-05
5.587655157417112e-05
5.248284839783892e-05
7.0864297550453e-05
3.462637152612494e-05
3.584138074680717e-05
4.267415329807849e-05
2.964670995511506e-05
0.0001086015670818043
2.807119828056565e-05
4.669919024860801e-05
5.215774626653633e-05
3.929370533217566e-05
2.25864961504395e-05
0.000178540126354607
9.581270416883945e-05
0.0001398128174519639
6.115478033160417e-05
6.532866969736529e-05
1.378606264146106e-05
1.795596314918686e-05
8.512986093889628e-05
7.285611934648221e-05
0.0001428853467637684
9.064776106994375e-05
6.196028307816389e-05
1.359563578957387e-05
3.134467721860718e-05
4.711645480757521e-05
3.036245939690827e-05
1.730664710565945e-05
8.808002964468365e-05
0.0001629568402371108
0.0001150066907162554
3.777295723331429e-05
0.0001182719954077961
7.042870808373551e-05
4.4814643824651e-05
2.858579636436303e-05
1.240093766749648e-05
6.890503339703371e-05
3.994677519604395e-05
1.602268641009986e-05
1.227145632181936e-05
2.595611960209853e-05
6.018462404156949e-05
4.096465811131407e-05
1.618027891300634e-05
1.588945405493293e-05
4.079891430080192e-05
0.0001995204388697642
3.723475196496449e-05
3.916979325312132e-05
0.0001042927466630257
3.184083217485799e-05
0.0001519175482854507
7.167959007252599e-05
0.0002491196953229593
0.0001501662537080353
2.48994560326601e-05
4.819516241787994e-05
7.341602346781905e-05
2.647701318797e-05
3.24917234118247e-05
4.403708313285632e-05
3.270118969236927e-05
9.925618108467476e-05
4.566456532601953e-05
3.846679012310098e-05
9.580600165622911e-05
3.627817062664655e-05
1.97536991918117e-05
0.0001705224451346445
0.0001364763359131501
8.201018211395685e-05
8.973934896695089e-05
9.339135699512204e-05
2.80952398648432e-05
1.083503079252561e-05
0.0001110106319856748
0.0001263293062600921
0.0001176743670406249
8.328643525010981e-05
8.654707119111193e-05
1.287049498368124e-05
4.017768684592853e-05
3.469764945595968e-05
4.023437759218415e-05
2.529693573172082e-05
4.44674329239074e-05
0.0001152076240807592
5.733268236355898e-05
9.843447921321181e-05
0.0001752864601652913
7.258985598335967e-05
5.463100239060946e-05
3.007669876079932e-05
1.806595009963164e-05
4.010637101289543e-05
6.314315720878314e-05
4.247459137143303e-05
2.225102995745527e-05
4.262625742416344e-05
0.0001048391473478201
4.424976451504148e-05
4.824241831785416e-05
4.410591718568618e-05
3.159172010634782e-05
0.0001377058354900968
2.288694484286466e-05
2.79551434320756e-05
7.174520032267918e-05
2.335056072256753e-05
9.775128139934063e-05
0.0001787093531825483
0.0002113059593489693
0.0002052911719382517
2.589689825324044e-05
4.102669110708207e-05
0.0001000227598625541
6.229151201710626e-05
2.05743547205962e-05
1.854352795988539e-05
1.517347753383919e-05
4.6154472900745e-05
4.262319054915149e-05
3.734644653339531e-05
0.0001355647731837256
4.044068883555489e-05
2.576680742660246e-05
0.0001157061368022692
0.000190451794303933
8.382768637062789e-05
9.998650072395255e-05
0.0001369626139947995
5.002790548413526e-05
1.25182743156209e-05
0.0001183904509591162
0.0001299771474321177
7.571372768281449e-05
0.0001830432761365149
0.0001093076742987509
5.862261565906401e-05
4.5086270492441e-05
3.632434459897482e-05
4.354104723747031e-05
4.068366321919457e-05
2.465904547851397e-05
4.708929547250385e-05
2.416575675166294e-05
0.0001393336717228035
0.0001358665576734961
0.0001624538587975206
4.181612967522897e-05
2.693124776767633e-05
1.051902773680238e-05
2.827520887976727e-05
4.27532111535995e-05
4.000841955246258e-05
3.411870123234845e-05
6.1188905407115e-05
7.617697758580836e-05
3.952204326460832e-05
0.0001213728309709781
0.0001048317658258291
2.282904731471693e-05
7.03488112187389e-05
1.079725006207027e-05
1.474475150839598e-05
3.480778651424347e-05
2.438877576799519e-05
3.774184157475873e-05
0.000149986651998911
0.0001255074010067332
9.583922621606543e-05
4.745807881356124e-05
5.096952942724146e-05
0.0001389214196006307
6.635130070953918e-05
2.152456646819708e-05
2.159461356902714e-05
5.287009607645352e-05
1.788525508192911e-05
2.629774524394606e-05
3.048985936493957e-05
8.484889444171281e-05
5.226576427276785e-05
2.557293959104969e-05
4.649612075256696e-05
0.0002349794388886679
5.351178446579973e-05
0.0001051176443855487
0.0001964036257018044
9.658285668275543e-05
1.771749423589118e-05
7.686074155380369e-05
0.0001062851418406696
3.909345949845555e-05
9.574747772862446e-05
7.168135652693065e-05
4.220727862980721e-05
3.318894308450385e-05
2.721787174432869e-05
4.7486675705404e-05
3.746593145967551e-05
3.131960891589815e-05
4.26661934688318e-05
3.273669802567064e-05
0.0001560222104071856
0.0001833628438755469
0.0003187850542465701
3.253013694534041e-05
1.539320061295014e-05
2.168958023922611e-05
3.762025087154451e-05
2.354112721577067e-05
4.640671543873163e-05
5.485751144435296e-05
8.031986863598942e-05
4.697022055852981e-05
4.098526984855742e-05
0.0001234801880423035
0.0001283595265230871
1.673349497864189e-05
5.334592918864065e-05
1.732742726725733e-05
8.529443785567599e-06
2.71279733648962e-05
3.027314830050215e-05
2.366984001439411e-05
4.278419326311111e-05
2.403013586198721e-05
7.770220553244807e-05
5.363686846195209e-05
4.754101022938097e-05
9.318199761342228e-05
2.358178264066621e-05
2.89554396042574e-05
1.666032109641729e-05
3.295659275988069e-05
6.548467872324734e-05
3.675541646301105e-05
2.348212394603457e-05
5.699534641986307e-05
2.822131726256451e-05
3.268175164536437e-05
2.400137691114046e-05
0.0001739769775157886
6.724234953656583e-05
9.386704783363237e-05
0.0002441649255095572
0.0001204734582987822
5.640927358349431e-05
2.906327840890681e-05
7.894662150597501e-05
4.318084376188513e-05
4.764407391251668e-05
3.904036156164154e-05
5.351262269347651e-05
2.681866319690703e-05
4.596862633737772e-05
5.182965059205286e-05
2.837107006596093e-05
3.862131591894547e-05
4.637777938572393e-05
3.071623131926818e-05
0.0001029867035717293
0.0001779789452767214
0.0003780090998166481
2.591208069698895e-05
2.022759124319662e-05
5.952732474114321e-05
6.313303202947757e-05
2.669463203398934e-05
3.789742076540408e-05
7.370780839383694e-05
0.0001625475831977825
2.87538214899782e-05
8.833707936337291e-05
3.994569746393143e-05
4.342495342577625e-05
1.864333100138542e-05
0.0001356066923909259
7.06349994092452e-05
1.538729258463748e-05
3.130298180413763e-05
6.164319301620468e-05
3.455597217439886e-05
6.720314779279975e-05
2.676056671800568e-05
0.0001035594097785027
0.0001289956432316977
5.092808485750826e-05
3.841414951417462e-05
2.752915472760883e-05
3.317697837920469e-05
2.495308259106433e-05
3.025516735642452e-05
0.0001259887707667559
6.149452631042369e-05
1.823848576029591e-05
2.419266932927031e-05
2.248933617513078e-05
2.698905452536292e-05
4.654752456905432e-05
7.0707448446469e-05
5.280904007280835e-05
0.0001478988405408354
0.0002304325431756364
7.013738156768012e-05
0.000112136916711291
1.614005062678299e-05
6.33363425636441e-05
3.85476785605361e-05
4.212767153807711e-05
3.967148443403102e-05
8.247437163822174e-05
4.693482356100781e-05
0.0001356971428505751
0.0001740989790502917
4.827808966955496e-05
6.43508234112693e-05
3.151366448350374e-05
1.89834155571761e-05
4.037216030922196e-05
0.000107349615327433
0.0001743586100938073
1.810281300489926e-05
2.053552076064074e-05
9.992918668909894e-05
6.100869091998967e-05
4.143962198703734e-05
4.409467183329591e-05
5.100491670047156e-05
0.0002934240490626952
5.735600277366675e-05
0.0001152525026173874
1.979308565876676e-05
3.118575951344731e-05
4.57735243285066e-05
0.0001017564997142059
4.533540364718378e-05
1.820227625219544e-05
5.500446044715369e-05
9.150159011285075e-05
7.519067915886331e-05
0.0001234137421106596
2.025849962075573e-05
0.0001030955978026025
6.522169243583574e-05
5.465966192615543e-05
6.048844136057673e-05
9.823660677348108e-05
0.0001021342786391247
7.472049636972167e-05
2.845370739489681e-05
0.0001299250247867809
4.518240218592367e-05
2.662263837304773e-05
1.32466829326858e-05
1.003550615124569e-05
2.798101505155686e-05
5.487174177014694e-05
5.94816966674752e-05
8.675151961741009e-05
0.0002576065553607605
0.0001368638662297143
4.930611113421875e-05
0.000144031389465115
3.242453630034129e-05
8.212409308715927e-05
2.902659054234648e-05
2.869575563166163e-05
3.171672180526254e-05
4.420986644898977e-05
8.582669412034962e-05
0.0002814247183311757
0.0003322249209722089
0.0001388904637848569
4.703138276970142e-05
4.059988242791842e-05
4.04224128248368e-05
2.271353995768704e-05
2.388450334790451e-05
4.149513227121255e-05
2.343151604736533e-05
2.059440204195383e-05
0.0001097181301215561
3.22218403552948e-05
0.0001043642224450329
0.0001372406930617137
8.17012907708388e-05
0.0003149568420609369
0.0001592742457668166
7.142237985582049e-05
5.780634859260994e-05
9.432005347261995e-05
0.0001171843539606864
5.391599423445447e-05
4.339639196162971e-05
7.936490910223373e-05
6.094645512339388e-05
6.869976131668371e-05
4.358639233100015e-05
0.0001138650055934575
4.607748594731418e-05
5.011420779398199e-05
3.327332421314023e-05
8.584941477847793e-05
0.0002170581659159616
0.0002229833469602075
0.0003994609385710989
0.0002544755329883257
3.429868153032084e-05
8.935069703306105e-05
6.596312391360966e-05
5.878815510264979e-05
4.78562836657103e-05
2.028422912825269e-05
3.742711910477741e-05
3.882078691697598e-05
6.906155412249978e-05
0.0001077755892040499
0.0002002315547412083
0.0002542260520195229
3.964835971309024e-05
0.0001834163667856991
4.771722021259373e-05
0.0001582602171730709
4.527596835877521e-05
2.797044538209135e-05
4.279192592378702e-05
5.126560819200086e-05
7.112411573152466e-05
0.0001788642754970265
0.0005323171808905535
0.0001598889421976206
7.41301277763133e-05
4.817271260493544e-05
4.143514626485763e-05
2.048220505347885e-05
2.209666691705464e-05
2.091837546542494e-05
1.944366501583105e-05
4.796332904198871e-05
0.0001659728847648707
5.034792550648501e-05
0.0001705100276386251
0.0002015278576282828
0.0002391634540956665
0.0003092523890075487
0.0003856283626932424
0.0001158200638528014
4.139343732457299e-05
7.204890485802149e-05
0.0001182767269865887
8.370261183210514e-05
0.0001303920132060622
0.0002380153269173441
0.0001460781196027058
7.577557856118788e-05
1.948751896810671e-05
4.038001594402381e-05
8.475963269414457e-05
5.905378331139876e-05
6.48934940777636e-05
0.0001278833053819713
0.0003271905177084978
0.0003801913814235765
0.0004004675495423341
0.0002951912597762513
3.980116757114426e-05
6.962942766395043e-05
7.329161942420785e-05
0.0002153005863800835
0.0002541752678931346
0.0001307198408692373
4.911455848539373e-05
5.009631817301356e-05
0.0001034109392350519
0.0001920125321235828
0.0001206266546191718
0.0002838787242200259
7.849372159455826e-05
0.0002196452721387551
0.0001702322027130468
0.0001004334348568257
4.391258796237748e-05
7.373902113169518e-05
4.91859500927286e-05
6.267538223635176e-05
0.0001673757502901537
4.602969374928414e-05
0.0003153497337583366
0.000170039884199064
0.0001566212096810246
0.0001044917534291652
3.892007989490235e-05
5.900705014329414e-05
2.315014322281136e-05
1.838986953914533e-05
5.028648140517042e-05
0.000150815030325947
5.997651223813215e-05
0.0001384644321843189
0.0004762600716180609
0.0002093679587960146
0.0001136738601326553
0.0001078878754483295
7.844416234132645e-05
9.223467314465079e-05
2.942397652804189e-05
2.726465263435127e-05
6.324136112107755e-05
0.0002552023660723363
8.29538009088149e-05
0.0002056066997671401
0.0002233824720819832
3.211403413348504e-05
4.619983892391059e-05
0.0001413796758584386
7.622298302207087e-05
8.605614881571068e-05
0.0001402577307087457
0.0001364413609751436
0.0001784534222625051
0.0002705924339408718
0.0001833303815591772
7.627403572886935e-05
0.0001705232104098261
6.585910459245955e-05
3.578145749043885e-05
0.0002119799462598883
0.0004123469514634889
0.0002607138844842255
0.0001157169069403627
4.041929742423209e-05
0.0001799520337949214
0.0005248688375820875
0.0001300035863263364
0.0001051162885081669
4.145878156180377e-05
9.338727221716964e-05
0.0004016802418134186
0.0002868802724235579
0.0001401115969013212
6.716716096240806e-05
4.51399672024381e-05
6.626700458626757e-05
7.146553548839352e-05
2.650754196024984e-05
8.403040300324581e-05
9.282366247938426e-05
0.0001317169795941919
0.00027539939671888
0.0001679587030599948
0.000238549506013132
7.026832081946678e-05
2.7835795558572e-05
3.179700738020605e-05
7.876196778914792e-05
2.84349861675588e-05
5.050037773158293e-05
0.0001697619495519696
7.57504966590292e-05
5.312950088998781e-05
6.378885830140317e-05
9.263459366506809e-05
0.0001106913070722642
0.0001019715432603909
0.0001030218627901175
0.0001317778752672632
0.0002615550506489254
4.045810394187031e-05
9.139258312799538e-05
0.0001783993118869783
5.508981076053487e-05
2.675775145345295e-05
0.0003480389372415591
0.0001653105689564951
8.33269361915464e-05
9.07827846457177e-05
0.0002707486409109455
0.0001148955776342922
0.0001597574523361298
3.511170667404361e-05
5.894929735706973e-05
0.0002353077186242746
9.844935114764215e-05
9.776516601355033e-05
0.0001531692979923455
0.0001020995579248641
7.342944050720681e-05
5.752636147935364e-05
3.381442071835592e-05
8.451260065824335e-05
0.0004219763246144475
0.0004981011301822999
0.0001271486927953205
5.802287542132126e-05
8.71383890141233e-05
0.000181700913521813
0.0001469309935380052
5.558465685559619e-05
0.0003220780003945927
5.299026391233897e-05
3.804922193553786e-05
4.163787748596252e-05
2.245801490700425e-05
2.728463922179516e-05
2.990884588461118e-05
0.0001250718447711812
0.0002908825341864328
0.0002223167922152153
0.0002604796268452036
6.90526615184804e-05
2.756713483983525e-05
3.72693633375941e-05
7.341572254047809e-05
2.670037961172615e-05
4.771573253476603e-05
0.0001339200767356349
7.089216643948581e-05
5.302747979261919e-05
6.247216971662612e-05
9.512474895134741e-05
0.0001020650139471942
9.931792948523207e-05
9.742321400128137e-05
0.0001278643656583513
0.0002304008340310746
4.09456214607284e-05
9.171430952316126e-05
0.0001624235178145511
5.920385686090217e-05
2.92358245185733e-05
0.0003805746145797595
0.0001570917311889503
8.997159022792216e-05
8.495348072343504e-05
0.0002762471917806202
0.0001361699005327158
0.0001455408825147383
3.295856343735015e-05
5.70413426912851e-05
0.0002195377480797623
9.159761377536549e-05
9.595997167067789e-05
0.0001462808377864924
7.843248329829294e-05
5.512627192695215e-05
4.772555845825342e-05
3.543608619806627e-05
8.749819851003947e-05
0.0003626842606971096
0.0005172353388009074
0.0001268578477874914
5.815318480768445e-05
8.435685297677864e-05
0.0001378609842113443
0.0001435560103155357
5.867525660997345e-05
0.0003301762333206533
5.241472701718187e-05
3.446850662466992e-05
3.754808426385133e-05
2.575991096864778e-05
2.749994709691816e-05
2.856160827200968e-05
5.884134929712519e-05
0.0003672976732684069
0.000514692573656098
0.0003474714276006742
0.0001139611905205951
2.33313084318475e-05
9.929215268819706e-05
7.042253435564704e-05
1.096088795289533e-05
5.195864278592996e-05
6.254947262426324e-05
5.776324796229985e-05
5.466997623520978e-05
9.913698282146345e-05
0.0001104149197963477
8.861071009990987e-05
7.753643640908403e-05
7.296492737544537e-05
7.669836582408384e-05
9.056702080238067e-05
8.814287914560813e-05
8.51894472076525e-05
4.423828862330641e-05
7.483207357979359e-05
5.504636646506943e-05
0.0003801925223893479
0.0001091636333405142
0.0001465223740230091
5.002395241268035e-05
0.0001625524826089736
0.0001300527465611235
5.989734648292777e-05
2.907242346451212e-05
4.142653146952038e-05
0.0001649560617618519
8.665364379584874e-05
7.502345564035242e-05
0.0001392607894092335
0.0001072038957318838
2.899068843664922e-05
5.677106903257599e-05
4.058784896697839e-05
5.432510402309278e-05
0.0002056030796386485
0.0004769339955324014
0.0001734159433928533
5.132578171239765e-05
4.860868290581566e-05
2.449851273879687e-05
0.0001420206520175467
0.000107535442891666
0.0002356785796761046
8.43566958788373e-05
4.660856525243877e-05
4.126904966634885e-05