/*--------------------------------*- C++ -*----------------------------------*\
| =========                 |                                                 |
| \\      /  F ield         | OpenFOAM: The Open Source CFD Toolbox           |
|  \\    /   O peration     | Version:  v1812                                 |
|   \\  /    A nd           | Web:      www.OpenFOAM.com                      |
|    \\/     M anipulation  |                                                 |
\*---------------------------------------------------------------------------*/
FoamFile
{
    version     2.0;
    format      ascii;
    class       volScalarField;
    location    "0";
    object      p;
}
// * * * * * * * * * * * * * * * * * * * * * * * * * * * * * * * * * * * * * //

dimensions      [0 2 -2 0 0 0 0];


internalField   nonuniform List<scalar> 
2494
(
-1.576163304428691
-2.039789901333745
-2.112403407420668
-2.143563674837877
-2.158018945690165
-2.163003453221726
-2.158952026719217
-2.16653137751792
-2.17231763934529
-2.163794215071765
-2.179656243072897
-2.174578537807491
-2.178635853191479
-2.185655613527442
-2.186771103728452
-2.194666167397476
-2.194302185074605
-2.188263268968039
-2.181318748560773
-2.193586626642677
-2.19996654895815
-2.193943607932042
-2.185417538045917
-2.175735195010438
-2.1894762920572
-2.19368506198104
-2.189869244111278
-2.203571049355323
-2.189381305495708
-2.196693423261678
-2.192553299673649
-2.198730104301433
-2.195687531641576
-2.196466189123541
-2.190867267587792
-2.171844255426885
-2.173107136591005
-2.184706763377001
-2.183886136717409
-2.183989796030558
-2.174712398153419
-2.176310337156943
-2.17799082425412
-2.177150965828768
-2.179130792532084
-2.17886272810636
-2.172343850792871
-2.1684061638715
-2.164698231398488
-2.16301944635607
-2.165709342409987
-2.159467943651375
-2.160493438369319
-2.153339433583296
-2.150426917835258
-2.141589507910102
-2.089715340783744
-1.964852022359604
-1.580641873354741
-2.040008694239875
-2.112435655627264
-2.143575704305599
-2.158057222181525
-2.163042809715507
-2.158950283497347
-2.166515603248
-2.17229810505342
-2.163701438752338
-2.17981450766666
-2.174589990796051
-2.178589710787273
-2.185645730925552
-2.18677832295437
-2.194710035164682
-2.194309640839213
-2.18825368256516
-2.181246050673051
-2.193616828491908
-2.199985349340156
-2.193946532190016
-2.185435160059554
-2.175620764172612
-2.189400498676048
-2.193683374726049
-2.189953716399225
-2.203657560999173
-2.189332267079533
-2.196727556142607
-2.192566855424156
-2.198751568493377
-2.19572723378278
-2.196484647911889
-2.190934200580727
-2.171844791565925
-2.1731105736687
-2.184715624121742
-2.18382390543673
-2.184007073864114
-2.174678591578076
-2.176332557256458
-2.177995216239456
-2.177149986291987
-2.179147778960346
-2.178881917588905
-2.17235755006482
-2.1684070806488
-2.164694549849981
-2.163021435373829
-2.165731564540891
-2.159459078508587
-2.160525693773479
-2.153336126860407
-2.150424598557098
-2.141624817320827
-2.089723480982419
-1.964711998458232
-1.754305175043608
-2.048547262965115
-2.114205323808472
-2.144083249756418
-2.158498978088442
-2.163788183068052
-2.159648967085755
-2.166133639270773
-2.172142866379046
-2.163000085514327
-2.181133299447401
-2.174525758990414
-2.177399347979919
-2.186135514323556
-2.187953328399182
-2.19550951057391
-2.194649742122959
-2.187527907240839
-2.180523508958161
-2.193873052220906
-2.200302864772079
-2.1942105304418
-2.186958155256892
-2.174160201600434
-2.188470667568884
-2.196332302699739
-2.190577539698065
-2.20443673339114
-2.189077132142879
-2.196774529267132
-2.192756434369645
-2.199183135368131
-2.197298677806849
-2.197396873243196
-2.192078373980049
-2.171744831241983
-2.173450601107378
-2.185044230273451
-2.183959598666189
-2.184328201144966
-2.174099809724209
-2.17666833071212
-2.178199998701128
-2.177160595162427
-2.179428642663785
-2.179339643850437
-2.172524472681981
-2.16837918837169
-2.164795546315343
-2.16318419993233
-2.165968376015026
-2.159465895052716
-2.160901348757954
-2.153922614793193
-2.15043756843894
-2.142106234284823
-2.09146872879949
-1.976380527823538
-1.76129364139983
-2.049157571017387
-2.114345838840781
-2.144142467315222
-2.158519652189715
-2.16383196310254
-2.159708787397366
-2.166138132794053
-2.172153481050308
-2.163017785173268
-2.181115355142906
-2.17449105151022
-2.17728421358833
-2.186178304005708
-2.188018150198328
-2.195570834251108
-2.194683675220709
-2.187466118248378
-2.180491034138464
-2.193883159544356
-2.200315375145934
-2.19420668458954
-2.187075134948008
-2.174045024759706
-2.188367098427472
-2.196700026905276
-2.190545290285354
-2.204471882666387
-2.189137697213412
-2.196767601702998
-2.192803465182484
-2.199157993996378
-2.197383142370934
-2.197474595187045
-2.192121739334756
-2.171734429160601
-2.173484826806197
-2.185042145571481
-2.183970256086968
-2.184304119605212
-2.174078299145826
-2.176683092404339
-2.178220276848103
-2.177151185100628
-2.179444327100824
-2.179372583136683
-2.172543439982595
-2.168385493048121
-2.164797322710861
-2.163192126082534
-2.165972225465548
-2.159494190698649
-2.16091468435835
-2.153986552147072
-2.150480227849522
-2.142092359854864
-2.091670447430526
-1.977626838845344
-1.877173174692256
-2.061645640914865
-2.116992558646364
-2.146696377418931
-2.159625597889969
-2.164256439554041
-2.160943911156569
-2.168132340549423
-2.172778442950542
-2.164294465352989
-2.179275046751424
-2.174350585767479
-2.175022428349092
-2.187021190644605
-2.188888087425007
-2.19742164848726
-2.195688186959472
-2.187506503683841
-2.181172800614632
-2.19458026665819
-2.200548365154992
-2.194890198682272
-2.189563334182762
-2.174463185010201
-2.186000932589697
-2.204942027801016
-2.189647074130201
-2.203664054098986
-2.191322779848534
-2.197072685672917
-2.193146902351732
-2.198370055189495
-2.198799665578271
-2.199610159413375
-2.193079232543666
-2.17155977885498
-2.173405693162936
-2.184891076226575
-2.185258438759344
-2.183983376663029
-2.173925080308723
-2.176699423724287
-2.179134880027874
-2.177499803375199
-2.180171693786742
-2.180285198524887
-2.173511261543605
-2.168508671903592
-2.164614961138404
-2.163489954623468
-2.166008931427591
-2.160851250406997
-2.161376835835068
-2.155171762650086
-2.151979892174086
-2.142295601054224
-2.095925094070176
-1.999099306086846
-1.88216149507192
-2.062402195122443
-2.117171017484517
-2.146833464250005
-2.159658652320282
-2.164275023084387
-2.161005199262534
-2.168239080827489
-2.172835693336308
-2.164432533464287
-2.17905699460949
-2.174317731941082
-2.175011477537033
-2.187013303075213
-2.188907668914213
-2.197527761499071
-2.195783923284484
-2.187498423064079
-2.181199765599147
-2.194657141967165
-2.200577369004168
-2.194924629974248
-2.189716897871653
-2.174557166972831
-2.185949803410311
-2.205498007608633
-2.189438461325876
-2.203506178821871
-2.191434959081767
-2.197038040898035
-2.193093854750704
-2.198319601658707
-2.198856200476607
-2.199721688080788
-2.19309195642317
-2.17154840888387
-2.173400578302376
-2.184908199295979
-2.185390795557668
-2.183977230070826
-2.173925225206358
-2.176692481796205
-2.179191183047792
-2.177531786069812
-2.180197103369875
-2.180349972198516
-2.173548043900271
-2.168513465156964
-2.164618924214582
-2.16350918734346
-2.166020962895902
-2.160917478243188
-2.161402030923699
-2.155244858117171
-2.152032023082973
-2.142314518780804
-2.096281353458456
-2.000316872891579
-1.952018314025148
-2.075589422876989
-2.120361184521904
-2.14921567489886
-2.161265262348027
-2.165198409840056
-2.162221423959365
-2.169946150764113
-2.172864657198947
-2.166244752016552
-2.176615692149988
-2.174491707242177
-2.1762842095308
-2.184606440377878
-2.188056716048092
-2.199355045756509
-2.196996095675214
-2.187635952506146
-2.182155592070208
-2.197186437168515
-2.201172467109185
-2.196515691247524
-2.191525788031526
-2.178210805383201
-2.185815380829703
-2.210958039043954
-2.190543925447274
-2.200567080990481
-2.193596625352657
-2.196969008346283
-2.191885067757694
-2.197851564719775
-2.199347874949819
-2.200918313787903
-2.193533824783971
-2.17248867200838
-2.173664127947747
-2.185436048218
-2.187254570278307
-2.184369786625326
-2.174316342661926
-2.177164518645462
-2.179948592909264
-2.178603226614072
-2.181080824388078
-2.182025241363276
-2.174903585360956
-2.16854557019768
-2.164614316898879
-2.163687940718059
-2.166354894360271
-2.162597696836925
-2.162563435899594
-2.156457004481952
-2.15271672953375
-2.14362614042915
-2.102740371757073
-2.018057785611675
-1.955470733911993
-2.07639332277251
-2.120581439058333
-2.149269035991086
-2.161350762699964
-2.165272484784384
-2.162280835979121
-2.169995227984533
-2.172863571567392
-2.166377733593406
-2.176471125926667
-2.174463534398024
-2.176473829766203
-2.184521608876905
-2.188009439745101
-2.199417891232219
-2.197100510007166
-2.187635304544293
-2.182116850973155
-2.197310780209862
-2.2012064363378
-2.196613431690177
-2.191582692683506
-2.178455031654857
-2.186007299660421
-2.211062240630345
-2.190581563901081
-2.200348364996307
-2.193690133559727
-2.196948275111557
-2.191729575876665
-2.197814143604748
-2.199324343166107
-2.200944105353019
-2.193513185052177
-2.172607626737185
-2.173683420104127
-2.185501107286434
-2.18733831287209
-2.18438960077314
-2.174317031018973
-2.177173800251109
-2.179985368591338
-2.178666747202697
-2.181116234901325
-2.182126960267676
-2.174948481973066
-2.168535109906013
-2.164633949107358
-2.163666945178352
-2.166345118092421
-2.162690556890642
-2.162633690379908
-2.156531621401889
-2.152728470028821
-2.143692361674599
-2.103195224850452
-2.019256959173219
-2.006013211453078
-2.089326106784027
-2.12453080587259
-2.150442405493052
-2.163840620676316
-2.166752091173801
-2.163076737327838
-2.170082157219987
-2.1723996336704
-2.168082154831555
-2.175347985754738
-2.174613529605523
-2.177393716821828
-2.182663558255183
-2.186451655080969
-2.19901879855637
-2.19883018694141
-2.187142125682014
-2.180412780574839
-2.201527688654611
-2.20088550108567
-2.197910333828647
-2.191747346461633
-2.182033635458362
-2.188792149266928
-2.208712559212477
-2.193361126155619
-2.197760888816256
-2.195120651789592
-2.198439683603097
-2.19042827075596
-2.196738099599527
-2.197982891063779
-2.199777457244894
-2.193658421659017
-2.175622149597397
-2.174608184180813
-2.186194677065413
-2.188375237670975
-2.184723278024268
-2.174761332202904
-2.177901748090805
-2.180730316678652
-2.179731272375677
-2.182459142512772
-2.183824874122916
-2.176197265755321
-2.168335532287004
-2.164901088737331
-2.163514792537672
-2.166064386109703
-2.165185417100108
-2.164469837803233
-2.1576200995447
-2.15298453985611
-2.145686369581502
-2.109958021124338
-2.04207200856486
-2.009204384203951
-2.090141463640763
-2.124801043725874
-2.150439137187908
-2.164020386971838
-2.166858614441381
-2.163129338991609
-2.170039149248967
-2.17235866411633
-2.168196081444147
-2.175275961653214
-2.174610385929554
-2.177480448980961
-2.18262859683255
-2.186476010083565
-2.198806626987876
-2.198908458974961
-2.187148158258652
-2.180282936751317
-2.201778566896004
-2.200790920095463
-2.197937012699627
-2.191755878974005
-2.182246298494261
-2.189025860571452
-2.208388923281095
-2.193595930047874
-2.197677039740172
-2.195176457310541
-2.19860836531375
-2.190402310191211
-2.196662150550142
-2.197858727073178
-2.199689768164416
-2.193657848807936
-2.175839205142994
-2.174683106479022
-2.186230916883046
-2.188435140553173
-2.184723839058907
-2.174777398201556
-2.177921771333672
-2.1807718607961
-2.179772945718108
-2.182529539475031
-2.1839215460707
-2.176256133501584
-2.168326016640673
-2.164957875862598
-2.163495034620513
-2.166027034618801
-2.165330697443785
-2.16459325257554
-2.157693815361576
-2.152977664146654
-2.14579778110755
-2.110383434116591
-2.043965920108488
-2.05224567309364
-2.102578090151969
-2.129478100882571
-2.150982781017313
-2.16714601385959
-2.169249504563265
-2.164010143818935
-2.168873236311441
-2.171456141021884
-2.169344724687185
-2.174937717780871
-2.175012171295105
-2.178885524508474
-2.182965337500876
-2.187923540708542
-2.195864515246444
-2.199801669123673
-2.189141445206177
-2.178937288924986
-2.207500045911882
-2.19922092335021
-2.197158446626872
-2.192469832908597
-2.184354937618669
-2.191034681424313
-2.204926128057149
-2.195491194913103
-2.197527169990252
-2.195621618094488
-2.203201379912051
-2.193526466010221
-2.195395027583467
-2.195958026920904
-2.197985122027027
-2.194090164139595
-2.178825363548241
-2.175921016781138
-2.186229931430588
-2.188948830275394
-2.18478638890639
-2.174956510676933
-2.178138791673677
-2.181939555363416
-2.180602373420133
-2.184101694039459
-2.185500539086546
-2.177596026567527
-2.16842303620644
-2.166186882713868
-2.164015140512615
-2.165542520008676
-2.167858422734775
-2.167251912256363
-2.158922879903242
-2.153116237256853
-2.148250529550059
-2.117361422210783
-2.072632332121271
-2.08755040042597
-2.114003571780911
-2.134109100280412
-2.151852634689627
-2.170247502909341
-2.172371763488753
-2.165051585021194
-2.167417996766854
-2.170661218830738
-2.169395277008248
-2.17447554560247
-2.175255258151182
-2.18030481877194
-2.184450279385562
-2.190008243812122
-2.194705955490674
-2.19830734270861
-2.19096040423846
-2.180331423988533
-2.210504340490084
-2.199024020811143
-2.195122276048644
-2.193448967882207
-2.185148447089766
-2.191226752161526
-2.204375667004371
-2.196749573964464
-2.199112149766794
-2.196987214877093
-2.208178273205337
-2.202461419241094
-2.196516824391957
-2.193199979152766
-2.195653103432458
-2.194054212004645
-2.181346757810558
-2.177249857638256
-2.185815584200491
-2.189693327234288
-2.184657569317913
-2.174873964714561
-2.177720832613689
-2.183363223546241
-2.181464908386578
-2.185742901949621
-2.187645358052254
-2.179524227968307
-2.168735908194797
-2.166556872291379
-2.164333079019592
-2.164356897321304
-2.16951191944471
-2.169016114806891
-2.160375702511632
-2.154526777021984
-2.150397821251064
-2.125299223819592
-2.100869599213732
-2.115687859565243
-2.124701418529311
-2.138533418343638
-2.153311697439845
-2.172762548008444
-2.176189405538461
-2.166020548817368
-2.166574310267052
-2.169677148323562
-2.168844960627876
-2.173725297955994
-2.174982226120842
-2.181296651338553
-2.186521985928417
-2.191472398480909
-2.194917482563735
-2.19716261846202
-2.191865322208727
-2.183375701422678
-2.207943964950856
-2.198885985664552
-2.193749373163686
-2.193578566904151
-2.185297284222163
-2.189686607238287
-2.205329342708956
-2.196949495663921
-2.1998106253177
-2.200204232645073
-2.21006406401109
-2.20967110648586
-2.198209003397084
-2.190132684061888
-2.192699001759227
-2.192909592859587
-2.183042957218213
-2.178371954837406
-2.185326980313886
-2.189983152441073
-2.184474393312484
-2.174675068164766
-2.176884777478157
-2.184074896455603
-2.181846235790579
-2.187314985319398
-2.190190153906965
-2.181892830983662
-2.16920270519577
-2.165093677160649
-2.163293307866673
-2.162249434916947
-2.167846980855356
-2.167470328795521
-2.161434036088399
-2.156982372089557
-2.153076695362003
-2.135430639065992
-2.125190226625053
-2.138319057677417
-2.135208888898136
-2.143044723391266
-2.155001193521239
-2.174037581559845
-2.179951139855393
-2.16651524014817
-2.166199122941302
-2.16893392070337
-2.168636179147306
-2.172789169352752
-2.174255323735462
-2.181747076987692
-2.189172556645669
-2.192321022328918
-2.194834293652919
-2.196471969413019
-2.192958984810272
-2.187156827124589
-2.203545361627852
-2.198692707215545
-2.193902794289799
-2.192763950843371
-2.185346303380507
-2.187299280000525
-2.203385449110598
-2.195541415567108
-2.198509956964911
-2.203277444692336
-2.209329548116563
-2.210959238785728
-2.199111816722369
-2.18825270906064
-2.190300778903556
-2.191446784984969
-2.184428627760131
-2.179264262019924
-2.184710924088515
-2.188997813145892
-2.183930895551264
-2.173729803649089
-2.175645940096286
-2.183473396199956
-2.182141787683412
-2.188453104135923
-2.192605575096325
-2.184468470606372
-2.169622491055251
-2.16272242829779
-2.161123251647584
-2.159927009670041
-2.161842699692535
-2.162809520228344
-2.162366954880687
-2.159568662067803
-2.156963350083267
-2.147478794591482
-2.146287217359773
-2.157584329363221
-2.146165248115156
-2.148052909468001
-2.15655021064288
-2.173231307456238
-2.181234565416657
-2.166570416778709
-2.165882364370153
-2.168646157414766
-2.169267516859746
-2.17203240074176
-2.172947404282895
-2.181472482578714
-2.192347814946324
-2.192894980155344
-2.194595530261454
-2.196006052203471
-2.193838037875715
-2.190432392336087
-2.200722646710053
-2.198780546216586
-2.194821062020921
-2.192546707590247
-2.185760965305105
-2.184922486140735
-2.199021755491415
-2.194178682292907
-2.19661622183612
-2.203966990661437
-2.207454068265296
-2.209240475334026
-2.198807041879334
-2.189043884108677
-2.190266001863049
-2.190296685142977
-2.186463286755721
-2.180817849014169
-2.184597932761004
-2.187974213111755
-2.18337911873748
-2.172993911160033
-2.174022577636336
-2.18157363312726
-2.182985990578302
-2.189433264745903
-2.195113286794339
-2.18733095021285
-2.170329110553529
-2.159798906510499
-2.158841980799276
-2.157260823740426
-2.152705187780152
-2.159088235503475
-2.163327960026821
-2.161901134426891
-2.161117859120463
-2.159440163819516
-2.167057622821877
-2.177039841044276
-2.1570016425148
-2.153727244681617
-2.157888358990415
-2.170585703281465
-2.177968245973396
-2.166849079902367
-2.165862040608661
-2.168915092374726
-2.169393542493109
-2.171441039440798
-2.171092733687977
-2.179974357594125
-2.195210580497983
-2.193424707301351
-2.194838823590296
-2.195567627523709
-2.194301843407639
-2.192909139518908
-2.199445553617962
-2.199196953753497
-2.196180612505385
-2.193402608474075
-2.187074493807674
-2.183355472438842
-2.196175053621021
-2.193602202784942
-2.195224219852005
-2.202295156947764
-2.205423637143908
-2.20694366817617
-2.198011523738775
-2.192439651279817
-2.192657278332545
-2.189221649862119
-2.189764806434271
-2.184449603511334
-2.185504712617024
-2.185955484812313
-2.181548154889588
-2.173574879845146
-2.17193767490956
-2.1794044856443
-2.183833012859893
-2.190777905184166
-2.198197492960455
-2.18990850764104
-2.17139107033907
-2.15685460978673
-2.156483960700005
-2.154461101370643
-2.143528097654099
-2.156966417638984
-2.163663769087327
-2.163267546030681
-2.164968126687723
-2.17121418524999
-2.188741779627342
-2.203743936488384
-2.167602296425807
-2.160118865523909
-2.160058126850481
-2.168050036251645
-2.172809999299258
-2.166923978729989
-2.166347729189586
-2.169192995434449
-2.168331460339356
-2.170803270816996
-2.168519174643949
-2.176879834860118
-2.196236367463164
-2.194158396566044
-2.195658602136344
-2.196171305198793
-2.194930684794433
-2.194894384566836
-2.198137557469465
-2.199594607051478
-2.197708839523326
-2.19505584544912
-2.188895450540865
-2.183582937459022
-2.193076851660433
-2.190290040880167
-2.192108432282912
-2.199981129150687
-2.204613557166062
-2.205691263494262
-2.201012624104969
-2.198623636384497
-2.196211763839178
-2.190649826473668
-2.191981689080457
-2.18833177527283
-2.185736932616737
-2.187118311018911
-2.180265322225952
-2.171642584502578
-2.172005869597137
-2.179194322667879
-2.185887429548202
-2.192675604859739
-2.195534014591597
-2.18756283975146
-2.172824271355995
-2.15798544139201
-2.157858572530983
-2.155393422654559
-2.146215987257477
-2.157694848179639
-2.162596891469843
-2.16379735975887
-2.167629167839523
-2.18204149498281
-2.21360471435155
-2.233432756637979
-2.178029278997832
-2.167312036340994
-2.16338106811248
-2.167171390056382
-2.169345009506589
-2.166056087711602
-2.166867898629759
-2.169062780655069
-2.165498185197243
-2.169513331675772
-2.166495757103715
-2.174150530180781
-2.195236733572397
-2.196265494195524
-2.1974848266486
-2.197625929058579
-2.195697033862225
-2.19623544693679
-2.197492066331178
-2.200323773977466
-2.19964030644873
-2.19642881324818
-2.189784912158973
-2.183179157407262
-2.189981676927442
-2.187071349054377
-2.18985852720158
-2.197737005735797
-2.204321614324621
-2.20670707359787
-2.205491292415714
-2.206601486301464
-2.202697084285977
-2.194278621527751
-2.193895699389194
-2.193015593405911
-2.190076859218607
-2.190199333957428
-2.179670232343111
-2.169621019562443
-2.172310953755281
-2.179817495263261
-2.188617537128324
-2.193504725789412
-2.192072580194298
-2.183876828363013
-2.173673073110872
-2.160731539825218
-2.160382490756878
-2.158203291429933
-2.154148601035439
-2.160265989583756
-2.162220283023705
-2.164128697133974
-2.168583224939779
-2.192414884353459
-2.239379687443588
-2.250203550649314
-2.189642284889694
-2.174561668295078
-2.167853391128809
-2.168648511006382
-2.169096519828484
-2.166732202185885
-2.167105695375226
-2.167365248777884
-2.161368967290108
-2.168730003797852
-2.166987457195746
-2.175548892761977
-2.192290853514933
-2.19729109620054
-2.202285660450142
-2.198691054239868
-2.19449163368435
-2.195147764371831
-2.200706251165128
-2.201122452021441
-2.201746406670017
-2.197348865132466
-2.190004463306215
-2.183387102027437
-2.187245394050084
-2.18495364961326
-2.188555999143148
-2.198502413404866
-2.20476596901522
-2.208197105762248
-2.208047028043301
-2.211045606051931
-2.205866151838408
-2.196006583124255
-2.194545912662087
-2.193710535139502
-2.193781940621469
-2.196161569709571
-2.186821005385192
-2.172971966592173
-2.172212958831777
-2.18428378174331
-2.194685534317851
-2.19344160349215
-2.188212858000952
-2.180556940014021
-2.171838092761083
-2.164306614580504
-2.163019365635869
-2.161029988600862
-2.159647705864157
-2.163507034636092
-2.165200740878874
-2.1649510167391
-2.166073438285553
-2.195848436833365
-2.251206755452771
-2.238173127917945
-2.197992457757706
-2.180013375308536
-2.17497704021078
-2.172889431449888
-2.171803880850803
-2.169790710767464
-2.169011796570399
-2.167305563848695
-2.157691708362477
-2.16909570742071
-2.163480448534947
-2.171041805623647
-2.192343374752252
-2.198514271972355
-2.206435371062374
-2.199360388308715
-2.19356304026144
-2.192123755784178
-2.204342426279947
-2.201003282766475
-2.20269838370497
-2.20137903508512
-2.190243869577298
-2.184780085121241
-2.185880816184639
-2.185554605614935
-2.189317529713497
-2.199564948152928
-2.205421531274113
-2.206999067390118
-2.206626637820837
-2.206303810032064
-2.199984500942739
-2.187024593396654
-2.188640713457624
-2.189483514447222
-2.191959057514743
-2.191568147985469
-2.187469177397826
-2.178383850088963
-2.172408924623109
-2.186767834799195
-2.199526415547009
-2.195629998713397
-2.18318123985393
-2.177205858592542
-2.168617526903066
-2.167276591826512
-2.166597681279023
-2.164599292004651
-2.1641903797515
-2.165861831251989
-2.165752422449513
-2.166969348412743
-2.167381347072025
-2.190617152767757
-2.234010971862328
-2.22410827470111
-2.20556136284121
-2.18829400751112
-2.18209192700149
-2.178274451965195
-2.175721383801955
-2.172968491353137
-2.171678399027964
-2.169569314644727
-2.162829705772021
-2.17044147917376
-2.16607663410035
-2.172814828252462
-2.188724874622099
-2.191317486715309
-2.198059487297853
-2.197198831893511
-2.196950020252558
-2.186735065176152
-2.207420626757115
-2.201418743017215
-2.200734031709636
-2.200755385722323
-2.191813107394006
-2.187893149373505
-2.189857062816654
-2.186181491344001
-2.190974770783467
-2.201712896236808
-2.206022164002725
-2.20481154389155
-2.19999154591209
-2.195450110090591
-2.190889012686422
-2.184804289753534
-2.180505157515607
-2.179548862522569
-2.183238660479248
-2.185151696332027
-2.183748502146448
-2.178923378356369
-2.172296827134809
-2.182504685978436
-2.195551409304543
-2.198619363692125
-2.185121387688904
-2.177185387220852
-2.167188600505924
-2.165955625037828
-2.166647172885595
-2.165907739800496
-2.167094338219687
-2.167862613944428
-2.166139253982018
-2.167465277658531
-2.170046036530595
-2.188337802068514
-2.219219797384241
-2.219960333978242
-2.205306861743902
-2.189818483244403
-2.183086626277374
-2.178983663719686
-2.176374453237333
-2.173449311076902
-2.172041655419592
-2.169962648429342
-2.163574902905371
-2.169961689590375
-2.166063678815807
-2.172443198277931
-2.188627264592435
-2.191244947132123
-2.197956492782771
-2.197416625138978
-2.197259632969617
-2.18785780105571
-2.20781628448939
-2.20147215663385
-2.200348955796173
-2.200625139473774
-2.192082560367878
-2.188427970192945
-2.189982437392044
-2.186228498098397
-2.191313089600713
-2.201916467288719
-2.206012741608931
-2.204767522956988
-2.198942289198348
-2.194239285437336
-2.190026621230858
-2.184713142008167
-2.179809875382569
-2.178450303426816
-2.182474598527939
-2.183782412939977
-2.182748704552291
-2.178726471228611
-2.172217438430685
-2.181845629774525
-2.194298008146255
-2.198773507845984
-2.185453063564633
-2.17739543541535
-2.166995659034663
-2.16572797324908
-2.166492296445333
-2.165947139068741
-2.167288256633834
-2.167976469909493
-2.166264985376668
-2.167638102621847
-2.170145129059985
-2.187545853826788
-2.215550890611408
-2.195534143569189
-2.199217037777809
-2.197255362370791
-2.189410945234729
-2.183840622941497
-2.180353624894596
-2.176848065589393
-2.174616341105955
-2.172213025815486
-2.167050965814099
-2.167086138967841
-2.164545742430944
-2.170946075064883
-2.189801357287902
-2.194825188141
-2.20102451220126
-2.199803646880517
-2.199225788053651
-2.197782685610663
-2.209882345700861
-2.203719666916622
-2.199616232036974
-2.200055121484447
-2.194709856669613
-2.191153684919187
-2.188479377717667
-2.186712640265662
-2.194364776937185
-2.202245636641075
-2.204396273527742
-2.204018578926243
-2.193202954350514
-2.189576948865968
-2.186903026209621
-2.18467166552936
-2.179867189924151
-2.1753300858246
-2.178456818137657
-2.174710088350864
-2.176152366426666
-2.17693988953185
-2.171773381710362
-2.176974225529559
-2.187699042970491
-2.197469918969413
-2.187349725146185
-2.177243349068084
-2.166332350198805
-2.165049525502065
-2.165329919471012
-2.165789937934338
-2.167703256966717
-2.169243651267495
-2.167722154330602
-2.169231982453213
-2.170329201259419
-2.180424367213745
-2.194322722188235
-2.175971762529731
-2.188098521626258
-2.196471175934047
-2.192256033104656
-2.187853227357747
-2.184390510363777
-2.180617749352266
-2.177385452739548
-2.175041142879834
-2.171973217629649
-2.171124920978903
-2.170152987986625
-2.17429160369506
-2.190697166383018
-2.196582933259335
-2.198587475973492
-2.19943569646034
-2.19988252541988
-2.198115186586212
-2.208107795898592
-2.208308058804535
-2.202574306688607
-2.200493428412481
-2.196646370993741
-2.192206624352417
-2.184621116724522
-2.186977575702298
-2.196409609777594
-2.201040376197908
-2.201319469585232
-2.203596839292657
-2.19023189601175
-2.18714928779997
-2.187107616730174
-2.188212454180879
-2.185347414156673
-2.18014152065911
-2.176055967258139
-2.171445394976327
-2.174806446262376
-2.177413820739404
-2.172049734348043
-2.173729164898377
-2.183093056673279
-2.193065952842441
-2.183351372326459
-2.174763550543775
-2.167018017735841
-2.165427291317554
-2.165795880462646
-2.16591398037481
-2.165532325090952
-2.171100095168803
-2.169619427333228
-2.170276787731753
-2.171659139959911
-2.178395513341572
-2.179800571828189
-2.170347226371172
-2.182924791975295
-2.193342287495812
-2.192527685984268
-2.190438324266368
-2.187880471374478
-2.183576932159544
-2.18050377904899
-2.178624087714268
-2.177938123158003
-2.179339303079309
-2.17658573567856
-2.178519454409661
-2.192537142317247
-2.196312146885324
-2.197847956839148
-2.199292177829739
-2.199288881429221
-2.198361064198084
-2.203484039708137
-2.208489580135771
-2.204390023091266
-2.201832863582021
-2.197768420054052
-2.194031313081934
-2.181700983386136
-2.187819976938098
-2.19580464697317
-2.202082459175716
-2.204259976269684
-2.208083426447508
-2.193060120118089
-2.183690687108142
-2.184371554661906
-2.191641476790067
-2.190007889505359
-2.18377625836485
-2.176335794222388
-2.172904684184215
-2.175956950446576
-2.17896458481725
-2.173998046392276
-2.170651047248552
-2.178791134918498
-2.188669980618352
-2.181757852961189
-2.174362056408103
-2.167155086947397
-2.16601177316779
-2.166814179899323
-2.167105088415474
-2.163436402042699
-2.17152511888743
-2.171808577204478
-2.171968284378025
-2.172454039765586
-2.176307029694444
-2.171766861715377
-2.167055076327516
-2.180996609127362
-2.189907737807902
-2.192948854960059
-2.191938346813882
-2.190603473739737
-2.186481253738792
-2.18436753144256
-2.182461491831745
-2.183673432205194
-2.188940708182585
-2.183132305345636
-2.180844381729427
-2.193923611379683
-2.196338365650695
-2.197832408070124
-2.199718771074363
-2.1979344107722
-2.195479925304887
-2.199904532060093
-2.20443215790828
-2.204118491571176
-2.203657957708445
-2.200375679303695
-2.19661325823161
-2.179136676203301
-2.18532951160555
-2.192848719127282
-2.201397073564239
-2.206197872470351
-2.209505573582913
-2.19684022691779
-2.181257636505681
-2.184119888215179
-2.195445493347908
-2.191536789264275
-2.185122220893362
-2.175059042244754
-2.175279980150716
-2.177035106863884
-2.17932756633303
-2.17539187094834
-2.172516832562808
-2.176645987570494
-2.184337676596132
-2.179053778629847
-2.173989317605632
-2.168208500738767
-2.166705559316119
-2.168576935738625
-2.169084008150225
-2.164086599984446
-2.171360177799183
-2.171991770952446
-2.172519471347683
-2.174113067905678
-2.177029309567286
-2.167311442053787
-2.170898321382137
-2.180984758667938
-2.186953006519695
-2.192840763934269
-2.192959071049978
-2.192872113132381
-2.18946451280918
-2.187242928139579
-2.185254027594711
-2.185411345814616
-2.19638043069339
-2.192287420287845
-2.181201300396492
-2.193397650137435
-2.196340538841356
-2.197699597276247
-2.199203813432443
-2.198674215025907
-2.194110644971849
-2.195958980266735
-2.200263703193463
-2.203449048545429
-2.207200440498844
-2.204754535592844
-2.200912782634296
-2.175387092224856
-2.180530982152044
-2.188751236269058
-2.199361886881584
-2.207056603256179
-2.212048864523112
-2.201949438300321
-2.181167567633185
-2.184151272782979
-2.199623235031697
-2.192285565981491