/*--------------------------------*- C++ -*----------------------------------*\
| =========                 |                                                 |
| \\      /  F ield         | OpenFOAM: The Open Source CFD Toolbox           |
|  \\    /   O peration     | Version:  v1812                                 |
|   \\  /    A nd           | Web:      www.OpenFOAM.com                      |
|    \\/     M anipulation  |                                                 |
\*---------------------------------------------------------------------------*/
FoamFile
{
    version     2.0;
    format      ascii;
    class       volScalarField;
    location    "0";
    object      p;
}
// * * * * * * * * * * * * * * * * * * * * * * * * * * * * * * * * * * * * * //

dimensions      [0 2 -2 0 0 0 0];


internalField   nonuniform List<scalar> 
924
(
0.001161847631208979
0.00312532215586748
-0.001423166701112354
-0.0005957086370014204
0.004032259891216949
0.0003560699604825658
0.01055061910528847
0.006278953284680289
-0.002806142855760393
-0.001329612450169326
0.007954236226448022
0.0142203173906847
0.004829576778150229
-0.001346109724255874
0.003279115016593325
0.0006371656863339365
0.005711668573736985
0.01465339283528954
0.003853973620497205
-0.003028732259226016
0.005714658899248459
0.01114080490689304
0.009047087062875261
-0.001030977485056619
0.01466512481362763
0.01720984428939295
0.000364611616140722
0.0125266085466063
0.01082569507269944
0.009196127378898501
-0.001288278553211112
0.006883060309980042
0
0
0
0
0
0
0
0
0
0
0
0
0.0005630290393579838
0.003643157366099849
-0.002483633101486534
-0.001878992875430872
0.006837434830131803
2.133448518911912e-05
0.01116964180130125
0.006232698330182014
-0.002978921903093404
-0.001589534623717013
0.007793310421267056
0.01326637021675982
0.003557819300462967
-0.001305751647399969
0.002745801459557658
0.0006454603455902808
0.004765344281863535
0.0181381317044941
0.002969939018551524
-0.002981947167139527
0.005721706056764136
0.01293614628690465
0.006675772759660353
-0.0002349041068505486
0.01516023990392259
0.02061007907532352
-0.00156272309591515
0.01231322374255581
0.01089775839783342
0.01004923166885852
-0.002140127442745087
0.006857808791811467
0
0
0
0
0
0
0
0
0
0
0
0
0.0008985621874925626
0.000577994077058255
-0.0008449217797977129
-0.002102668365371314
0.003213735958996005
-0.0007359661136314669
0.01205581535272036
0.005840845948787808
-0.003764720050399324
-0.002533053390404732
0.008270659598906336
0.0129017250695211
-0.000774384732900227
-0.001665086983967241
0.001930203689216484
-0.0003551358302818634
0.004223281300164731
0.01237020930475345
0.004057075479079078
-0.002748808419031697
0.004857683810010881
0.01193645529543325
0.007179312056810509
-0.002019672234743727
0.01130761909985467
0.0170807732851047
-0.0006470039306782576
0.01230498441870027
0.01115341913762756
0.00682408654635625
-0.0008259397067865795
0.008152429495354115
0
0
0
0
0
0
0
0
0
0
0
0
0.001295321850657971
-0.001348674206886854
-0.001153991041309858
-0.001338481019100379
0.002621530642620242
-0.002419099136569069
0.01272482065912266
0.005776101775696402
-0.00445780490346963
-0.004180382062023101
0.00873450599817864
0.01216001464325385
-0.004559450676301099
0.0008505489480334431
0.001328788251673188
-0.001233766766336414
0.00393840650189683
0.01033891946846641
0.003991445053883937
-0.004873965638092231
0.002289642978323262
0.01073353431073433
0.0071799954148911
-0.003381591662224604
0.007058224046505694
0.01482438180049357
-0.002031621451248509
0.01253787539105381
0.01175038760358507
0.00447920905935749
0.0001597940025360575
0.007147050545217829
0
0
0
0
0
0
0
0
0
0
0
0
-0.0002835578757958031
-0.002693602320577046
-0.00138800355128969
-0.001125370258789689
-0.0005645023379562299
-0.004044057487956048
0.01229937611899009
0.007663878876945183
-0.004406384844360944
-0.005803690044815926
0.009962814368512134
0.009765556921623456
-0.008944945245986121
-0.001102611979008645
-0.002638679308581081
-0.001018452592935737
0.004353161404889916
0.01170442782867906
0.003206135557048159
-0.01111076770879803
-0.0002262224834902456
0.006044261484456644
0.006043260065977015
-0.00145946909268497
0.0008718365799507191
0.009977519704152144
-0.0008318908219095758
0.01222273598818123
0.01403065846072833
0.004121069886784987
9.832326623137608e-05
0.003800468620011224
0
0
0
0
0
0
0
0
0
0
0
0
-0.0002685325317480886
-0.00437525594183043
-0.001699881364186503
-0.002082590690447016
-0.002585803173882462
-0.003867792254157719
0.0118850515988031
0.00866415089447994
-0.004027001162098309
-0.00653423227302271
0.01286705282086294
0.01014492943671224
-0.001834637700853391
-0.0014232072111439
-0.007144477257626127
0.0006084054189003165
0.002479146730704561
0.01136612460497549
0.006086312530311491
-0.01218207261204023
-0.0008407254798052902
0.007675536915464699
0.003500750583959302
0.003164268626243582
-0.005705833660663633
0.005687225090095289
0.000869580051461485
0.01023827175729517
0.01467737433531521
0.009966119121594955
-0.0001937220451904459
0.003399521025543223
0
0
0
0
0
0
0
0
0
0
0
0
0.002640692615717644
-0.003773880017272215
-0.002213044840819151
-0.003988913111978167
-0.007873636306653166
-0.004319274799301646
0.0113429153841879
0.008709413675291535
-0.003910919166112446
-0.008017227938757213
0.01099338880423077
0.01227655451543821
0.01032617433296905
0.003959416772119611
-0.005942291489362781
-0.0007318880123039508
0.002676014846975255
0.001365628888293634
-0.001663782689908128
-0.007507522173803969
-0.01038729909469774
0.00599467016229538
0.004436634039145428
0.006412997663189235
-0.01244984119800831
-0.001816428707427744
0.002312377023608397
0.007862047491021009
0.01284232169310327
0.01798457913069549
0.004205733562042732
0.003116059155469423
0
0
0
0
0
0
0
0
0
0
0
0
0.003366825104142382
-0.001196271084937447
-0.004430226628116932
-0.005948049684425307
-0.01087879176463158
-0.0112361070554464
0.004960874683809281
0.007686728999783381
-0.001855514935949582
-0.004683553984190217
0.006664276010481049
0.008891627817234404
0.009531478168572829
0.003062177827768973
-0.001134414097730393
0.003615261518711423
-0.0008934863787754771
0.003769359909810828
-0.0001772141679112436
-0.004096682269109939
-0.01968492286128063
-0.01165817763660234
0.006025380489270811
-0.001085044909784646
-0.01058776410117384
0.001308204707733679
0.002501391441217947
0.006317420730995865
0.009585776729174452
0.008228507673680299
0.004614928047616734
0.002798870147868615
0
0
0
0
0
0
0
0
0
0
0
0
0.002817344388358195
0.002492990644208586
-0.003981094051380225
-0.00322274053677085
-0.0009031044433543629
-0.01384688788374095
-0.003267657280484009
0.002831437081933299
0.002392319312754672
0.0006944301029266089
0.003534303287913338
0.005501280999863795
0.005629910734147525
0.003600455973613203
0.002888965332202464
0.005137551224101092
0.001957963922080779
0.006099585634405864
0.001928974254198099
0.00194850580229102
-0.004067040869998107
-0.01035278577949749
-0.001363954845209328
0.001400992079881687
-0.003057154472441272
-0.002040726926606307
0.00193040440571876
0.005428241221546315
0.005899475330734085
0.004995607845735396
0.005793781538499628
0.002132884670928438
0
0
0
0
0
0
0
0
0
0
0
0
0.00461676190539037
0.007040058906469152
-0.0115218024449247
0.000100103273764752
0.006296430600089363
-0.009429283694900944
-0.004863403932351962
0.001560313167468675
0.002048768285635696
0.0008462793156771821
0.003007520302726275
0.003632628491196226
0.00297074698237516
0.001930502946755806
0.003972720363743938
0.004076321982616107
0.002698883158128137
0.004755171217606845
0.003543222204586822
0.001361957351690549
-0.002859211615276128
-0.002017406934153418
0.002249711100572437
-0.0001149064672599157
-0.001440636996812086
-0.0009913728558007928
0.001870861305405227
0.005486887358881362
0.006724595017051537
0.005890339377248669
0.006978423437876167
0.003659976151977215
0
0
0
0
0
0
0
0
0
0
0
0
0.005196611783772941
0.0072768035378509
-0.00336324993751275
0.001621893226903545
0.005693593264298369
-0.00131838027970107
-0.001038166649991235
0.0008133757548647182
0.0005368540137590344
0.001117802186747187
0.0009044104160436131
0.002857057396348262
0.001741360781883267
0.002491653601928715
0.004056906464739286
0.004301987924237179
0.002838057303725722
0.004518459677405589
0.002553885459145238
0.004793612753846524
-0.009165785191115453
-0.003009880144089117
0.0002502393880187125
-0.0001945214937201268
0.0009976217625626304
-0.0009881955927333083
0.002150084648424419
0.006147361203631986
0.007222834162439486
0.005575907533212003
0.003724620838681591
0.004668216198864119
0
0
0
0
0
0
0
0
0
0
0
0
0.003029256663837229
0.005801604075857137
0.001038964716428014
8.995783106493834e-05
0.002117913275285676
0.001169182600490842
0.0001349296213683721
0.0004111959444880997
0.0004160538878792854
0.0005866052217016938
0.0002790144621855326
0.002077921712823989
0.001614884091515069
0.002598913513539852
0.003734754924504644
0.003702941362009515
0.003231831171133234
0.003954512104157434
0.002549329019876757
0.003848222440544189
-0.004204582156059368
-0.0009442704562196964
-0.002173776974888718
-0.00138502768852906
0.004093787695307922
-0.0003829497874397397
0.000921183894759453
0.005770341851626257
0.008335558422861941
0.002056917788404348
0.003844636769916238
0.00264492872814217
0
0
0
0
0
0
0
0
0
0
0
0
0.002725736219590134
0.005798016900662743
-0.0008927319057530498
-0.0004623926267945213
0.0003348801524652155
-0.0005070901605196955
-0.001914528188017841
0.002093103049431908
0.000968091664613343
-0.0009657091234086425
-0.0006073787240585055
-5.585619099777591e-05
0.002045842896288506
0.0009380558842818983
0.004057389027026561
0.004023860447180165
0.002236868865083016
0.003417783731062008
0.007339334350870772
0.004479714020924199
0.0005069942636989566
0.001158830219151358
-0.002091484664218319
-0.002409457318126377
0.001733307342788934
0.002444316216295557
0.002834259128964775
0.00483307809608581
0.007648655559228367
0.00409088797179441
0.005438046638524705
0.001494575644601428
0
0
0
0
0
0
0
0
0
0
0
0
0.00369089083370742
-0.0020556754952881
-0.0007512205092348527
0.002316804828790139
0.0001343765372923108
-0.004487059611864682
0.0001941814779887214
0.006387603583435044
0.001941258223901856
9.114579897211242e-05
-0.009444827047356283
-0.003068597384967046
0.002753707339531022
-0.0004625830625153999
0.003327743966177724
0.003301098185319865
0.003429127090402891
0.002558029937861278
0.01113892154695491
0.004865880591525555
0.00582495202276146
0.003787222731976321
-0.004896972070867175
-0.005774172585933966
-0.0003767351967507499
0.004559386232373159
0.003829517682906976
0.006264830088545478
0.008145972182892374
0.007305982191005958
0.00431873446046678
0.00192734517328947
0
0
0
0
0
0
0
0
0
0
0
0
-0.001758138768242829
-0.004869940905118715
0.001736355260435523
0.003978661364972548
-6.641563036661102e-05
-0.003693785599054587
0.002661904076153117
0.009394694202999446
0.0008915725065942799
0.0008366772265136745
-0.01060365107824392
-0.002304259546046372
0.003484727537036459
-0.002610491871262199
0.004597411224571166
0.004918637809463626
0.005189744401985928
0.00213362380431308
0.01228836004018248
0.005399255984865957
0.006238009612484453
0.00689067739580744
-0.01057948314240249
-0.008512092605252116
-0.001132728760098246
0.002467550385617074
0.004183677841512716
0.008061868344619218
0.01042094937599878
0.005964313974425911
0.001978560260408497
-0.001489141559915201
0
0
0
0
0
0
0
0
0
0
0
0
-0.006334927219660438
-0.002538730913741673
0.002524341958692318
0.006179923768405469
-0.0007764735620705997
-0.003738518984200428
0.001464673055043152
0.005740665781554878
-0.003325678543582371
-0.004803264614639759
-0.0001596402917848028
0.002816128950539045
0.003330635049283993
-0.00405342399416232
0.004995937699837784
0.008226077406293239
0.006499634763467656
0.002847440639423527
0.01365681195146348
0.003502370976611489
0.004619279029122306
0.009032853321081877
-0.01262780116374041
-0.01141152650192336
-0.002633006378991803
0.001367094176757638
0.006457005526940859
0.01253468356744694
0.01278945210145945
0.003682053381295284
-0.0009288400785170589
-0.007495501176613591
0
0
0
0
0
0
0
0
0
0
0
0
-0.00363329000732035
0.002324172620415544
0.004789763407269148
0.00844417494273939
-0.004904312235460523
-0.007843051740221861
-0.005813001772377301
0.005263013134697992
-0.002057516627805541
-0.002857436174308504
0.003422934726247237
0.006607168973502891
0.00228467253646525
-0.003516625381755482
0.004210817625601981
0.01341302090751327
0.01133091651400421
0.0007726867756315974
0.009010251409717715
-0.001505754820984041
0.002140422955838022
0.0139590300415696
-0.01334094202227882
-0.0122575423793945
-0.003769556736862802
0.00215954547001283
0.008368327882657614
0.01633238519939951
0.01440409871183026
-1.633582948610163e-05
0.001531952225711793
-0.005394124053931424
0
0
0
0
0
0
0
0
0
0
0
0
-0.0009550502248435875
0.008026676303772498
0.005968661194352962
0.01053453073494999
-0.00977124777841409
-0.008904606262955216
-0.009959926958254307
0.01068441103196734
0.001637435992594939
-0.0023204223705444
0.003321094454906047
0.007636029041460486
-0.0002215285679200152
-0.0007992381220457599
0.001139189239440708
0.01953569702378665
0.01583054581399969
-0.002160668898207016
0.003395102856510787
-0.001444590738246549
0.003735337563941407
0.01359470638659777
-0.01082499445073288
-0.01192113323748964
-0.004133218411074537
0.003852971054844682
0.009299083366866721
0.01793026943256543
0.01374399822809843
0.002549249402140422
0.009836432338449339
-0.002156860303239803
0
0
0
0
0
0
0
0
0
0
0
0
-0.002162654692588376
0.01087276032281136
0.003818413152810596
0.00876199706554792
-0.01054186474967211
-0.008398947195865559
-0.008455084292890826
0.01139939253458799
0.001738650221413795
-0.002039777239363923
0.003462556531652429
0.00739783157297517
-0.001126381468443219
0.002461581480042018
-0.0001592216344881621
0.02482539808182979
0.01285451628882123
-0.002984842115083171
0.004066693212798003
0.0001601954477249399
0.006839350189129055
0.01470947514529978
-0.01045046974455176
-0.01131610192606339
-0.004301125087689928
0.005054225194556782
0.008983554477385369
0.01788299942845395
0.01322781491547576
0.004244040817604412
0.01602164019209285
-0.002857257251875049
0
0
0
0
0
0
0
0
0
0
0
0
-0.003258243404326593
0.01277963866953334
0.003227032015098959
0.00805673217647577
-0.00862838834412411
-0.007752419017067572
-0.004437468361347729
0.01097417585952071
0.001308859224074822
-0.0009472382684510235
0.003411898735881276
0.0103233678580174
-0.002027293994685416
0.005425747896313324
-0.002379628052913462
0.02286729139531851
0.01328977725940424
-0.003790520850107773
0.008439275157105144
0.001105775789804994
0.009206710589837575
0.01386697470991463
-0.01039932165624431
-0.01085467907553735
-0.00417919441159123
0.005678885205657713
0.008622993996230701
0.01839245709637095
0.01268391384458395
0.003717735675146793
0.01859332962604683
-0.002555438606891457
0
0
0
0
0
0
0
0
0
0
0
0
-0.002228479652233684
0.01290962095153089
0.003268956296545006
0.008891591130634886
-0.007343159757350535
-0.006979128071320527
0.0006199788127747536
0.01112361626319527
0.001032432746638012
-0.0006078918275245329
0.004428351631571716
0.007601717986542641
-0.0006314443759461622
0.006350801987561453
-0.0001056838040020797
0.02325782747144334
0.01141454483691302
-0.002790023881082188
0.009421062668125479
0.00280713898746701
0.01017053246197485
0.01242768764297058
-0.01010880479082455
-0.0104580302082159
-0.003977840303999571
0.005815941172324683
0.008420657079746041
0.01897120960869524
0.01230323750779068
0.003703164188790001
0.01855461248697342
-0.002080891726169617
0
0
0
0
0
0
0
0
0
0
0
0
)
;

boundaryField
{
    inlet
    {
        type            cyclic;
    }
    outlet
    {
        type            cyclic;
    }
    bottomWall
    {
        type            zeroGradient;
    }
    topWall
    {
        type            zeroGradient;
    }
    left
    {
        type            cyclic;
    }
    right
    {
        type            cyclic;
    }
}


// ************************************************************************* //
