/*--------------------------------*- C++ -*----------------------------------*\
| =========                 |                                                 |
| \\      /  F ield         | OpenFOAM: The Open Source CFD Toolbox           |
|  \\    /   O peration     | Version:  v1812                                 |
|   \\  /    A nd           | Web:      www.OpenFOAM.com                      |
|    \\/     M anipulation  |                                                 |
\*---------------------------------------------------------------------------*/
FoamFile
{
    version     2.0;
    format      ascii;
    class       volScalarField;
    location    "10000";
    object      nuTilda_0;
}
// * * * * * * * * * * * * * * * * * * * * * * * * * * * * * * * * * * * * * //

dimensions      [0 2 -1 0 0 0 0];


internalField   nonuniform List<scalar> 
1856
(
0.0004981324119719577
0.0004981306467204877
0.0004981305812515143
0.0004981304412849719
0.0004981300901295601
0.0004981297425479683
0.0004981295556063535
0.0004981293758631474
0.0004981294667727953
0.0004981297508475409
0.0004981302399062489
0.0004981309492684125
0.0004981318187484964
0.0004981322907420884
0.0004981329843834391
0.0004981333657816595
0.0004981335712453698
0.0004981336307883536
0.0004981335230837623
0.0004981332204405999
0.0004981328984103684
0.0004981327887671192
0.0004981323910572526
0.0004981321343201097
0.0004981319298368376
0.0004981315299756675
0.000498131341647909
0.0004981308696740466
0.0004981306873128382
0.0004981301884079046
0.0004981300187256635
0.000498129592503379
0.0004981294455531186
0.0004981290670628794
0.0004981286785755767
0.0004981283723945791
0.0004981278308035981
0.0004981275591665619
0.0004981269168548226
0.0004981267291456631
0.0004981262048163155
0.0004981259802941088
0.0004981256259369494
0.0004981255595279692
0.0004981254123556403
0.0004981259219832961
0.0004981262377265138
0.0004981269950920354
0.0004981275140658088
0.0004981283300163558
0.0004981286701982349
0.0004981295207275753
0.000498129948086363
0.0004981302760024251
0.0004981304481976264
0.0004981305112713723
0.000498130687477257
0.0004981308736600849
0.0005342675026231147
0.0005342674426122213
0.0005342668898008315
0.00053426164482591
0.0005342608536056496
0.0005342570196935499
0.0005342569713410797
0.0005342567615784454
0.0005342635181802406
0.000534272027776382
0.0005342838572310321
0.0005342951092728409
0.0005343099793790578
0.0005343186511387581
0.0005343283967437745
0.0005343347415977853
0.0005343380609550895
0.0005343404238987801
0.0005343405623477974
0.0005343382090691206
0.0005343335082854607
0.0005343310529455863
0.0005343255101496747
0.0005343208470218252
0.0005343164011308527
0.0005343108345051282
0.0005343068226831605
0.0005343003994394395
0.0005342942533544462
0.0005342869880484673
0.0005342822483374291
0.0005342773914621008
0.00053427143007842
0.0005342662286994112
0.0005342564738390799
0.0005342504390377759
0.0005342400667041869
0.0005342326782220653
0.0005342244224788954
0.0005342153268037834
0.0005342081013062856
0.0005342006642794796
0.0005341958563503835
0.0005341938680657057
0.0005341939358823672
0.0005341996916130909
0.0005342072741929003
0.000534218949258515
0.0005342284044101996
0.0005342393504102831
0.0005342448721769461
0.0005342546138313247
0.0005342590947693052
0.0005342650435143578
0.0005342670937920171
0.0005342678332434566
0.0005342678600958865
0.0005342669809050407
0.001001301484699998
0.001001304253767108
0.001001296177796675
0.001001284071255249
0.001001275061217651
0.00100126059829842
0.001001254905416863
0.001001251654108502
0.001001253267506973
0.001001268252620895
0.001001292125407785
0.001001321408354873
0.001001364066434378
0.001001398461280638
0.00100143511285813
0.001001467009971359
0.001001486371437407
0.001001500958226944
0.001001504843140751
0.001001504814032579
0.001001497627970331
0.001001493773540305
0.001001485354946821
0.001001475589762923
0.001001468285558804
0.00100145706547253
0.001001450423595028
0.001001437920337173
0.001001425156138453
0.001001408868516648
0.001001397808104895
0.001001387260487918
0.001001373048719587
0.001001360835513644
0.001001336468317765
0.001001319682407022
0.001001292485674472
0.001001269484146044
0.00100124617289459
0.00100121696473651
0.001001192188620784
0.001001165841839988
0.001001143599803011
0.001001125355821528
0.001001116200514577
0.001001113058235766
0.00100111859265167
0.001001140760004241
0.001001161101970768
0.001001192808233356
0.001001209529232715
0.001001239304814543
0.001001256163406627
0.001001278786153018
0.001001288001608044
0.001001292159367241
0.001001292537299271
0.001001292599460348
0.001620732773543388
0.001620734380764016
0.001620721083488145
0.001620700461821372
0.001620681451735066
0.001620655676632336
0.001620643061674749
0.001620637101345871
0.001620638725941367
0.001620665443608569
0.001620707021735744
0.001620756427291741
0.001620825471226073
0.001620883734304347
0.001620941548311812
0.001620992245279837
0.001621023502760788
0.00162104893369758
0.001621057290070639
0.00162105844881499
0.001621051357301826
0.001621044859121599
0.001621034960780761
0.001621020395469763
0.001621011003390967
0.001620994891530791
0.00162098668430378
0.001620969761425683
0.001620951376409404
0.001620926491773607
0.001620908592192368
0.00162089300202961
0.001620871060670357
0.00162085322383424
0.001620815357586839
0.001620789251947112
0.001620746051459401
0.001620708418129
0.001620671114373201
0.001620623491814655
0.001620581041054352
0.001620536600761234
0.001620497758432401
0.001620465452223409
0.001620450561523847
0.001620445638371571
0.00162045341870097
0.001620488626446745
0.0016205216902035
0.001620571891610546
0.001620599941138817
0.001620642509889031
0.001620666618122969
0.001620698316875778
0.00162071165441255
0.001620718082904983
0.001620720160210446
0.001620722886762048
0.002340448777682996
0.00234044984003735
0.002340433126574552
0.002340402576047562
0.002340373692158027
0.002340334812022581
0.002340311114012533
0.002340300041591258
0.00234029899276704
0.002340328417684254
0.002340385429346016
0.002340451277272833
0.00234054569970807
0.002340630050199467
0.002340710604353033
0.002340783838341819
0.002340829693520338
0.002340868615775371
0.002340882585213701
0.002340885638753018
0.002340880685260247
0.002340873281489024
0.002340863173050925
0.00234084615438991
0.002340835387502975
0.00234081727574669
0.002340808314413597
0.002340789882539032
0.002340767851161768
0.002340736437596457
0.002340712696996922
0.002340693942740786
0.002340665892885927
0.002340643662329941
0.002340594240838605
0.002340560743526655
0.002340503622702353
0.002340453067662216
0.002340403821256646
0.002340339557361887
0.00234028008127098
0.002340217852856818
0.002340161637669485
0.002340112532255011
0.002340087883665767
0.002340078980988992
0.002340083646971309
0.002340128137487487
0.00234017229487267
0.002340239135908392
0.002340279248255441
0.002340333916549695
0.002340365898876401
0.002340405677444676
0.002340423295278167
0.002340432576515068
0.002340436739693835
0.002340439882999847
0.003144981656827328
0.003144979928092437
0.003144962699704366
0.003144921009298757
0.003144884046232367
0.003144831826099002
0.003144795709036525
0.003144777329275525
0.003144773146337018
0.003144801696037618
0.003144871022780767
0.003144951452345549
0.003145068674310358
0.003145179125046627
0.003145281767237025
0.003145378099695221
0.003145439101875316
0.003145493264403969
0.003145513705072027
0.003145518949137158
0.003145516916839812
0.003145511026731776
0.003145501832098621
0.003145484334794449
0.003145473655295985
0.003145456259467832
0.003145447697600376
0.003145429252976203
0.00314540588868299
0.003145368634039905
0.003145341017247367
0.003145320161378289
0.003145287366138427
0.003145261302789928
0.003145200581217025
0.003145162238728841
0.00314509128414315
0.003145031243759621
0.003144970623864954
0.003144893048292081
0.003144817486933772
0.003144739582576823
0.003144666490654724
0.003144600720054255
0.003144564731258914
0.003144551181728953
0.003144551847546617
0.003144602045236172
0.003144656311525574
0.003144736415075726
0.003144788096643016
0.00314485261965353
0.003144892322502406
0.003144937967934139
0.003144958663573342
0.003144968666271263
0.003144972349404357
0.00314497482573855
0.004022773566773865
0.004022764606963375
0.004022746804456576
0.004022693391689276
0.00402264989227999
0.004022585074746986
0.004022539170467662
0.004022513227941844
0.004022506027165901
0.004022532827192243
0.00402261022264611
0.00402270326752103
0.004022838754890031
0.004022972578011374
0.004023093537520886
0.004023210852531296
0.004023285123641239
0.004023355259561452
0.004023382694205476
0.004023390263378526
0.004023390915355262
0.004023388982115428
0.004023382381976894
0.00402336677811712
0.004023358082645133
0.004023343795356065
0.004023337048235302
0.00402331975493752
0.004023297381202122
0.004023255038701275
0.004023227216576462
0.004023204959974431
0.004023169792012359
0.00402314108640147
0.004023069432827565
0.004023029001422832
0.004022944516366412
0.004022879493804147
0.004022808052754659
0.004022721693805144
0.00402263147983583
0.004022541898778782
0.00402245362734289
0.004022374834564179
0.004022327894599347
0.004022309357388672
0.004022308543490404
0.004022361505268471
0.004022424532707382
0.004022513205590035
0.004022574277737407
0.004022645271435445
0.00402269269778808
0.004022740253398222
0.004022762034196294
0.004022769384172781
0.004022769118948225
0.0040227680333766
0.00498287539159241
0.004982854947812874
0.004982832994612231
0.004982766187053841
0.00498271634376121
0.004982638819188004
0.004982587420628976
0.004982555387406547
0.004982546070626718
0.004982573101655432
0.004982656592288963
0.004982762706634082
0.004982913898566028
0.00498306761672709
0.004983202342942548
0.004983337463965168
0.004983421409392227
0.004983505573014304
0.004983539437906856
0.004983548921737497
0.00498355021421079
0.004983554789358227
0.00498355228162563
0.004983541133079168
0.004983537281672838
0.004983527979395967
0.004983525932427164
0.004983510408181978
0.004983491439817425
0.004983443596673883
0.004983420062814042
0.004983395485433004
0.004983359602511413
0.004983329763717589
0.004983247320380236
0.0049832068916914
0.004983108034488547
0.004983042120380795
0.00498295823889265
0.004982868033502896
0.004982763665304956
0.004982667577721225
0.004982565877370821
0.004982480400828383
0.004982425706995261
0.004982405606776278
0.004982404839342473
0.004982461196418191
0.004982532280397012
0.004982625373209843
0.004982693338852436
0.004982767424947463
0.004982822345817662
0.004982866729938632
0.004982885966822229
0.00498288834049736
0.004982880227576401
0.004982872237766095
0.006023239590274283
0.006023206119161501
0.006023170933286927
0.006023087410385787
0.006023022023936402
0.006022926658431919
0.006022865197635769
0.006022826194998175
0.006022815163102493
0.006022844003701808
0.006022943305469733
0.006023067759812273
0.006023240932671764
0.006023419629629334
0.006023573702607181
0.006023728044567337
0.006023822408299278
0.00602391614998692
0.006023954681816566
0.006023967131958929
0.006023972104297801
0.006023981379212755
0.00602398229637111
0.006023977469248327
0.006023978110725957
0.006023973710800269
0.006023975439638502
0.006023963905721564
0.006023945740850288
0.00602389996229291
0.006023875801094816
0.006023847435640782
0.006023808981674726
0.006023772720034451
0.006023685303843559
0.006023634704513292
0.006023525950145102
0.006023448534846342
0.006023351360512348
0.006023247908885152
0.00602313059844362
0.006023021249522467
0.006022906797826077
0.006022813598373257
0.006022754359443502
0.006022733424103013
0.00602273412473621
0.006022803432232949
0.006022885978414697
0.006022993696533733
0.006023074307337008
0.006023160174486741
0.006023222007670397
0.0060232642464718
0.006023279797582611
0.006023278452464489
0.006023260223105539
0.006023245256349312
0.007121265946297234
0.007121216200396344
0.00712116117103032
0.007121055364901104
0.007120967312343616
0.007120848445871328
0.007120771701211757
0.007120723284664888
0.007120709410192363
0.007120738506351025
0.007120859147677576
0.007121005660568518
0.007121205260695562
0.007121412272584502
0.007121589588915778
0.007121764589491792
0.007121869825309049
0.007121969295938213
0.007122011489600223
0.007122027664413186
0.007122035692664472
0.007122047714388816
0.007122052668044978
0.007122053278389308
0.007122059351045802
0.007122059569927343
0.007122064145997512
0.007122058031286745
0.00712204183114538
0.007122004709221028
0.007121978765127656
0.00712194813223324
0.007121907669798425
0.007121862432293639
0.007121774816253725
0.007121708278939324
0.007121592429729556
0.007121497466796763
0.007121384516796654
0.007121261105971373
0.0071211289506603
0.007121000101053048
0.007120872239602211
0.007120768612763926
0.007120706983593759
0.007120684710383031
0.007120692479733855
0.00712078218775497
0.007120879956321498
0.007121012112563832
0.007121110554796244
0.007121216623812267
0.007121286751703986
0.007121329666192135
0.007121343358192711
0.007121335273011286
0.007121307213037624
0.007121283030008377
0.008277703809355405
0.008277634620293867
0.008277556786685044
0.008277423793616602
0.008277309229602604
0.008277162821317345
0.008277066404610189
0.008277005757638635
0.008276987324868557
0.008277012133587031
0.008277150508887641
0.008277318164307353
0.008277540516107101
0.008277772767443299
0.008277969913689709
0.00827816215003627
0.008278274871717485
0.008278375131129497
0.008278418777372586
0.008278436726464907
0.0082784461087918
0.008278459510358044
0.008278469984134763
0.008278476178745487
0.008278491339413389
0.008278498065663437
0.008278508949811091
0.008278509001414771
0.00827849971895124
0.00827847561271472
0.008278452087657059
0.008278424465805996
0.008278385985172726
0.008278335626974578
0.008278252103206965
0.008278172560064769
0.00827805281227008
0.008277943171233927
0.008277815107751068
0.008277674024689397
0.008277528092092905
0.008277380766995034
0.008277241714131174
0.008277128003949311
0.008277065694760692
0.008277042746468066
0.008277060821004569
0.008277172658762129
0.008277286309076089
0.008277444633663983
0.008277561251845072
0.008277688634524598
0.008277767371093604
0.008277812065270666
0.00827782434076689
0.008277806430148239
0.008277768638410201
0.00827773282915318
0.009497592289453865
0.00949750245065533
0.009497400585429893
0.009497236366833523
0.009497091567912713
0.009496912851252891
0.009496790147931934
0.009496710421979063
0.009496683967152825
0.009496696092196952
0.009496838648382357
0.009497021597617941
0.009497255604670919
0.009497504877114385
0.009497713145052825
0.009497915256821613
0.009498029711965757
0.009498124267614413
0.009498165658020873
0.009498182377305028
0.009498191341911544
0.00949820574534738
0.009498220785396591
0.009498235304873625
0.009498260260710885
0.009498276948197285
0.009498301652525548
0.009498310732204456
0.009498313412332425
0.009498309186239635
0.009498296844264332
0.009498281338363624
0.00949825394571353
0.009498208649635569
0.009498137202229364
0.009498055005779714
0.009497939042018452
0.009497823951293016
0.009497687013703279
0.009497535638338864
0.009497380324370922
0.009497218905548201
0.009497071573848071
0.009496948559183371
0.009496885706946755
0.009496862123258594
0.009496889832233913
0.009497021740325207
0.009497149412002446
0.009497330996447336
0.00949746370559129
0.009497610068259166
0.009497697551038827
0.009497744442454518
0.009497755619513444
0.009497727257354848
0.009497679994980865
0.009497632270535137
0.01076355404807182
0.0107634468731511
0.01076332315221411
0.01076312591353124
0.0107629476882022
0.01076273070368521
0.0107625720174826
0.0107624563288965
0.01076241105155447
0.01076240400954225
0.01076252172087258
0.01076270716707426
0.01076293431428652
0.01076318583096103
0.0107633915732635
0.01076359148038043
0.01076370058288202
0.01076377911035413
0.01076381226075837
0.01076382288014031
0.01076382826289973
0.01076384080619532
0.0107638579256931
0.01076388132650457
0.01076391601467242
0.01076394624843496
0.0107639862008999
0.01076401610622896
0.01076403973785483
0.01076406048313336
0.01076407408485766
0.01076408197849182
0.01076408211397356
0.01076405858137547
0.01076401403087822
0.01076394836319569
0.01076385137971741
0.01076374750074897
0.01076361529038615
0.01076346582526069
0.01076330985179655
0.01076314143988813
0.01076298953908945
0.01076285753142054
0.01076279266924478
0.01076276753786636
0.01076279922896957
0.01076294583540126
0.01076308244946539
0.01076328086907086
0.01076342564636083
0.01076358693698446
0.01076368347798672
0.01076373392566531
0.01076374497967343
0.0107637093245501
0.01076365512178921
0.01076359992479619
0.01201526375728732
0.01201515412395471
0.0120150206770354
0.01201479708567128
0.01201458797200518
0.01201432964175481
0.01201412614580042
0.01201394558619831
0.01201385734839745
0.01201382550301539
0.01201387983879464
0.01201403974711009
0.01201423384449184
0.01201446235436674
0.01201464560675699
0.01201482280983352
0.01201491609747891
0.01201496304990294
0.01201497821846725
0.01201497412959554
0.01201496934416502
0.01201497139521994
0.01201498405470395
0.01201501100505151
0.01201505161576678
0.01201509506303558
0.01201515180374198
0.01201520298734023
0.01201525427546593
0.01201531043132036
0.01201536092495453
0.01201541581651684
0.01201545834045165
0.01201547900653013
0.01201548455677522
0.0120154654650921
0.01201541381838348
0.01201534892259617
0.01201524815583031
0.01201512293589166
0.01201498498452872
0.0120148245358459
0.01201467592766038
0.01201453639860173
0.01201446658751436
0.01201443775193809
0.01201446131092949
0.01201461100065109
0.01201474605145363
0.01201494920758082
0.01201509817989154
0.01201526719980918
0.01201537154118862
0.01201542787059049
0.01201544046310966
0.01201540557108127
0.01201535244328765
0.01201530245781861
0.01314419238148981
0.01314411517536275
0.01314400479791566
0.01314378430951506
0.01314356635963187
0.01314327882868712
0.01314302891937142
0.01314278354441039
0.01314260593020908
0.01314251427978492
0.01314248918980918
0.01314256486498914
0.01314268789312691
0.0131428515376748
0.01314298455071877
0.01314310358697126
0.01314315597780156
0.01314316925537958
0.0131431538560664
0.01314311249828603
0.01314307899301356
0.01314306349456397
0.01314305971763875
0.01314307329313454
0.0131431062453252
0.01314315182831427
0.01314321526845751
0.01314327901651811
0.01314335438706131
0.01314344468552079
0.01314353789205378
0.01314364688411279
0.01314374987486937
0.01314384341229066
0.01314392817548957
0.01314398918012136
0.01314402292459902
0.01314403694937859
0.01314401577438931
0.01314395572782855
0.01314387196558932
0.01314375403184156
0.01314362767832776
0.01314349022230984
0.01314341440527337
0.0131433798291423
0.01314338187132488
0.01314351144673069
0.01314362676107257
0.01314381149726205
0.01314394839295606
0.01314410991737791
0.01314421377476442
0.01314427552812518
0.0131442904711062
0.01314426511417734
0.01314422609847013
0.01314420361997755
0.01401353326635607
0.01401353832550225
0.01401351322262625
0.01401336901771954
0.01401321026820814
0.01401295318468111
0.01401269693058731
0.01401240870920315
0.01401214746129699
0.01401192237634091
0.01401178283876515
0.01401172710139279
0.01401171112040647
0.01401174194282106
0.01401177439122263
0.01401179828899069
0.01401180073062625
0.01401175410513693
0.01401168778308985
0.01401160423470292
0.01401152772156511
0.0140114639632161
0.01401142605096509
0.01401140777424883
0.0140114044950911
0.01401142487425358
0.01401146673858283
0.01401151542699951
0.01401159095150066
0.01401169218307009
0.01401181144352617
0.01401196287716203
0.01401212170366421
0.01401228996682493
0.01401246931191888
0.01401263986871274
0.01401279855837309
0.01401295374256209
0.01401306572078923
0.01401313982179614
0.0140131688110109
0.01401316909379348
0.0140131122253995
0.01401301377995575
0.01401294828564981
0.01401290191614057
0.01401288988244945
0.01401295949528612
0.01401302622313543
0.01401315213112938
0.01401324596279025
0.01401337125906958
0.01401345320663192
0.01401350809192075
0.01401352115511058
0.01401350292895521
0.01401349161987382
0.01401349777580032
0.01449959822795625
0.01449967636311157
0.01449975786716907
0.01449979535272912
0.01449981181470083
0.0144997313579287
0.01449960351304286
0.01449938839848658
0.01449911707011038
0.01449879399898473
0.01449848144345774
0.01449820327435391
0.01449797112960191
0.0144977885315382
0.01449764217783702
0.01449753579108029
0.01449741213917829
0.01449728332207533
0.01449714711215571
0.01449702222182901
0.01449689566419107
0.01449678185254275
0.0144966855882929
0.0144966010583689
0.01449654013530814
0.01449650567810136
0.01449648550435978
0.01449647683752877
0.01449650849379751
0.01449657174261395
0.01449666704446884
0.01449681019639676
0.01449697498919946
0.01449717497125831
0.0144974155545306
0.01449767793097809
0.01449796178088755
0.0144982766594
0.01449856881974078
0.01449885878681677
0.01449912413973446
0.01449934022280078
0.01449946883110239
0.01449952378383816
0.01449954281554536
0.01449951831194285
0.01449948579267011
0.01449947324212165
0.01449945253553363
0.01449946035052478
0.01449946102714748
0.01449950777703286
0.0144995354818724
0.01449955551695292
0.01449955164164324
0.0144995213246554
0.0144995074474819
0.01449951526355561
0.01456667298612275
0.01456677244545923
0.01456697663775244
0.01456727155522779
0.01456760147551252
0.01456785984630779
0.01456803267071318
0.01456807420083868
0.01456795884325146
0.01456765793889169
0.01456721043991124
0.01456665873936223
0.01456612807124415
0.01456561885073254
0.01456519591944131
0.01456489038893058
0.01456463671111541
0.01456445073880613
0.01456426222048238
0.01456410970580767
0.01456394474680651
0.01456377772924934
0.01456362016942058
0.01456345617323898
0.01456331526370836
0.01456317554404236
0.01456306579018746
0.01456295430759273
0.01456289324510159
0.01456286711700543
0.01456286910927347
0.01456293040424284
0.01456302097361353
0.01456316699384924
0.01456338161989802
0.01456365253339003
0.01456399077527723
0.01456441387168097
0.0145648642411556
0.01456537760983823
0.01456591669326196
0.01456644929199779
0.01456694697205811
0.01456731621381584
0.01456754210432428
0.01456761361778852
0.01456761860075045
0.01456753597326805
0.01456736710482675
0.01456722452314344
0.01456705758106507
0.01456696928967535
0.01456691425310378
0.01456689427481694
0.01456686045545535
0.01456683060808445
0.01456675045745516
0.0145666850499981
0.01427580228448999
0.01427570968222037
0.01427585490301133
0.01427633764807815
0.0142770012533701
0.01427765862309929
0.01427840803936789
0.01427896693452028
0.01427924865818974
0.01427929096905629
0.01427897019821531
0.01427820118335834
0.01427735193610612
0.01427640107112558
0.01427552550591959
0.01427486494394788
0.01427441814276097
0.01427419394504475
0.01427397746056922
0.01427381893405955
0.01427365046046411
0.01427344848212461
0.0142732535592475
0.01427301727573002
0.01427280204142143
0.01427255734044299
0.01427234583272783
0.01427212115312461
0.01427194427386847
0.0142717833163895
0.01427166449806403
0.01427157996607522
0.01427153261293227
0.01427152859158707
0.01427160653488811
0.0142717600948539
0.01427201480574031
0.01427240664666251
0.01427288068832427
0.01427350459714471
0.01427424786369597
0.0142751091990556
0.01427605058382134
0.0142769121867433
0.01427765580267975
0.01427806437331407
0.01427820868172173
0.01427816218681734
0.01427788191321367
0.01427755438532526
0.01427713683436985
0.01427680191756
0.01427656727179571
0.01427646817464264
0.01427643733851526
0.01427649531626219
0.01427640950676316
0.01427611933999558
0.01372916964417552
0.01372865826665068
0.01372854337875325
0.01372895939804328
0.01372982621379797
0.01373076315796445
0.01373206825268086
0.01373326449919362
0.01373440153001735
0.01373491094032695
0.01373498077354793
0.01373423402738409
0.01373317202818818
0.0137318462284035
0.01373042801832305
0.01372930101393644
0.01372864312826401
0.01372836104466671
0.01372815245288091
0.01372800340016585
0.01372787297736655
0.01372766288321408
0.01372746923118002
0.01372718805651223
0.01372693057126358
0.0137266046322684
0.0137263047949757
0.01372597973334066
0.01372570273072092
0.01372542114588412
0.01372517997641139
0.01372495061459579
0.01372471527464151
0.01372453234442534
0.01372441064487239
0.01372435819490338
0.01372440313204298
0.01372461215872203
0.01372493085388639
0.01372546504040388
0.01372620903667267
0.01372722863618211
0.01372851931137752
0.01372992429644333
0.01373133559701992
0.01373234576182271
0.01373275618835238
0.01373280791646615
0.01373254355744826
0.01373212328919475
0.01373147286876858
0.01373084789842588
0.0137303301724284
0.01373013739943051
0.01373012834328389
0.01373050313690125
0.01373057131814493
0.01373015259484725
0.01303395405645293
0.01303256392541922
0.01303206598520919
0.01303216270710591
0.0130330036815244
0.01303394352347705
0.01303558034846581
0.01303727957303304
0.01303935695181915
0.01304083580997127
0.01304138453958247
0.01304100785262467
0.01303996219105597
0.01303847973791753
0.01303652978968905
0.01303479943342026
0.01303382238458526
0.01303346871324911
0.01303329084600712
0.01303315786066582
0.01303308791133217
0.01303289277058174
0.01303273218895442
0.01303243575632515
0.01303217170850183
0.01303180082718142
0.01303143980652069
0.01303104208787588
0.01303070041100632
0.0130303333695068
0.01303000111950342
0.01302965833900669
0.01302926974859905
0.01302892891667955
0.01302861768693443
0.01302829893843162
0.01302811525172101
0.01302805553326066
0.01302809142855499
0.01302835737800621
0.0130288683541495
0.01302977032413752
0.01303114259110183
0.01303291265051396
0.01303497735804587
0.01303688334483048
0.0130377704177331
0.0130379751767273
0.01303785947715763
0.01303752099971251
0.01303675774866039
0.01303590263787395
0.01303490728693201
0.01303443556385363
0.0130343673116973
0.01303535628473053
0.01303579085280543
0.01303554812053563
0.01226956096876281
0.01226702973006812
0.01226588110939925
0.01226563318295912
0.01226622397724612
0.01226689305151113
0.01226853475000632
0.01227041318533935
0.01227318657843478
0.01227589198659027
0.012277215721895
0.01227733952912154
0.01227658231160419
0.01227526456655592
0.01227296612290864
0.01227059040474445
0.01226913089808732
0.01226869310804022
0.01226854485308558
0.01226842742004236
0.01226841639146985
0.01226825010262733
0.01226813879916868
0.01226785008077877
0.01226760378295043
0.01226722437486027
0.01226682970055998
0.01226638538439023
0.01226601461313927
0.01226560069860474
0.01226521825440913
0.01226481085908848
0.01226431536647514
0.01226386157585716
0.01226342026950331
0.0122628996581132
0.01226246388214618
0.01226212417908276
0.01226186753405904
0.01226177890064416
0.01226190433281658
0.01226244610050941
0.01226358431087487
0.01226538977562405
0.01226789324056283
0.01227077461207628
0.01227237143972856
0.01227283204059582
0.01227289587012474
0.01227281299619928
0.01227212695564853
0.01227120150304226
0.01226974251938665
0.012268687424404
0.01226839007142536
0.01226989142173739
0.01227115997656553
0.01227136388769208
0.01147537419696302
0.01147178582981101
0.01146976471706327
0.01146911462889504
0.01146936650709696
0.01146958386655696
0.01147092596408752
0.01147260607226021
0.01147569689434765
0.01147941187200963
0.01148195203003892
0.01148258850278554
0.01148230595793401
0.01148147886442868
0.01147915220084953
0.0114762522007802
0.01147412889142554
0.01147355920133124
0.01147345323628335
0.01147331181493755
0.01147335452072763
0.01147322678937218
0.01147316643447648
0.01147289493816257
0.01147267935986121
0.01147232329741276
0.01147192001122693
0.01147144831579093
0.01147107584989201
0.01147064650584813
0.01147024877269274
0.01146982135690872
0.01146926342857935
0.01146874393161319
0.01146824197069759
0.01146757921082708
0.01146694817028134
0.01146639214976958
0.01146585948484653
0.01146538754760786
0.01146511788736953
0.01146515972892725
0.01146580942963376
0.01146728849527854
0.01146989031382875
0.01147355325008838
0.01147608284026474
0.01147690341112068
0.01147715866320232
0.01147740322088759
0.01147699618087074
0.01147622501397938
0.01147450703393467
0.01147264133703163
0.01147187130589187
0.01147345042007557
0.01147599717689783
0.01147684640006911
0.01065704757651546
0.0106528055119644
0.01064977378061294
0.0106485832730321
0.01064850962514615
0.01064822575710352
0.01064902706741613
0.01065016872866771
0.01065310661116801
0.01065740686256224
0.01066137573000572
0.01066270955206968
0.01066291088297718
0.01066282989933959
0.01066087370794721
0.01065774563591983
0.01065479684396497
0.01065399590076691
0.01065394382636472
0.01065374788299089
0.01065383005010936
0.01065373856553698
0.01065372584100685
0.01065347450609488
0.01065328990818011
0.01065297997489856
0.01065258424982169
0.01065209918760966
0.01065174576885308
0.01065132519976264
0.0106509427891512
0.01065053036467615
0.01064994758409364
0.01064940174305323
0.01064889915030665
0.01064816039588316
0.01064740246694674
0.01064669722602324
0.01064595953307926
0.01064519689426716
0.01064445085786918
0.01064402040262428
0.01064401999248643
0.01064485861952785
0.0106471467653514
0.01065123568291294
0.01065485644908852
0.01065611698996944
0.01065651939713124
0.01065718430757402
0.01065717596986005
0.01065679160427706
0.01065511571212249
0.01065247454479871
0.01065091151747114
0.01065202526777507
0.01065590912165721
0.01065770894753241
0.009800324414450105
0.009796047758974573
0.00979203806940855
0.009790121222475478
0.009789800238866279
0.009788982706683002
0.009789127966332314
0.009789469256093393
0.009791740893937138
0.009796024546398814
0.009801431900073772
0.009803672093506412
0.009804387221519679
0.009805142305242832
0.009803992722952154
0.009801105384395001
0.009797257068961732
0.009796074650638101
0.009796069112288039
0.009795786847648072
0.009795893434663267
0.009795821978666788
0.009795851596304755
0.009795610984468099
0.009795462180479322
0.009795215413479767
0.00979483805734465
0.009794350284696126
0.009794030823653864
0.009793638211902867