/*--------------------------------*- C++ -*----------------------------------*\
| =========                 |                                                 |
| \\      /  F ield         | OpenFOAM: The Open Source CFD Toolbox           |
|  \\    /   O peration     | Version:  v1812                                 |
|   \\  /    A nd           | Web:      www.OpenFOAM.com                      |
|    \\/     M anipulation  |                                                 |
\*---------------------------------------------------------------------------*/
FoamFile
{
    version     2.0;
    format      ascii;
    class       volScalarField;
    location    "10000";
    object      nuTilda;
}
// * * * * * * * * * * * * * * * * * * * * * * * * * * * * * * * * * * * * * //

dimensions      [0 2 -1 0 0 0 0];


internalField   nonuniform List<scalar> 
1856
(
0.0004981323752745632
0.0004981306888547174
0.0004981306256247211
0.0004981304371456108
0.000498130042628426
0.000498129774033141
0.0004981295075310729
0.0004981293639385266
0.000498129422331484
0.00049812975073308
0.0004981302519712477
0.0004981309584286902
0.000498131798549109
0.0004981323279578886
0.0004981330127187966
0.0004981333520603113
0.0004981336066132545
0.0004981336104350278
0.0004981335005016564
0.0004981332090038122
0.0004981329498235531
0.0004981327714785611
0.0004981323908758874
0.0004981321430775895
0.0004981319434211976
0.000498131539412629
0.0004981313468122044
0.0004981309137121084
0.0004981307292641156
0.0004981302410176011
0.0004981300344426463
0.0004981296228726955
0.0004981294891022948
0.0004981290563826293
0.000498128706195696
0.0004981283575282861
0.0004981278524727408
0.0004981274962601049
0.000498126929249899
0.000498126678489876
0.0004981261661077648
0.000498125920138425
0.0004981256179245459
0.0004981255224049697
0.0004981254569624946
0.000498125923578321
0.0004981262445420995
0.0004981269723864567
0.0004981275193225287
0.0004981282982130298
0.0004981286893730561
0.0004981295417848206
0.000498129909208934
0.0004981302873605462
0.0004981303865471613
0.000498130625686082
0.0004981308118815407
0.0004981312074236658
0.0005342669227321387
0.0005342688405543297
0.0005342659091637939
0.0005342622101855607
0.0005342609056411201
0.0005342573128664853
0.0005342571860969865
0.0005342569679279798
0.0005342636754231507
0.0005342719566303725
0.0005342836853706959
0.0005342952402712749
0.0005343098214195463
0.0005343182524877324
0.0005343286332706707
0.0005343348988549562
0.0005343386606659169
0.0005343403096183196
0.0005343405128851966
0.0005343378109054464
0.0005343336962624985
0.0005343311194761784
0.0005343254486372739
0.0005343210965547332
0.0005343166744809271
0.0005343112400687879
0.0005343071630157168
0.000534300344235029
0.0005342941738464309
0.0005342869477187834
0.0005342825538657913
0.0005342772845534032
0.0005342714872367603
0.0005342656476648588
0.0005342560200134603
0.0005342500177755595
0.000534239348980755
0.0005342324667534699
0.0005342235412860775
0.0005342149634967599
0.0005342077389360583
0.0005342002967829598
0.0005341958087910296
0.0005341940170573194
0.0005341943476563425
0.0005342002637620329
0.0005342078676461846
0.000534219212210371
0.000534228132846275
0.0005342388108423832
0.0005342444685985325
0.0005342545381380309
0.0005342594431859084
0.0005342652236517257
0.000534266871041496
0.0005342676534045789
0.0005342672705790879
0.0005342667866860289
0.001001304409525236
0.001001305405837577
0.001001294944685516
0.001001284543091566
0.00100127514758717
0.001001261401236244
0.001001255420351927
0.001001252245725991
0.001001253719013058
0.001001268243660453
0.001001291223113946
0.00100132161083412
0.001001363713209296
0.001001397506096394
0.001001435402324336
0.001001467026793374
0.001001488093916039
0.00100150098047543
0.001001504369300966
0.001001504238826527
0.001001497878982178
0.001001494171095968
0.001001485129309984
0.001001476007185991
0.001001468737953656
0.001001457864689757
0.001001451161190958
0.00100143765097366
0.001001424578429444
0.001001408385948271
0.001001398470130631
0.001001387182170235
0.001001373372257711
0.001001359764784049
0.001001335413378693
0.001001318940054662
0.001001290849325716
0.00100126938882475
0.001001244543111862
0.001001216151263837
0.00100119163223959
0.001001165240883673
0.001001143485373993
0.001001125171589137
0.001001116936687142
0.001001113876864217
0.001001120058239425
0.001001141623089871
0.001001161464900234
0.001001191581249759
0.001001207749938059
0.001001239306461731
0.001001256877188878
0.001001278869126862
0.00100128726906895
0.00100129065369294
0.001001290876317189
0.00100129405350948
0.00162073442624181
0.00162073549273643
0.001620720079645904
0.001620700691996684
0.001620682406231857
0.001620655916125495
0.001620643865825822
0.00162063805081531
0.001620639452213793
0.001620665682818083
0.001620705771463551
0.001620756470405046
0.001620824985648922
0.001620882334491876
0.001620941477377639
0.001620992217124119
0.001621025824468846
0.001621049210746002
0.001621056864704957
0.001621057548707243
0.001621051595149634
0.001621045486558793
0.001621034684449274
0.00162102084905992
0.001621011532752862
0.001620996025502961
0.001620987909980744
0.001620969446075807
0.001620950560848095
0.001620925552752512
0.001620909733683919
0.001620893252460334
0.001620871994248116
0.001620851925661335
0.001620813987247668
0.001620788400151233
0.001620743707099423
0.001620708711128158
0.00162066903561298
0.001620622271781862
0.001620580034673426
0.001620535626001889
0.001620496604511385
0.001620465289040742
0.001620451206635004
0.001620446499802308
0.001620455267265943
0.001620490127633035
0.001620522714550201
0.001620570631911381
0.001620597180739999
0.001620641810136666
0.001620667149382582
0.001620698265633586
0.001620710453344649
0.001620716602273435
0.001620719412342544
0.001620724625963146
0.00234045001058383
0.0023404510107646
0.002340432504978491
0.002340402457777433
0.002340375186908104
0.002340334668481558
0.002340312369871416
0.002340301323640926
0.002340299942389208
0.002340328932516504
0.00234038383842241
0.002340451030386204
0.002340545178060454
0.00234062831630792
0.002340710003988161
0.00234078370196418
0.0023408323716172
0.002340869155476061
0.002340882177652223
0.002340884590550644
0.002340880899270511
0.002340874036536085
0.002340862928163664
0.002340846465648153
0.00234083592471507
0.002340818714566436
0.00234080982475389
0.002340789504671105
0.002340766657204391
0.002340734811877581
0.002340714167967678
0.002340694626545742
0.002340667434585531
0.002340642397657674
0.00234059273253302
0.002340560070429156
0.002340500848907131
0.002340454168936093
0.002340401923064912
0.002340338453427719
0.002340279040814062
0.002340216913770578
0.002340160455848813
0.002340111620721706
0.002340088528956916
0.002340079858940058
0.002340085645263706
0.002340130217666193
0.002340173997246783
0.00234023797863897
0.002340275778743803
0.00234033240210101
0.002340366068769054
0.002340406030333389
0.002340422258765749
0.002340431971158859
0.002340435547801757
0.002340440773420012
0.003144982629394946
0.003144981096764398
0.003144962213429621
0.0031449204696215
0.003144885824808694
0.003144831372432036
0.003144797301403706
0.003144778812529245
0.003144774357836059
0.003144802264675335
0.003144868976036497
0.003144950918331918
0.003145068175759074
0.003145177136604288
0.00314528063205042
0.003145377864849959
0.00314544211446709
0.003145494233945137
0.003145513303405633
0.003145517681716069
0.003145517074542914
0.003145511913195838
0.003145501590116128
0.003145484584886226
0.003145474431788976
0.003145457868078119
0.00314544939058856
0.003145428803351432
0.003145404302658136
0.00314536621465696
0.003145342961063227
0.0031453210885665
0.003145289393948151
0.003145259929541614
0.003145199069761979
0.003145161719879914
0.003145088216578426
0.003145033274510245
0.00314496880932114
0.003144892199315192
0.003144816103387896
0.003144738651002779
0.003144664609647174
0.00314459938197198
0.003144565359284725
0.00314455228330201
0.003144553935863166
0.003144604775662006
0.003144658594872628
0.0031447354172624
0.003144784076510783
0.003144850588199398
0.003144892570977764
0.003144938884268636
0.003144958343978389
0.003144967958709834
0.003144970756367342
0.003144974681513112
0.004022774338071291
0.004022765988921905
0.004022746364515067
0.004022692586105846
0.004022651786983294
0.004022584116395321
0.00402254108998402
0.004022514787145863
0.004022507293586164
0.004022533043451298
0.004022607639879307
0.004022702622946642
0.00402283866125143
0.00402297061500437
0.00402309216477279
0.004023210819881321
0.004023288826203928
0.004023356816939467
0.004023382005159211
0.004023389011787246
0.004023390521163861
0.004023390080623097
0.004023382058038568
0.0040233669588612
0.004023359213991974
0.004023345548977773
0.004023338978464086
0.004023319293593269
0.004023295299055557
0.004023251773012705
0.004023229567385625
0.004023205621315509
0.004023171835304933
0.004023139114382021
0.004023067862357983
0.00402302831695469
0.004022941219082056
0.004022882238434424
0.004022806108970208
0.004022721197361182
0.004022629738944363
0.004022541177782587
0.004022451163937775
0.004022373567375843
0.004022328518354059
0.004022311027261621
0.00402231088703376
0.004022364738434626
0.004022427044418474
0.004022512099746201
0.004022569664932485
0.004022642982687574
0.004022693072695066
0.004022742051511114
0.004022761644616719
0.00402276792895387
0.004022767313911254
0.004022767134392221
0.004982877226875517
0.004982856560973991
0.0049828323793016
0.004982765407653375
0.004982718065450621
0.004982637373943578
0.004982589504341012
0.004982556450853516
0.004982547072401814
0.004982572019550484
0.004982653508650951
0.004982762489277586
0.004982914811979869
0.004983065681207734
0.004983201469895985
0.004983338174018959
0.004983426405544897
0.004983508118040074
0.004983538133071599
0.004983545903634906
0.004983550032524803
0.004983556227126632
0.004983551314317916
0.004983541811050672
0.004983538436757764
0.004983530292776221
0.004983528266639037
0.00498351012064565
0.004983488847922506
0.00498344027679092
0.004983423385153636
0.004983395390626106
0.00498336216239559
0.004983325896114517
0.004983245992038901
0.004983205186774783
0.004983104582390914
0.004983044770285915
0.004982955301618522
0.004982867096698147
0.004982760602332412
0.004982666606530821
0.004982562272212916
0.004982479281431574
0.004982426497408663
0.004982408348986532
0.004982407725557881
0.004982465380705507
0.004982534489883626
0.00498262404615791
0.004982687493283786
0.004982765661226107
0.004982822893938934
0.004982868021458722
0.004982884884398207
0.004982886272167442
0.004982876908210384
0.004982871349755184
0.006023241339181774
0.006023206915817247
0.006023170143777283
0.006023086752277165
0.006023023629850165
0.00602292586247946
0.00602286771139875
0.006022827884472902
0.006022816734891793
0.006022843060644557
0.006022940593727995
0.00602306764175497
0.006023242017804073
0.006023417468803369
0.006023572462510227
0.006023728523167939
0.006023827388279617
0.006023918454439842
0.006023952846233751
0.006023964865918939
0.006023972399114652
0.006023982424768945
0.006023981936144545
0.006023978150143256
0.00602397944540804
0.00602397571868845
0.006023977655737913
0.006023963667098088
0.006023943302907643
0.006023897328185957
0.006023879110954126
0.006023847778355679
0.006023812100813322
0.006023768982858578
0.006023684151172133
0.006023632797036929
0.006023522852229399
0.006023451041462728
0.006023348278143957
0.00602324646715298
0.006023127041013546
0.006023019189174406
0.00602290270230873
0.006022811835526358
0.006022754632431405
0.006022735671311069
0.00602273665783167
0.006022807828406579
0.006022888168764662
0.006022992714636127
0.006023068913731945
0.006023159115531137
0.00602322289099717
0.006023265080787169
0.006023279374916528
0.00602327658506622
0.006023256839386415
0.006023243549487481
0.007121266926409301
0.007121216443614745
0.007121160620917857
0.007121054961144906
0.007120968945099801
0.007120848463468664
0.007120774476924677
0.007120725856363144
0.007120711724436092
0.007120738694225296
0.007120857408367543
0.007121005653166415
0.007121206060807342
0.007121409893684872
0.007121587747963357
0.007121764211133115
0.007121873721520402
0.007121970593920655
0.007122009782869599
0.007122026374018387
0.007122036377860788
0.007122049520115243
0.007122053274554519
0.00712205433291921
0.007122060947057462
0.007122061054062873
0.007122065547074991
0.007122057121324501
0.007122039110627487
0.007122002106099053
0.007121980540951175
0.007121948768761543
0.007121910433887498
0.007121859880380816
0.007121774093991118
0.007121706877391389
0.007121590345498838
0.007121500259570329
0.007121382567256492
0.00712126047137422
0.007121126672053542
0.007120998013081158
0.007120869232058086
0.007120766754417956
0.00712070688328609
0.007120685654927046
0.007120694483974075
0.00712078610499468
0.007120882126524252
0.007121011695184754
0.007121106244219313
0.007121216033858071
0.007121287387843191
0.007121330362788117
0.007121343451310019
0.007121334259549848
0.007121304690057376
0.007121281613205424
0.008277703859212596
0.008277634080538264
0.008277556182790292
0.008277423280847193
0.008277310863910491
0.008277163325943105
0.008277069438644424
0.008277008936043231
0.008276990144723335
0.008277013351424528
0.008277149712650655
0.008277318395801885
0.008277541044681406
0.008277770164357086
0.008277967754849272
0.008278161014220029
0.008278277703793148
0.008278375796959307
0.008278417530149552
0.008278436098889017
0.008278447431431645
0.008278462146447806
0.008278471358267625
0.008278477941764424
0.008278492941585369
0.008278499501561185
0.008278508685805873
0.008278507341945889
0.008278496801102693
0.008278472975022919
0.0082784525258216
0.008278425330213748
0.008278388162928219
0.008278334473482729
0.008278251855940916
0.008278171807792179
0.008278051952842935
0.008277946153526325
0.00827781407981353
0.008277674213452831
0.008277526806640557
0.008277378699048051
0.008277239607854233
0.00827712595992355
0.008277065411827917
0.008277042676060956
0.008277062581679859
0.008277176145253808
0.008277288473862348
0.008277444843595274
0.008277557959589354
0.008277688681742411
0.008277767896099793
0.008277812546659012
0.008277824391783305
0.008277806058748895
0.00827776636961391
0.008277731914792627
0.009497591212644972
0.009497501001913787
0.009497399750529118
0.009497235603925527
0.009497093273204213
0.009496913639219751
0.009496793511668853
0.009496713801726807
0.009496686905146729
0.009496697962158006
0.00949683852423594
0.009497022133870173
0.009497256000088916
0.009497502169245142
0.009497711006298136
0.009497913678279526
0.009498031978729206
0.009498124614496018
0.009498164791912046
0.009498182279157077
0.009498193392937525
0.009498208857009341
0.009498222831029178
0.009498237552882993
0.00949826197550714
0.009498278248328069
0.00949830038594955
0.009498308383733368
0.009498310803531062
0.009498306671410663
0.009498296638062415
0.009498282198366374
0.0094982555410606
0.00949820851384069
0.009498137166324644
0.009498054686035998
0.009497939117266938
0.009497826735672394
0.009497686271329873
0.009497536292357701
0.009497379403174839
0.009497216762910342
0.009497069935578769
0.009496946304382893
0.009496885391188804
0.009496861477634932
0.009496891610503169
0.00949702487857002
0.009497151521588029
0.009497331685131947
0.009497461190661312
0.009497610790281151
0.009497698085143435
0.009497744554645349
0.009497755289354974
0.009497726978627431
0.00949767748567455
0.009497631585479241
0.01076355220628999
0.01076344495510656
0.0107633222532498
0.01076312502254919
0.01076294952043707
0.0107627316083363
0.01076257576666425
0.01076245975599637
0.01076241337621114
0.01076240618403583
0.01076252199390333
0.01076270808314012
0.01076293472377003
0.01076318322952859
0.01076338964483742
0.0107635898279369
0.01076370245085639
0.01076377928746378
0.0107638114577316
0.01076382344974502
0.01076383091181973
0.01076384407903095
0.01076386072636697
0.01076388406316055
0.01076391783049788
0.01076394659769135
0.01076398556008925
0.01076401238201326
0.01076403689055633
0.01076405797589595
0.01076407357342873
0.01076408234770275
0.01076408329111734
0.01076405896329375
0.01076401416128136
0.01076394851715465
0.01076385236974506
0.01076375026771716
0.01076361491399299
0.01076346731833925
0.01076330950680517
0.0107631398171796
0.01076298805861753
0.01076285558421893
0.01076279240404211
0.01076276658411611
0.01076280097051618
0.01076294848973775
0.01076308433633774
0.01076328170650394
0.0107634236071114
0.01076358823199794
0.01076368411014039
0.01076373364787929
0.01076374422171974
0.01076370893506305
0.01076365248952554
0.01076359975896427
0.01201526114624142
0.01201515195482948
0.01201501953702564
0.01201479597406747
0.01201458979266208
0.01201433040794552
0.01201412988112096
0.01201394883817984
0.01201385939108254
0.0120138275383652
0.01201388025728551
0.01201404103407609
0.01201423424266567
0.01201446001883413
0.01201464398861683
0.01201482151382376
0.01201491703930108
0.01201496332776277
0.01201497890628823
0.01201497463884061
0.0120149719614941
0.01201497448350801
0.01201498766278536
0.01201501403138457
0.01201505360209795
0.01201509528700817
0.01201515068220168
0.01201519859934802
0.0120152516278713
0.01201530760502106
0.01201535981095031
0.0120154164751085
0.01201545925030185
0.01201547949261835
0.01201548512527314
0.01201546631218496
0.01201541576463223
0.0120153518104045
0.01201524801917212
0.01201512519035943
0.01201498501001016
0.01201482350045777
0.0120146744846597
0.01201453393585795
0.01201446633424228
0.0120144365482905
0.01201446282746092
0.01201461309816735
0.01201474770647094
0.01201495005921072
0.01201509658792191
0.01201526913330274
0.01201537246955789
0.01201542731699797
0.01201543941925491
0.01201540509319125
0.01201534999478031
0.01201530310378914
0.01314418893952066
0.01314411321616375
0.01314400331194654
0.01314378314555627
0.01314356808215146
0.01314327933841766
0.0131430325231101
0.01314278620201895
0.01314260796521042
0.01314251516528672
0.01314248961693235
0.01314256643438933
0.0131426881548071
0.01314284980033409
0.01314298322063023
0.01314310316383969
0.01314315687551494
0.01314316937236344
0.01314315530967728
0.01314311315976576
0.01314308150886942
0.01314306686056421
0.01314306364067589
0.01314307621887671
0.01314310845668632
0.01314315208533687
0.0131432133911735
0.01314327423528887
0.01314335210505699
0.01314344197654327
0.01314353706531722
0.01314364786893969
0.0131437502366255
0.01314384464721112
0.01314392886435953
0.01314399087649106
0.01314402527687788
0.0131440398139162
0.0131440155565963
0.01314395834015575
0.01314387229036459
0.01314375376397462
0.01314362537858901
0.01314348760378626
0.01314341437700937
0.01314337836157957
0.01314338313895792
0.01314351294774141
0.01314362812394787
0.01314381218094399
0.01314394711354842
0.01314411228141947
0.01314421516247102
0.01314427470848836
0.01314428915002451
0.01314426461836189
0.01314422534579945
0.01314420373804425
0.01401353088536133
0.01401353728669195
0.01401351199592132
0.01401336881494356
0.01401321199096849
0.01401295363517606
0.01401270025208659
0.01401241004523442
0.01401214865965165
0.01401192187034304
0.01401178404850085
0.01401172791786414
0.01401171138648478
0.01401174128750533
0.01401177372559853
0.01401179809499182
0.01401180197332309
0.01401175437015537
0.014011689885848
0.01401160591688052
0.01401152946613811
0.01401146858341677
0.01401142919550846
0.01401141041839031
0.01401140705249627
0.01401142520173715
0.01401146368950565
0.01401151033934657
0.01401158861026242
0.01401168941240729
0.01401181100377746
0.0140119637526033
0.01401212173482705
0.01401229167199013
0.01401247035618627
0.01401264134515256
0.01401280195302718
0.01401295749108324
0.01401306650253832
0.01401314248937797
0.01401317079429522
0.01401317058663056
0.01401310899977581
0.01401301111162236
0.01401294917034849
0.01401290109301653
0.01401289038696494
0.01401296000037857
0.01401302705849198
0.01401315220138063
0.0140132445841224
0.01401337356072624
0.01401345485766232
0.01401350694027686
0.01401351959108153
0.01401350278319655
0.01401349080595406
0.01401349926196807
0.01449959569478989
0.01449967427120222
0.01449975694958738
0.01449979692033644
0.01449981313632983
0.01449973212142129
0.01449960597201461
0.01449938859507235
0.01449911810658682
0.01449879349740985
0.01449848022990118
0.01449820397518079
0.01449797082908562
0.01449778853046506
0.01449764269438863
0.01449753489531619
0.01449741402963447
0.01449728391658914
0.0144971504826771
0.01449702513209606
0.01449689671533526
0.01449678479612557
0.01449668918654076
0.01449660325943567
0.01449654404661697
0.01449650412696636
0.01449648106622746
0.01449647247841668
0.01449650625059021
0.01449656966653122
0.01449666768261942
0.01449681126873977
0.01449697531227617
0.01449717710676102
0.0144974168999297
0.01449767956413016
0.01449796627144497
0.01449828076251296
0.01449856868182181
0.01449886302259131
0.01449912613510586
0.01449933928520513
0.0144994664149472
0.01449952317936356
0.01449954388848859
0.01449951475928437
0.0144994863613587
0.01449947265938462
0.01449945338024743
0.01449945954491912
0.01449945979030605
0.01449951008248437
0.01449953694671021
0.01449955547835228
0.01449954966616103
0.01449952146895555
0.01449950710040048
0.01449951838109144
0.0145666708341304
0.01456677145322208
0.01456697632229963
0.01456727342259915
0.01456760502656419
0.01456786209857929
0.01456803262634422
0.01456807457061579
0.01456795979077586
0.01456765644382478
0.01456720784409941
0.01456665823651032
0.01456612665604194
0.01456561898820351
0.01456519713068869
0.0145648896571677
0.01456463861250283
0.01456445154438314
0.01456426741549026
0.01456411480486165
0.01456394594991201
0.01456378008373363
0.01456362393972547
0.01456345732530908
0.01456331661032476
0.01456317528972309
0.01456306067530683
0.01456294985538679
0.01456289142515932
0.01456286683900251
0.0145628709588985
0.01456293129623838
0.0145630218335741
0.01456316882579475
0.01456338240790711
0.01456365369053448
0.01456399588678379
0.01456441775668859
0.01456486326830162
0.01456538117985493
0.0145659183489867
0.01456645294478571
0.0145669440099853
0.01456731614006155
0.01456754090042619
0.01456761158324351
0.01456761830140015
0.01456753400177448
0.01456736675300788
0.01456722399854133
0.01456705555217146
0.01456697059092502
0.01456691578089099
0.01456689436951852
0.014566858034366
0.01456683117193172
0.01456675109626542
0.01456668688594512
0.01427579986323646
0.01427570836348338
0.01427585478658397
0.01427634036339775
0.01427700543048088
0.01427765996509076
0.01427840830494293
0.01427896932212292
0.01427924871135376
0.01427928924331569
0.0142789674307911
0.0142782001371392
0.01427734935354249
0.01427640059996289
0.01427552669096629
0.01427486429333591
0.01427441920943701
0.01427419440289274
0.01427398445741112
0.01427382642610119
0.01427365182652893
0.01427345027271952
0.01427325806200372
0.01427301849530295
0.01427280302466797
0.0142725570983124
0.01427233960401921
0.01427211652067333
0.014271942105381
0.01427178258967859
0.01427166715938348
0.01427157945075179
0.01427153464518545
0.01427152998942326
0.01427160679275067
0.01427176123573076
0.01427202214931472
0.01427241186179946
0.01427288050144822
0.01427350816048485
0.01427424957063315
0.01427511524581853
0.01427604754596275
0.01427690860347064
0.0142776553281293
0.01427806145212269
0.01427820733464641
0.01427815858073331
0.01427788092617488
0.01427755388970661
0.01427713421733737
0.01427680334272591
0.01427656945046676
0.01427646660931426
0.01427643653714536
0.01427649632987056
0.01427640910564131
0.01427612158364977
0.01372916590059898
0.01372865551342306
0.01372854262298621
0.0137289626901877
0.01372983109133709
0.01373076492876503
0.01373207080632496
0.01373326734164291
0.01373440172347918
0.01373490839300002
0.01373497850938455
0.01373423265666636
0.01373316825814924
0.01373184447594175
0.01373042863762377
0.01372930044510939
0.01372864405836803
0.01372836053268005
0.01372816010127026
0.01372801323718893
0.013727875395499
0.0137276649203564
0.01372747459803332
0.01372718896865417
0.0137269303346543
0.01372660304443625
0.01372629702422274
0.01372597565917765
0.01372570130720592
0.01372542168812217
0.01372518485328308
0.0137249511560186
0.01372471715788009
0.01372453436248769
0.01372440965924412
0.01372435746461539
0.01372441110254145
0.01372461717684569
0.01372493001153087
0.01372546691951543
0.01372620899268944
0.01372723538692643
0.01372851712189793
0.01372992073018867
0.01373133546024625
0.01373234324412826
0.01373275485197798
0.01373280364649576
0.01373254218168181
0.01373212273543399
0.01373146983920422
0.01373084871123219
0.01373033203601408
0.01373013573258977
0.01373012793725538
0.01373050409745014
0.01373057034264649
0.01373015419384171
0.0130339492635178
0.01303256022221043
0.01303206468593837
0.01303216613415116
0.01303300904425717
0.0130339455480166
0.01303558406844812
0.01303728039905721
0.01303935924239192
0.01304083319248343
0.01304138218968826
0.01304100660700406
0.01303995784906569
0.01303847628700902
0.01303652938906275
0.01303480039967934
0.01303382388336818
0.01303346733172622
0.01303329890496104
0.01303316753517535
0.01303309201461244
0.01303289614536405
0.01303273838787017
0.0130324361580538
0.0130321700842396
0.0130317971308697
0.01303142977675758
0.01303103814854567
0.01303069996837194
0.01303033530841709
0.01303000829361658
0.01302966005849537
0.01302927206341373
0.01302893302038929
0.01302861533718176
0.01302829644235323
0.01302812066244304
0.01302806012980732
0.01302809022489829
0.01302835805216206
0.01302886649836436
0.01302977743599226
0.01303114187646211
0.01303291007898867
0.01303497807267144
0.01303688078979099
0.01303776875436139
0.01303797062644995
0.01303785780161018
0.01303752021645907
0.01303675439659507
0.01303590267114812
0.01303490892035056
0.01303443437780333
0.01303436763538745
0.01303535724281466
0.01303578910066979
0.01303554833097115
0.01226955515344351
0.01226702441334962
0.01226588011372748
0.01226563564594158
0.01226622907964643
0.01226689477168951
0.01226853873410871
0.01227041494576145
0.01227318904641701
0.01227588909149367
0.01227721383012265
0.01227733891461856
0.01227657835973197
0.01227526010458671
0.01227296446373875
0.01227059308219589
0.01226913146347306
0.01226869284663088
0.01226855190062131
0.01226843800465979
0.01226842107402958
0.01226825411813705
0.01226814627128449
0.012267849399798
0.01226760101046892
0.01226721918813479
0.01226681733370735
0.01226638092819335
0.01226601433226278
0.01226560321362189
0.01226522726491479
0.01226481313053691
0.01226431823240733
0.0122638678843441
0.01226341679117979
0.0122628916926441
0.01226246910232754
0.01226212784721753
0.01226186703639751
0.01226177862844628
0.0122619024982795
0.01226245397899182
0.01226358496322352
0.01226538840354565
0.01226789585514134
0.01227076999602759
0.01227236973440419
0.01227282749431471
0.01227289411513392
0.012272812314897
0.01227212357994885
0.01227120083004152
0.01226974329248349
0.01226868647980116
0.01226839128081418
0.0122698925493081
0.01227115798034009
0.01227136281326406
0.01147536840954951
0.01147177988532682
0.01146976301902313
0.01146911575877167
0.01146937128019028
0.01146958659755371
0.01147093091200128
0.01147260817171878
0.01147569896166744
0.01147940827588853
0.0114819490183934
0.01148258772599999
0.01148230280072518
0.01148147357341799
0.01147914960149156
0.01147625816270795
0.01147413299117455
0.01147355952814928
0.01147345824988297
0.01147332092196071
0.011473360881417
0.01147323351209925
0.01147317445486656
0.01147289208849532
0.01147267532494034
0.01147231553510637
0.01147190337679184
0.01147144227694941
0.01147107599940163
0.01147064968834678
0.01147026019236626
0.01146982481221447
0.01146926711631027
0.01146875389913094
0.0114682387803354
0.01146756572192636
0.01146695046990986
0.01146639588224387
0.01146585801192533
0.01146538675835722
0.01146511570205354
0.01146516705547397
0.01146580983689556
0.01146728778097312
0.0114698939713817
0.0114735482286764
0.01147608019895244
0.01147689861030229
0.01147715683717952
0.01147740189574283
0.01147699281650191
0.01147622436636037
0.01147450782811404
0.01147264189796677
0.01147187374837217
0.01147345165096013
0.01147599398048365
0.0114768438512632
0.01065704193470689
0.01065279769588934
0.01064976748320119
0.01064858338461017
0.01064851368293694
0.01064822811682229
0.01064903267023807
0.01065017318008023
0.01065310750603529
0.01065740317620989
0.01066137458891061
0.01066270908374202
0.01066290965252012
0.01066282593292743
0.01066087033689911
0.01065775199535995
0.01065480126907353
0.01065399814876027
0.01065395043068977
0.01065375654171343
0.0106538342275825
0.01065374676744047
0.01065373519932467
0.01065346835289142
0.01065328745832079
0.01065297186577067
0.01065256332565094
0.01065209004969975
0.01065174301092894
0.01065132666809725
0.01065095498599913
0.01065053383648884
0.01064995153568142
0.0106494147348932
0.01064889710048598
0.01064814352011895
0.01064740207514321
0.01064670142409148
0.01064595714998439
0.0106451984464224
0.01064445168029774
0.01064402692127747
0.01064401899339495
0.01064485687774726
0.01064714855638708
0.01065123087604761
0.01065485527257614
0.01065611261468852
0.01065651808933213
0.01065718373321693
0.01065717315932726
0.0106567904741631
0.01065511483489352
0.01065247457219017
0.0106509134146954
0.01065202683763427
0.01065590711472885
0.01065770742565336
0.009800319563209205
0.009796039886281572
0.009792027967762153
0.009790119286734502
0.009789806504902542
0.009788987516721373
0.009789135610144939
0.009789473378309656
0.009791739781584624
0.009796018300122228
0.009801427723194705
0.009803671090635194
0.009804387748125398
0.00980513996602196
0.009803988977140309
0.009801115629540591
0.009797266946790995
0.009796079285490878
0.009796074909016449
0.009795795770715897
0.009795898316895502
0.009795833796300248
0.009795861169877818
0.009795601061366293
0.009795462382127307
0.009795204726352352
0.009794808485104644
0.009794336284061889
0.009794025016889706
0.009793638233282902
0.009793309137052042