/*--------------------------------*- C++ -*----------------------------------*\
| =========                 |                                                 |
| \\      /  F ield         | OpenFOAM: The Open Source CFD Toolbox           |
|  \\    /   O peration     | Version:  v1812                                 |
|   \\  /    A nd           | Web:      www.OpenFOAM.com                      |
|    \\/     M anipulation  |                                                 |
\*---------------------------------------------------------------------------*/
FoamFile
{
    version     2.0;
    format      ascii;
    class       volScalarField;
    location    "10000";
    object      p;
}
// * * * * * * * * * * * * * * * * * * * * * * * * * * * * * * * * * * * * * //

dimensions      [0 2 -2 0 0 0 0];


internalField   nonuniform List<scalar> 
1856
(
2.740327142667657e-07
4.209368236518633e-06
1.10936786645511e-05
2.1078171287294e-05
3.274457950994635e-05
4.44826786269063e-05
5.363840781857308e-05
5.861433640818519e-05
5.740537221419781e-05
4.862284763418598e-05
3.258171942325054e-05
1.167985356013508e-05
-1.314396136415659e-05
-3.55439443657699e-05
-5.444964893742905e-05
-6.606960451487061e-05
-7.059498485222601e-05
-6.817248149347706e-05
-6.021536419802932e-05
-4.844354861593299e-05
-3.303002421433001e-05
-1.81727710075925e-05
-3.926315149741202e-06
9.734540526702355e-06
2.201771838266434e-05
3.384663471199471e-05
4.51172825176351e-05
5.563732304990054e-05
6.495688477342235e-05
7.478832594778699e-05
8.495426815518936e-05
9.540485017714969e-05
0.0001065615327287266
0.0001182231899799008
0.0001305620322993078
0.0001426513286958455
0.000155605525571516
0.0001686586220551314
0.0001826637294528918
0.0001958560405265058
0.0002072256188226848
0.0002166451238052638
0.0002229905144831126
0.000224826122057773
0.0002222820667983992
0.0002108359848250796
0.0001920963770480479
0.0001678037442420815
0.000140041816395097
0.0001115608835309258
8.446930867591205e-05
6.015920538762808e-05
3.952826229157673e-05
2.549915987998264e-05
1.646654837631515e-05
1.097691803844241e-05
6.250478790307398e-06
2.086769949637733e-06
6.278956443991573e-07
3.869358500426356e-06
1.09872912402657e-05
2.092920126804228e-05
3.272947673685277e-05
4.450941304660375e-05
5.378530842120034e-05
5.88274761796607e-05
5.768399840379621e-05
4.891441506397274e-05
3.281611862451166e-05
1.184305557332427e-05
-1.31029366439667e-05
-3.561611635395515e-05
-5.463617259309815e-05
-6.632120949507862e-05
-7.083223570775052e-05
-6.838943634757297e-05
-6.037722257551833e-05
-4.856390842954418e-05
-3.310997830088827e-05
-1.821813287458505e-05
-3.958713093961562e-06
9.718027005301862e-06
2.202149374409278e-05
3.387964116328448e-05
4.518747517235882e-05
5.573656476751284e-05
6.506300686982933e-05
7.486098804740228e-05
8.49857067677098e-05
9.538980300082174e-05
0.0001065083900943341
0.0001181662678209332
0.0001305228633061035
0.0001426065951342345
0.000155550201075877
0.0001685833273952829
0.0001825647607429085
0.0001957760458777145
0.0002071818274481456
0.0002166577944651055
0.0002230758490347127
0.0002249877233081381
0.0002225255703470112
0.000211128795142511
0.0001923676481243001
0.0001680266893051089
0.0001401693534221493
0.0001116122943065593
8.444421433593528e-05
6.008299146852778e-05
3.941756773124001e-05
2.537999570388566e-05
1.636939730537544e-05
1.089982633192218e-05
6.284644699450213e-06
2.354508090062398e-06
9.63743414195305e-07
3.416689432261484e-06
1.069437257147018e-05
2.070862738977025e-05
3.267853308509165e-05
4.461412358791819e-05
5.408194465659183e-05
5.927858486418755e-05
5.82416422550831e-05
4.94931953957215e-05
3.325818989909713e-05
1.213112865643007e-05
-1.306622326600305e-05
-3.580432129193647e-05
-5.504603271485998e-05
-6.685265039393066e-05
-7.132216617963217e-05
-6.882942665356476e-05
-6.069744830836761e-05
-4.879384451083794e-05
-3.325105306956294e-05
-1.828712312777254e-05
-3.998808771564466e-06
9.708555933270711e-06
2.204964235389509e-05
3.396080502270135e-05
4.533625604125219e-05
5.594470158578658e-05
6.52836582691098e-05
7.501700134845721e-05
8.505944065763316e-05
9.537456148735258e-05
0.0001064117758570915
0.0001180602992099185
0.0001304541413597133
0.000142534319808621
0.0001554591508567445
0.0001684531745353211
0.0001823879525773598
0.0001956360104102786
0.0002071209561767871
0.0002167096832725264
0.000223273734738584
0.0002253373018372198
0.0002230331519583938
0.0002117242014797769
0.0001929004213868327
0.0001684451165067255
0.0001403880493766658
0.000111666240742652
8.4338196564178e-05
5.986356472352256e-05
3.912255512977469e-05
2.506388046832013e-05
1.610848277971063e-05
1.068517137651208e-05
6.236577305006496e-06
2.597822642322086e-06
1.019912593070427e-06
2.945700724805927e-06
1.028290344023132e-05
2.039300857674206e-05
3.261440245759936e-05
4.478399004040322e-05
5.452694569378553e-05
5.995765671810506e-05
5.908004158888661e-05
5.036613735533578e-05
3.391802441451832e-05
1.254768689122727e-05
-1.302112906864731e-05
-3.609477977251269e-05
-5.566033680733992e-05
-6.76532778486272e-05
-7.206087953684198e-05
-6.949183705598667e-05
-6.117692797309611e-05
-4.913736536963858e-05
-3.347170413979453e-05
-1.839882869469642e-05
-4.065972503728508e-06
9.677406072354137e-06
2.205535342379212e-05
3.40217081222958e-05
4.547332288127889e-05
5.61707503536228e-05
6.556371395866666e-05
7.523984628993546e-05
8.518785099781219e-05
9.539418795344921e-05
0.0001063110569287232
0.0001179204465243169
0.0001303600842192795
0.0001424506377115765
0.0001553665172596879
0.0001683188676682293
0.0001821806623214185
0.0001954658501219941
0.0002070545011883419
0.0002167982384609281
0.0002235665289801904
0.0002258474443741984
0.0002237779320640809
0.0002126110741894523
0.0001937120225674116
0.000169095541871997
0.0001407469198905769
0.0001117754164093018
8.420297294503666e-05
5.954466682251161e-05
3.868047369058394e-05
2.458380097184539e-05
1.573084437822978e-05
1.040712889067762e-05
6.16236453819425e-06
2.688173275832453e-06
8.408668398190291e-07
2.350341991634962e-06
9.767646878044082e-06
1.997875400379412e-05
3.251643139989119e-05
4.501437553679546e-05
5.510309049321251e-05
6.085331016679327e-05
6.019301306684829e-05
5.154205164114344e-05
3.481030433799278e-05
1.311594398087267e-05
-1.294355076149583e-05
-3.645841595401126e-05
-5.644623186220346e-05
-6.869269520855147e-05
-7.302568650724295e-05
-7.035559539348125e-05
-6.180136143270123e-05
-4.958856129647524e-05
-3.376714880537804e-05
-1.854768131174787e-05
-4.154244052757107e-06
9.627356661049894e-06
2.203238604940838e-05
3.404033930206029e-05
4.55543965387073e-05
5.635543371698335e-05
6.584051729533379e-05
7.548288711414468e-05
8.534377504340466e-05
9.544018856047132e-05
0.0001062132981514562
0.0001177418988720377
0.0001302205374188331
0.0001423365539422882
0.0001552590279733505
0.0001681801574690169
0.0001819531273886988
0.0001952682038785966
0.0002069815968501995
0.0002169192040483243
0.000223945543583262
0.0002265048386174015
0.0002247486770043602
0.0002137881558158391
0.0001948063382037955
0.0001699893931023981
0.0001412679343680905
0.0001119636640187897
8.406402356600677e-05
5.914942255689382e-05
3.810223754131674e-05
2.394252917630023e-05
1.523685930651705e-05
1.007769388342441e-05
6.089249177077901e-06
2.682817490136115e-06
5.040066788624708e-07
1.635117998355747e-06
9.126710747710453e-06
1.949306906753943e-05
3.239811479372429e-05
4.532194755432718e-05
5.583502900209997e-05
6.197635651969966e-05
6.158693351675526e-05
5.301377875225379e-05
3.591970794298145e-05
1.38026289473441e-05
-1.28745316600148e-05
-3.694184854227779e-05
-5.745052648322311e-05
-7.000846699582876e-05
-7.424302772451179e-05
-7.142874270111663e-05
-6.255405564971453e-05
-5.011221222751101e-05
-3.410446466178133e-05
-1.870589617100506e-05
-4.227767100202418e-06
9.596333503268158e-06
2.201153018408136e-05
3.403918891904087e-05
4.55774653779875e-05
5.646365619017126e-05
6.606742680115926e-05
7.571548159830194e-05
8.551596688653162e-05
9.552513162090747e-05
0.0001061657958930958
0.000117584624896961
0.0001300767589651254
0.0001422251028837653
0.0001551766176363484
0.0001680960590182217
0.0001817884118838387
0.0001951228650501258
0.0002069619569447288
0.0002171169583418118
0.0002244334171432798
0.0002273042310340932
0.0002259095793237049
0.0002151954267971834
0.0001961275589342662
0.0001710744205953164
0.0001419044930356976
0.0001121891224474494
8.388394934471692e-05
5.865364284749784e-05
3.737822884604663e-05
2.314329752203077e-05
1.463307329629709e-05
9.69944500961407e-06
5.998992236721747e-06
2.58705468367678e-06
1.936570379270041e-08
7.765450218052046e-07
8.335965872197275e-06
1.892231094320227e-05
3.227293473159953e-05
4.571972448240687e-05
5.67504964962896e-05
6.335254444576675e-05
6.328287326893843e-05
5.479073929180035e-05
3.724390428761127e-05
1.459550200221317e-05
-1.284051075147309e-05
-3.758264771859311e-05
-5.871631672365839e-05
-7.163804016109417e-05
-7.57404488352859e-05
-7.272409755480625e-05
-6.343404759387222e-05
-5.069454424892604e-05
-3.446149335592814e-05
-1.885177093839154e-05
-4.26267492589088e-06
9.611542558206043e-06
2.202528525758568e-05
3.405625107557673e-05
4.558293401901395e-05
5.652257964946826e-05
6.624470521353409e-05
7.592422830774748e-05
8.568379184828344e-05
9.562660457080894e-05
0.000106159050314513
0.0001174599778095691
0.0001299399577796441
0.0001421189276854887
0.0001551124880698496
0.0001680601712469903
0.000181695242939162
0.0001950486246442531
0.000207020690388777
0.0002174205403846264
0.0002250670899679759
0.0002282841389247393
0.0002272904043968233
0.0002168449063006552
0.0001976597538960651
0.0001723162839781033
0.0001426096728561252
0.0001123953972049904
8.360188258629429e-05
5.800372792410419e-05
3.646388693510321e-05
2.215911572855323e-05
1.391006298367774e-05
9.272772680692413e-06
5.885849034325928e-06
2.4003942836239e-06
-5.981943908967856e-07
-2.338813037077918e-07
7.37931425068934e-06
1.824428181493179e-05
3.212915833851665e-05
4.620949812856881e-05
5.786945795035201e-05
6.50220676949224e-05
6.533408243435171e-05
5.692715312260221e-05
3.88189439640267e-05
1.551145172772038e-05
-1.284501023494018e-05
-3.840547516033834e-05
-6.029386450488497e-05
-7.364410268112103e-05
-7.75756357090104e-05
-7.429161866765356e-05
-6.44705620927262e-05
-5.133865712593305e-05
-3.482689203711423e-05
-1.897641227975194e-05
-4.24816757553212e-06
9.6877845684489e-06
2.208928431708079e-05
3.410948408968524e-05
4.559149171549374e-05
5.654482640712997e-05
6.636561658874034e-05
7.609085018434027e-05
8.582891260627566e-05
9.572153422257107e-05
0.000106178686153733
0.0001173760875625315
0.0001298299491598699
0.0001420370739420868
0.0001550816220424559
0.0001680863593854466
0.0001817004771278039
0.0001950870871590932
0.0002071995592534884
0.0002178712879339078
0.0002258875852657212
0.0002294915151573736
0.0002289353912388336
0.0002187659715624356
0.0001994159155925478
0.0001737146341164526
0.0001433731899828257
0.0001125600311488549
8.317966161921213e-05
5.715135994429336e-05
3.531342608271083e-05
2.095533873994906e-05
1.305564642277437e-05
8.809789815821016e-06
5.771959472907071e-06
2.145296760999045e-06
-1.375366361807641e-06
-1.457940619163304e-06
6.2067063351346e-06
1.74193454914567e-05
3.195364750280808e-05
4.680822644342187e-05
5.92381873407175e-05
6.70591813633375e-05
6.784040024975562e-05
5.95256914708068e-05
4.07211093427088e-05
1.659117874529856e-05
-1.288766580487916e-05
-3.945045618111138e-05
-6.225876745770658e-05
-7.612269346266918e-05
-7.983387672332887e-05
-7.619950102727725e-05
-6.571146330294863e-05
-5.206948833375502e-05
-3.520781793006925e-05
-1.907632613504805e-05
-4.180192389721568e-06
9.830084233149421e-06
2.221041925264543e-05
3.420492997709371e-05
4.561577548812635e-05
5.654861106998325e-05
6.644390068115535e-05
7.621889703143579e-05
8.594529978754436e-05
9.579605158420631e-05
0.000106200360757672
0.0001173138520860693
0.0001297365715596491
0.0001419745514536473
0.0001550764160341223
0.0001681616021128236
0.0001817902494155397
0.0001952332458758127
0.0002075090099616829
0.0002184922170026086
0.000226941132424137
0.0002309990903119486
0.0002309468062379306
0.0002210692981463913
0.0002014755882771782
0.0001753195539232633
0.0001442110189160631
0.0001126705602045219
8.257533424700616e-05
5.603421605651524e-05
3.384706786316677e-05
1.945609581383671e-05
1.202068166899892e-05
8.29509820373291e-06
5.66339498185642e-06
1.820786937353845e-06
-2.373741148938298e-06
-3.000472860399455e-06
4.729760736731611e-06
1.638809025139203e-05
3.173196931558925e-05
4.755408576000295e-05
6.094755301544181e-05
6.960215474555312e-05
7.098422430533683e-05
6.277950038101905e-05
4.309130426830857e-05
1.790748390955361e-05
-1.297877979513554e-05
-4.080126791591721e-05
-6.476083826984294e-05
-7.926212221831342e-05
-8.267906751429544e-05
-7.857688197424624e-05
-6.723933641995897e-05
-5.292801316704613e-05
-3.561371131837903e-05
-1.914065316813461e-05
-4.042146298914365e-06
1.005783211537436e-05
2.240812467540807e-05
3.435808967777635e-05
4.566951063773068e-05
5.65485935284889e-05
6.649121445354991e-05
7.63103445446149e-05
8.602640832700943e-05
9.583734841883687e-05
0.0001062005903199783
0.0001172508155350674
0.0001296441253886714
0.0001419236403999727
0.0001550942548425886
0.0001682835376636373
0.0001819660028985569
0.0001955011129118018
0.0002079830440503665
0.00021934058519935
0.00022831453163162
0.0002329287587784743
0.000233491703905479
0.000223937633849495
0.000203977417631236
0.000177217186156034
0.0001451492770955334
0.0001127016888651784
8.171559568374852e-05
5.454219556866351e-05
3.192427512203173e-05
1.752549003885914e-05
1.071859351292062e-05
7.703008745342572e-06
5.572870916768914e-06
1.41833057359688e-06
-3.687376818449088e-06
-5.036664464951924e-06
2.791588058648981e-06
1.504652149205481e-05
3.143846529179476e-05
4.851632297547696e-05
6.315759329145247e-05
7.28932620983487e-05
7.507992894193823e-05
6.702361900233814e-05
4.616897118876273e-05
1.958300135311629e-05
-1.314280262285074e-05
-4.261129398656115e-05
-6.806837754455505e-05
-8.339811139982098e-05
-8.639947037859587e-05
-8.164342045812448e-05
-6.918572699468438e-05
-5.397356481648984e-05
-3.605494331306854e-05
-1.914547392571784e-05
-3.799717299920067e-06
1.041001065595351e-05
2.271548281640779e-05
3.459172387117329e-05
4.576389962018662e-05
5.654994745625266e-05
6.650943400284662e-05
7.636314745650615e-05
8.606668246641666e-05
9.583761728729891e-05
0.000106166170944695
0.0001171740166802969
0.00012954507798681
0.0001418859126303527
0.0001551477505549404
0.0001684733733881314
0.0001822588335186394
0.0001959344355269583
0.0002086876842829013
0.0002205122328678617
0.0002301487055409921
0.0002354704341681207
0.0002368313945868998
0.0002276654339458261
0.0002071480513498109
0.000179551529294161
0.0001462323528212005
0.0001126089226312498
8.047813587239168e-05
5.249534841490314e-05
2.931657393414875e-05
1.494113742204104e-05
9.016371414409343e-06
7.005007426858734e-06
5.535227125291588e-06
9.291408254308373e-07
-5.489833532493947e-06
-7.881462636865816e-06
1.171966620751266e-07
1.322031192607999e-05
3.103029742943448e-05
4.980663952638698e-05
6.611714768124975e-05
7.730578970042135e-05
8.061125222103731e-05
7.278215199425758e-05
5.032210696106456e-05
2.180564055137974e-05
-1.34225654912996e-05
-4.512320637584204e-05
-7.259813478670766e-05
-8.905443831083815e-05
-9.142974069185944e-05
-8.571705392914513e-05
-7.173499814354853e-05
-5.528606788136088e-05
-3.65421759961854e-05
-1.904928491520391e-05
-3.400901338303715e-06
1.094452077951411e-05
2.318037025410524e-05
3.494242489563215e-05
4.592475466175431e-05
5.657586988046424e-05
6.651722298130626e-05
7.638860512698516e-05
8.606725474258061e-05
9.578648327481805e-05
0.0001060729786452155
0.0001170522311819309
0.00012941267368336
0.0001418418797715904
0.0001552265541662035
0.0001687263401278832
0.0001826720712128281
0.0001965502727154754
0.0002096780061891214
0.0002221161470936183
0.0002326412086431185
0.0002389124041238305
0.0002413853463623472
0.0002327416806079877
0.000211356616918357
0.0001825528576308179
0.0001475270115734061
0.0001123153758854759
7.866790552264347e-05
4.961218712604596e-05
2.565939689457103e-05
1.133864896346826e-05
6.699759817271297e-06
6.160800869877863e-06
5.615677370085334e-06
3.359809257647466e-07
-8.005925470162404e-06
-1.199493039989807e-05
-3.696705764549822e-06
1.066434879107645e-05
3.043663768618634e-05
5.156727550879577e-05
7.015312168410042e-05
8.334062175085311e-05
8.82519701840654e-05
8.082033134548588e-05
5.607346487184206e-05
2.483669014076133e-05
-1.388429934484508e-05
-4.868340174416216e-05
-7.894849611022001e-05
-9.700161774895887e-05
-9.838538178064125e-05
-9.122692527174147e-05
-7.51157364336843e-05
-5.693915987479016e-05
-3.705814339006322e-05
-1.8770490332771e-05
-2.755940829428341e-06
1.175739477322417e-05
2.388309688114553e-05
3.547404563582258e-05
4.619787899174605e-05
5.666369212974529e-05
6.653353353864056e-05
7.639105362305045e-05
8.602242007938783e-05
9.56580193734329e-05
0.0001058816500774948
0.0001168380665743268
0.0001292085478031064
0.0001417624973879448
0.0001553143868505056
0.0001690349800941813
0.0001832161482213684
0.000197380301474724
0.0002110354288823903
0.0002243033814049121
0.0002360618173789295
0.0002436444276168142
0.0002477320184632013
0.0002398656961694451
0.000217110927681301
0.0001865185424801462
0.0001491017113544246
0.0001116912633268175
7.599596898593422e-05
4.548692106945032e-05
2.042271186880293e-05
6.174826834426784e-06
3.473953549469455e-06
5.167123925800821e-06
5.991710669153663e-06
-3.210335455174296e-07
-1.146145040975468e-05
-1.799428076208235e-05
-9.193955930941268e-06
7.063868461762608e-06
2.954582658604481e-05
5.394328279866268e-05
7.56266446758387e-05
9.157305970960716e-05
9.883312184403055e-05
9.215998761905301e-05
6.409266008248048e-05
2.899253013432122e-05
-1.462124252243276e-05
-5.373509459588664e-05
-8.788871193457149e-05
-0.0001082746511774319
-0.0001080428147750224
-9.866063432511738e-05
-7.954507389161135e-05
-5.893982104865876e-05
-3.7516842096268e-05
-1.816121981796061e-05
-1.723274932635467e-06
1.298880497187713e-05
2.49389670684215e-05
3.627243946040205e-05
4.664083084705708e-05
5.685080864464294e-05
6.656299378536707e-05
7.635823147637136e-05
8.591357337183348e-05
9.540871294127881e-05
0.0001055406556058534
0.0001164781109749055
0.0001288967949995333
0.000141628595619643
0.0001554106923590906
0.0001694137814311073
0.0001839289840566644
0.0001984815517655644
0.000212864879727514
0.0002272370978448192
0.0002407080612413377
0.0002500943643546699
0.0002565557426251437
0.0002499347422531015
0.0002250178443540767
0.000191762341894341
0.0001509927389212019
0.0001105400372318615
7.208431641092986e-05
3.961071469629238e-05
1.292181817479176e-05
-1.286350078577321e-06
-1.01304087771953e-06
4.143560416514481e-06
7.083911079295087e-06
-8.397095812858742e-07
-1.611317548546871e-05
-2.672395249349077e-05
-1.708463500326626e-05
2.067555459134235e-06
2.822970255596894e-05
5.706097973536299e-05
8.285057470279529e-05
0.0001025044188140915
0.0001131752738854725
0.0001079796055896885
7.509392191844495e-05
3.455738952147432e-05
-1.575782474591346e-05
-6.075043852070891e-05
-0.0001002267482350692
-0.0001240547928397311
-0.0001211739021384465
-0.0001083750878665518
-8.50983897997976e-05
-6.113974502291909e-05
-3.772993773325176e-05
-1.701318209636653e-05
-1.443646587727269e-07
1.477242702723963e-05
2.645734332753221e-05
3.742640433166806e-05
4.733722055415117e-05
5.721695381491694e-05
6.665931855449288e-05
7.63184408868995e-05
8.574353091215958e-05
9.499696376138161e-05
0.0001049824475301666
0.0001158931088328743
0.0001284104084709348
0.000141382032112514
0.0001554501967080796
0.0001697849966576219
0.0001847232883562327
0.0001997580880666028
0.0002151225601463043
0.0002309255675455313
0.0002467668341077237
0.0002586101278240006
0.0002685653550009307
0.0002640324501825534
0.0002357339057319318
0.0001985387081303659
0.0001531701473409147
0.0001086113868548277
6.652599879927261e-05
3.146735358891692e-05
2.39094157006943e-06
-1.196940644448301e-05
-7.159659350894997e-06
3.398223987116016e-06
9.662058454805127e-06
-7.944202171409653e-07
-2.214194917862004e-05
-3.914490434337241e-05
-2.810903433059672e-05
-4.544324388133352e-06
2.641487493843727e-05
6.096090943512779e-05
9.190517858671397e-05
0.0001162735871409162
0.0001317536210972304
0.0001293732774327489
8.965340252413162e-05
4.164207187669892e-05
-1.742778446002294e-05
-7.006942388672017e-05
-0.0001165494744260184
-0.000145437258944393
-0.0001383304779058187
-0.0001203735755981821
-9.156130120814003e-05
-6.314436812369033e-05
-3.738808206069522e-05
-1.509338550317495e-05
2.11077102131154e-06
1.71833816097299e-05
2.850844204071822e-05
3.901766493915027e-05
4.838906774415133e-05
5.787438727390355e-05
6.691123394987195e-05
7.631469790397201e-05
8.55165596209026e-05
9.438037531247935e-05
0.0001041228891316048
0.0001149695150068836
0.0001276360711199074
0.0001409042919692861
0.0001552798801915766
0.0001699712431850541
0.0001854076875380155
0.0002009959568545781
0.0002176583443438658
0.0002352318303455627
0.0002542468563240527
0.0002692957883194262
0.000284240448191984
0.0002832169546629423
0.0002497608615759443
0.0002068385099539477
0.0001554567447323675
0.0001056302653710772
5.900198505475247e-05
2.072165191482745e-05
-1.181824238811989e-05
-2.687718275157733e-05
-1.53357798489769e-05
3.535118316204274e-06
1.498608815683279e-05
6.006488487251893e-07
-2.945983021561349e-05
-5.608535565928954e-05
-4.280222903322181e-05
-1.266899417434298e-05
2.415438952473977e-05
6.552950388767388e-05
0.0001024777797700891
0.0001324098871167211
0.0001543717510946779
0.0001570214854973766
0.0001079803015082336
5.000203737826489e-05
-1.976319514029514e-05
-8.17270928245105e-05
-0.0001369272302667753
-0.0001731291651334855
-0.0001596425757265808
-0.0001341106847122731
-9.83552748870249e-05
-6.431436178765511e-05
-3.608202401565375e-05
-1.218364846703517e-05
5.123745434588652e-06
2.022483079970221e-05
3.109351175016858e-05
4.105349874779866e-05
4.980117504341427e-05
5.881350498221485e-05
6.729192693736599e-05
7.628745722305566e-05
8.516958469294977e-05
9.351064794902192e-05
0.0001029135120579427
0.0001136497203334147
0.0001265424992746903
0.0001402002793356369
0.0001548921637458981
0.0001699782913668437
0.0001860007584369804
0.0002021542528904969
0.0002203964550068411
0.0002398872243034613
0.0002628091979240987
0.0002816831840207888
0.0003033653133095496
0.0003080708954015958
0.000267125808076334
0.0002161431939755052
0.0001574659523749952
0.0001013954809586491
4.949267944133569e-05
7.531028004421999e-06
-2.985952135072321e-05
-4.677830941143113e-05
-2.571709032818502e-05
5.530709222419023e-06
2.483160054871084e-05
4.580109225845446e-06
-3.80541117730458e-05
-7.818485977021188e-05
-6.135723280197257e-05
-2.176081693782904e-05
2.177745402670949e-05
7.061222406588342e-05
0.0001139318826635217
0.0001497982780087002
0.0001798989213629878
0.0001906939300485217
0.0001296115071518229
5.885729740865988e-05
-2.287939848256751e-05
-9.522926200086255e-05
-0.000160508366156977
-0.0002068334338143314
-0.0001844132731514248
-0.000148305692472717
-0.0001046058888684697
-6.400550811919647e-05
-3.351407691183637e-05
-8.298881170314318e-06
8.746618926194462e-06
2.366022394099442e-05
3.398179204997747e-05
4.33719416739722e-05
5.147708453975818e-05
5.997301688186855e-05
6.780263717772971e-05
7.6231402817231e-05
8.467377502952357e-05
9.240432802283438e-05
0.0001013875097589572
0.0001119148056052912
0.0001251077390303689
0.0001392700172391166
0.0001541894200168655
0.0001696428890122583
0.000186285739234461
0.0002028851192767743
0.0002228993269387782
0.0002442082648631753
0.0002716198652168298
0.0002947109501649202
0.0003249907046829201
0.0003385490827028013
0.0002874032230931032
0.0002254976887086088
0.0001587329013932973
9.596614915046148e-05
3.846757422098181e-05
-7.252373459653509e-06
-5.110706794009604e-05
-7.193119737466e-05
-3.837212020164538e-05
1.024064338322476e-05
4.07104792095724e-05
1.218635013917882e-05
-4.764729594326378e-05
-0.0001051665091331613
-8.307399620791878e-05
-3.06963802272406e-05
1.98651829640712e-05
7.59676140000964e-05
0.0001253488492569357
0.0001668322146163857
0.0002064144913065035
0.0002290572716963486
0.0001534318540160795
6.707300938108726e-05
-2.681768370308851e-05
-0.0001095955353083081
-0.000185682413513303
-0.0002451835342992259
-0.0002113264146618828
-0.000161378796116587
-0.0001094568583493651
-6.187694134104086e-05
-2.965582860110067e-05
-3.700182535782633e-06
1.271122655241812e-05
2.720758565564852e-05
3.692609668519443e-05
4.580869247524764e-05
5.328119590890309e-05
6.12099550086028e-05
6.835386008515451e-05
7.60738372326945e-05
8.39589973466427e-05
9.10714777041971e-05
9.959890300739381e-05
0.0001097774346674312
0.0001233722969734043
0.0001382388438128952
0.0001532884716504518
0.0001691088255583133
0.0001864379446112056
0.000203289470026918
0.0002251503666516548
0.0002478628044402279
0.0002799040721593967
0.0003070823897222176
0.0003474774268069538
0.0003735356678876734
0.0003095430130774246
0.0002336142520066793
0.000158773827133788
8.966862329601985e-05
2.680094611605444e-05
-2.223308606917088e-05
-7.410029194421667e-05
-0.0001016473249572656
-5.303078345368636e-05
1.816114529326058e-05
6.329438206063028e-05
2.398290192805707e-05
-5.809713048324331e-05
-0.0001360282747232545
-0.0001067877950943847
-3.848683581912381e-05
1.884255832684898e-05
8.132264124398537e-05
0.0001359932285157434
0.0001822352978483282
0.000232033847981498
0.0002699891187506897
0.0001780000602990654
7.360934642357504e-05
-3.149859738103888e-05
-0.0001236319320633571
-0.0002105376296464699
-0.0002859078673439741
-0.0002386672119632407
-0.000171948440508106
-0.0001123915370839486
-5.814472077289849e-05
-2.485690788640946e-05
1.16731582103893e-06
1.669100147536238e-05
3.05859508488199e-05
3.964228474074729e-05
4.809734160168849e-05
5.495144117801338e-05
6.226097601982544e-05
6.877626462200392e-05
7.576645434238497e-05
8.3028504316289e-05
8.957459529076835e-05
9.769710473720328e-05
0.000107399556442112
0.0001214807988865733
0.0001372907396842534
0.0001523745757857973
0.0001685308583184634
0.0001865455512682182
0.0002033588723225659
0.0002269319724145052
0.0002503992125793899
0.0002868171605808005
0.0003175453357668384
0.0003690748853969756
0.000411143404114581
0.0003322691318403035
0.0002395273579154071
0.000157406765986143
8.306423848904964e-05
1.550478370852235e-05
-3.596904411482278e-05
-9.700887727322459e-05
-0.0001343334523164624
-6.911020727010698e-05
2.903054171768896e-05
9.170421194193965e-05
3.938271403247922e-05
-6.921328140110262e-05
-0.0001691137283221286
-0.0001309747070339027
-4.445788558283587e-05
1.88982167384931e-05
8.642122393110191e-05
0.0001453900259038411
0.0001952777339556765
0.0002554536247719517
0.0003111692165939803
0.0002019424636412377
7.798687271092579e-05
-3.666532213025132e-05
-0.000136329093138454
-0.0002335869954282258
-0.0003266513625314374
-0.0002649198395661426
-0.0001794056055681047
-0.0001134144770509039
-5.339578031109934e-05
-1.965159241203409e-05
5.846671814669349e-06
2.037563041314164e-05
3.357451661024079e-05
4.197440058091233e-05
5.015292159813542e-05
5.645797390967475e-05
6.311430962702834e-05
6.908557409250622e-05
7.536965585254259e-05
8.193878125322127e-05
8.795871209797401e-05
9.576233364000284e-05
0.0001048951460327383
0.0001194959082359405
0.0001364410015117749
0.0001514588410712856
0.0001679032264403637
0.0001865966606327609
0.0002031796343837217
0.0002283217358901329
0.0002519492625215046
0.0002922340586467644
0.0003256691943462207
0.0003887208070202742
0.0004493467872523109
0.0003543843680125976
0.0002428889438336563
0.0001548025207052446
7.670570525561928e-05
5.33091925770345e-06
-4.756924123700918e-05
-0.0001184057396477602
-0.000168058244865612
-8.579313758425586e-05
4.205381528924403e-05
0.0001239685148475549
5.708528956466851e-05
-8.081988789703843e-05
-0.0002029921690338497
-0.0001545194885390724
-4.852107928197372e-05
1.986085678135854e-05
9.100283863126719e-05
0.0001533574121801404
0.0002058401273107667
0.0002763177338084383
0.0003510787106802438
0.0002244844511610705
8.032098170112228e-05
-4.198610290682492e-05
-0.000147162195736398
-0.0002542161386394888
-0.0003658529442770089
-0.0002892270194112621
-0.0001838402952000339
-0.000112848873219124
-4.824178837316538e-05
-1.449161759975384e-05
1.008148077705171e-05
2.360673249108142e-05
3.603418534991466e-05
4.384191261442173e-05
5.192451399258471e-05
5.779761800365366e-05
6.381070924106494e-05
6.934896651904655e-05
7.498963186828141e-05
8.080553302255952e-05
8.630613617535986e-05
9.386660869962074e-05
0.0001024057217186424
0.0001175354318209011
0.0001356738268121913
0.0001504921773102609
0.0001671613663207623
0.00018647520354019
0.0002027613424634953
0.0002293597234018381
0.0002527111204900545
0.0002962733764347021
0.0003315352042060301
0.0004061445044423292
0.0004867346480455204
0.0003752244900477405
0.0002439588261406955
0.0001513444134038216
7.0955465621458e-05
-3.390416067588351e-06
-5.684348062585593e-05
-0.000137730655787076
-0.0002013807734137623
-0.0001023816501329024
5.644400397894901e-05
0.0001581484978872061
7.583665602538649e-05
-9.279275574751045e-05
-0.0002369270063724726
-0.0001770100156609318
-5.096167319815849e-05
2.144364540894266e-05
9.493809628533062e-05
0.0001599403147589876
0.0002141545788890081
0.0002949349140926203
0.0003892996014961987
0.0002455637463810972
8.099242510819635e-05
-4.720626684898945e-05
-0.0001560540437842163
-0.0002725646915930925
-0.0004030530486767504
-0.0003115329822135062
-0.0001857870866058071
-0.0001110525712608072
-4.303373893445982e-05
-9.616350025126219e-06
1.381143681533575e-05
2.640507957787853e-05
3.799194267180205e-05
4.530002174018991e-05
5.343321141680948e-05
5.89526509375206e-05
6.4365491340561e-05
6.958782285126691e-05
7.465998155584133e-05
7.971246442971684e-05
8.467897908389892e-05
9.201952216713596e-05
9.99987780336305e-05
0.0001156826432225067
0.0001349812513768607
0.0001494888813746875
0.0001663245016609774
0.0001861573721443804
0.0002021514319644296
0.0002300603259382603