/*--------------------------------*- C++ -*----------------------------------*\
| =========                 |                                                 |
| \\      /  F ield         | OpenFOAM: The Open Source CFD Toolbox           |
|  \\    /   O peration     | Version:  v1812                                 |
|   \\  /    A nd           | Web:      www.OpenFOAM.com                      |
|    \\/     M anipulation  |                                                 |
\*---------------------------------------------------------------------------*/
FoamFile
{
    version     2.0;
    format      ascii;
    class       surfaceScalarField;
    location    "10000";
    object      phi;
}
// * * * * * * * * * * * * * * * * * * * * * * * * * * * * * * * * * * * * * //

dimensions      [0 3 -1 0 0 0 0];
oriented        oriented;


internalField   nonuniform List<scalar> 
3622
(
-0.00436943139949367
-2.463438272117522e-08
-0.004369381240621874
-4.316737347282791e-08
-0.00436935810424652
-2.273258779841433e-08
-0.004369316707551216
-3.901645876426713e-08
-0.004369258747618238
-5.832418788014311e-08
-0.004369212458206958
-4.440342477022068e-08
-0.004369166943984961
-4.671077872013429e-08
-0.004369144992031086
-2.011647635878445e-08
-0.004369145796096344
5.269624919346829e-10
-0.004369180943748709
3.607009962913555e-08
-0.004369244024727548
6.285250055235684e-08
-0.004369330496863419
8.650359320027186e-08
-0.004369429495065086
9.516595110651822e-08
-0.00436952400958729
9.409507034056794e-08
-0.004369608123200853
8.232531807783635e-08
-0.004369665813836555
5.745186075290486e-08
-0.004369700560007797
3.285280778331138e-08
-0.0043697099200898
9.046054041020718e-09
-0.004369698876241384
-1.097123803547176e-08
-0.004369675236475135
-2.220626001011536e-08
-0.00436964472712768
-2.896892600108534e-08
-0.004369612892740671
-3.3466872137623e-08
-0.004369577708181099
-3.570412911582496e-08
-0.004369544998223044
-3.522283370038765e-08
-0.004369514000802097
-3.555884722925556e-08
-0.004369483453437739
-3.402779393990443e-08
-0.004369454291840918
-3.338750155397575e-08
-0.00436942454689358
-3.146872074880054e-08
-0.004369398369389202
-2.948308499915318e-08
-0.004369371677730996
-2.490293532273351e-08
-0.004369345350899676
-2.408444087038086e-08
-0.004369313753048873
-2.543659469068714e-08
-0.004369283931786371
-2.729932770521235e-08
-0.0043692441789376
-3.473155460398842e-08
-0.00436920270564135
-3.704710529864292e-08
-0.00436915499852419
-4.25807578010979e-08
-0.004369103697562607
-4.542827995315164e-08
-0.004369048845037352
-4.876682918008804e-08
-0.004368987002213881
-5.244961633700116e-08
-0.004368923826436453
-5.753644339852257e-08
-0.004368860879378295
-5.712036880446326e-08
-0.004368802848870169
-5.474953659579955e-08
-0.004368754631893564
-4.565689702152775e-08
-0.004368724525527241
-2.976803388439866e-08
-0.004368714839809519
-8.55421063163443e-09
-0.004368738707543369
2.019903819254306e-08
-0.004368786134276281
4.533663692865443e-08
-0.004368858057152349
6.806000353844929e-08
-0.004368943257809713
8.487534778981803e-08
-0.004369035166034555
8.882969203799401e-08
-0.004369119677316411
9.007229935683721e-08
-0.004369197222937519
7.707465574142427e-08
-0.004369257280258399
6.26300667511739e-08
-0.004369297841381133
4.069644547492405e-08
-0.00436932001901193
2.675740345658359e-08
-0.004369337766047373
1.608205749323652e-08
-0.004369358002468147
1.822283517161786e-08
3.703779619430378e-08
-0.004620949763888355
-1.040986124050378e-08
-0.00462093381806786
-5.428697422526878e-08
-0.004620898719649752
-5.676897125283363e-08
-0.004620855808163496
-7.991319759628868e-08
-0.004620808015462357
-1.06331480714417e-07
-0.004620764680671104
-8.598711055462086e-08
-0.004620735588061828
-7.665714305705886e-08
-0.004620725871843501
-2.803827508165204e-08
-0.004620744783311113
1.94373644228548e-08
-0.004620794109258318
8.640253514825384e-08
-0.004620870606720518
1.393065767019019e-07
-0.0046209641488052
1.800824932254546e-07
-0.004621065260094652
1.92771354303582e-07
-0.004621153750633097
1.819077138773125e-07
-0.00462122691331781
1.53513010734816e-07
-0.00462126798670171
9.791517590322746e-08
-0.004621282739444029
4.550294071044756e-08
-0.004621270256574769
-3.965745665370405e-09
-0.004621235939132877
-4.517594835396148e-08
-0.004621189543136785
-6.714230144185372e-08
-0.004621136587231499
-8.05074624892788e-08
-0.00462108392263075
-8.740042078033501e-08
-0.004621028209109022
-9.168184181397076e-08
-0.004620976864845458
-8.853464314447848e-08
-0.004620927523420128
-8.89335773999052e-08
-0.004620879471383105
-8.529449328688807e-08
-0.004620833587550181
-8.358702163868279e-08
-0.004620786979771162
-8.055668279904498e-08
-0.004620744942275206
-7.559934231506159e-08
-0.004620702695028879
-6.649217520026187e-08
-0.004620662452186983
-6.263901903447822e-08
-0.004620617229869713
-6.511886192547728e-08
-0.004620575985436507
-6.562276810157973e-08
-0.004620525599881347
-7.983998182695722e-08
-0.004620476778871922
-8.118941252156501e-08
-0.004620423272365173
-9.085414155314741e-08
-0.004620369970083513
-9.258564139982568e-08
-0.004620316823515963
-9.536234530319155e-08
-0.004620260197517128
-9.901607781828681e-08
-0.004620208387551366
-1.026275272599282e-07
-0.004620159834103133
-9.909194740688434e-08
-0.004620122620184948
-8.779351983550241e-08
-0.004620099054159941
-6.622853116971084e-08
-0.004620097993535039
-3.018145316367973e-08
-0.004620120450515557
1.443619864935852e-08
-0.004620176945049451
7.277366485854734e-08
-0.004620256013609865
1.220334817700939e-07
-0.004620356996583357
1.653175107505071e-07
-0.004620466403798371
1.937997759291734e-07
-0.004620577932332808
1.976150933057361e-07
-0.004620677785853283
1.94997232523154e-07
-0.004620766837656651
1.660019963219391e-07
-0.00462083580675204
1.342769332752673e-07
-0.004620882979699144
8.838310824809513e-08
-0.004620908902595154
5.731668152175018e-08
-0.004620925063173085
3.149236980789812e-08
-0.004620934632607195
2.723944813010069e-08
3.769504148541398e-08
-0.004723990329280045
-7.216367977194453e-09
-0.004723976563706963
-6.746080212808597e-08
-0.004723940120514451
-9.250460137040453e-08
-0.004723897648029191
-1.212668473960668e-07
-0.004723851314591953
-1.532576267092232e-07
-0.004723807770881904
-1.281862805521423e-07
-0.004723778728183576
-1.066352323116375e-07
-0.004723767052250169
-3.817166940749647e-08
-0.004723782468399372
3.491777723260977e-08
-0.004723825942508704
1.309461665392831e-07
-0.004723895794614719
2.09575211109143e-07
-0.004723979943541207
2.647793525784924e-07
-0.004724072707374411
2.825484904626428e-07
-0.004724150835482854
2.596214744108662e-07
-0.004724215399450342
2.166419458795487e-07
-0.004724248383423608
1.305570620630568e-07
-0.00472425671599618
5.203914222479764e-08
-0.004724239236721404
-2.212258104306649e-08
-0.004724201175315039
-8.360006343866063e-08
-0.004724152318461475
-1.150189666425111e-07
-0.004724097648665268
-1.338297242462216e-07
-0.004724044710222437
-1.414361484497428e-07
-0.004723989220635781
-1.473121983255771e-07
-0.004723938661167671
-1.403122071435793e-07
-0.004723890936458686
-1.394179480514873e-07
-0.004723845156346976
-1.326545007726466e-07
-0.004723802051313829
-1.290837380278128e-07
-0.004723758855976084
-1.249108596520885e-07
-0.004723719554122914
-1.184688950018626e-07
-0.004723680501192883
-1.057928491462614e-07
-0.004723643523121907
-9.960553825714641e-08
-0.004723602631701023
-1.029602155421664e-07
-0.004723565768840653
-1.020228523288635e-07
-0.004723521650336036
-1.210437336197283e-07
-0.004723478991442473
-1.212755195223966e-07
-0.00472343293670906
-1.340301201238546e-07
-0.004723386665596446
-1.354819980818916e-07
-0.004723341232056133
-1.37097892055829e-07
-0.00472329266500109
-1.404205503970134e-07
-0.004723249256157244
-1.411935431234724e-07
-0.004723209562162769
-1.334229751587992e-07
-0.004723180685301261
-1.128580170509249e-07
-0.004723165299331086
-7.833760466518743e-08
-0.004723171029221893
-2.277439262377915e-08
-0.004723198938322205
4.431900251934013e-08
-0.004723258885557207
1.305197428170927e-07
-0.004723339270705657
2.008630052203539e-07
-0.004723438876469837
2.616392250808738e-07
-0.004723545538770843
2.999689335123393e-07
-0.00472365260021495
3.020264841108703e-07
-0.004723747869983833
2.949214906195659e-07
-0.004723832020414098
2.4998077952471e-07
-0.004723897047781084
2.011608954197128e-07
-0.004723940697069901
1.318884349492765e-07
-0.004723963771323203
8.415919807720587e-08
-0.004723976967014291
4.416151252415348e-08
-0.004723983961433701
3.489906446943291e-08
3.929239591215042e-08
-0.004717771549018018
-7.927476537120911e-09
-0.004717757877188012
-8.070477748377108e-08
-0.004717721948669514
-1.276219497137384e-07
-0.004717678930413048
-1.633619062155077e-07
-0.004717632581233395
-2.002993956060392e-07
-0.004717588719915481
-1.710510178094037e-07
-0.004717558952010959
-1.371912739939642e-07
-0.004717546653406799
-4.909577098120333e-08
-0.004717560246479373
4.882172508066223e-08
-0.004717601723914677
1.736247836878978e-07
-0.004717668949078735
2.77517422020136e-07
-0.00471774928869604
3.458867679221727e-07
-0.004717838713207151
3.696008250692694e-07
-0.004717913392877005
3.339733532062523e-07
-0.00471797434052571
2.761950006613972e-07
-0.004718004637352182
1.602797959089113e-07
-0.004718010495143088
5.593845581776753e-08
-0.004717991737816267
-4.195819143748954e-08
-0.00471795381870676
-1.221296289317415e-07
-0.004717905980575605
-1.62057781194698e-07
-0.004717852074959986
-1.864548687913256e-07
-0.00471780035140691
-1.938851078789865e-07
-0.004717747202567907
-2.003417286477129e-07
-0.004717698480366083
-1.895203049772802e-07
-0.004717653414290779
-1.863852664193963e-07
-0.004717610053809951
-1.767893250864478e-07
-0.004717569614621505
-1.714046520630298e-07
-0.004717529136826446
-1.668071531632046e-07
-0.004717492204333256
-1.596460815095384e-07
-0.00471745548759258
-1.443330645579197e-07
-0.004717420380930728
-1.35870024440664e-07
-0.004717382458824718
-1.394350301134702e-07
-0.004717347532972974
-1.368887733904592e-07
-0.004717307415063631
-1.585983347749006e-07
-0.004717267209681995
-1.590417009618596e-07
-0.004717224857160316
-1.738509631505264e-07
-0.00471718144211205
-1.758167143449274e-07
-0.004717139158735087
-1.758771134150069e-07
-0.004717094220020476
-1.780500632602833e-07
-0.004717053991953631
-1.756346107686588e-07
-0.004717017859919115
-1.633826287020242e-07
-0.004716991165814781
-1.3454234416663e-07
-0.004716978125392953
-8.733113602405908e-08
-0.004716984462262998
-1.376933149828e-08
-0.004717012327519712
7.399780336694813e-08
-0.004717070779808734
1.868373550767936e-07
-0.004717149909452185
2.782731018549232e-07
-0.004717247164678727
3.556781633781899e-07
-0.004717351302379135
4.03388236791394e-07
-0.004717455252906576
4.035076313278158e-07
-0.004717547360769301
3.909058724912486e-07
-0.004717627830936042
3.302405012978238e-07
-0.004717689913376691
2.649090070175346e-07
-0.004717730712221145
1.726667620797002e-07
-0.004717751802129812
1.08754077179675e-07
-0.004717763675644178
5.616176624054166e-08
-0.004717769874304584
4.260769249398812e-08
4.160771356722397e-08
-0.004691358865145726
-1.251826376982268e-08
-0.004691344204096797
-9.686480608740083e-08
-0.004691307855090366
-1.639006744436183e-07
-0.004691263737004498
-2.07153536440768e-07
-0.004691216120157421
-2.48835302890432e-07
-0.004691171643465797
-2.148678884164318e-07
-0.004691140881774885
-1.687957294472806e-07
-0.004691128583059421
-6.038762649288148e-08
-0.004691142165885557
6.255865283483424e-08
-0.004691184242827167
2.166724657344294e-07
-0.00469125238513359
3.464098870524426e-07
-0.004691333682767272
4.281131219882032e-07
-0.004691424049343853
4.580982921579466e-07
-0.004691499701426125
4.095832748913594e-07
-0.00469156040200748
3.361985058304593e-07
-0.00469159069070004
1.905054213338493e-07
-0.004691595489996499
5.94910160253658e-08
-0.004691576271091008
-6.199883465968133e-08
-0.00469153802568353
-1.610999765432166e-07
-0.00469148978804941
-2.099559516030491e-07
-0.004691435370860902
-2.399181791043458e-07
-0.004691383378991858
-2.466058381769945e-07
-0.004691330772586376
-2.529784681318899e-07
-0.004691281828585807
-2.386892127271576e-07
-0.00469123720695673
-2.321773301219798e-07
-0.004691194030283384
-2.196981170817098e-07
-0.004691154294035614
-2.114284775047835e-07
-0.004691115022891393
-2.059190338133727e-07
-0.004691078811732868
-1.983954890311087e-07
-0.004691042674641744
-1.818273098521092e-07
-0.004691007624548624
-1.72375429488748e-07
-0.004690970337669503
-1.76665417990708e-07
-0.004690934726875999
-1.741140664200725e-07
-0.004690895143141314
-1.977846827869716e-07
-0.00469085451330309
-1.992246929986723e-07
-0.004690812472746119
-2.155211156297519e-07
-0.004690768652552762
-2.191367270245739e-07
-0.004690725714378954
-2.182771359639279e-07
-0.004690680360467304
-2.198098746431515e-07
-0.00469063924515789
-2.140061015360645e-07
-0.004690602983848343
-1.961017738326962e-07
-0.00469057566804098
-1.585388180901636e-07
-0.004690562762509227
-9.72120975369971e-08
-0.004690568761321319
-5.100271742236188e-09
-0.004690597093529073
1.049328129566294e-07
-0.004690656616648166
2.458755815677968e-07
-0.004690737824360475
3.589224465432866e-07
-0.004690836615308521
4.520715788446748e-07
-0.004690942454222803
5.087518471890966e-07
-0.004691047257559332
5.06170305057789e-07
-0.0046911400867834
4.870135466893569e-07
-0.00469122021570138
4.100875753241971e-07
-0.004691281719462531
3.272118883170659e-07
-0.004691321194064179
2.114574215048941e-07
-0.004691341240517794
1.311122581583403e-07
-0.00469135230305093
6.709689049810535e-08
-0.004691358345172508
4.999591617676071e-08
4.493201395318601e-08
-0.004686683156219168
-1.698907121630878e-08
-0.004686668166032519
-1.12155742426302e-07
-0.004686631491041965
-2.001039064173832e-07
-0.004686585814202261
-2.521350685522423e-07
-0.00468653610287925
-2.994943654778805e-07
-0.004686489802953767
-2.607178505427078e-07
-0.004686457184099384
-2.023785511081034e-07
-0.004686444208214663
-7.263147528516224e-08
-0.004686457810581718
7.629674707875618e-08
-0.004686501344412234
2.611854341073364e-07
-0.004686571895274837
4.177550184548147e-07
-0.004686656001743197
5.13207269993367e-07
-0.004686749082443719
5.49731424392024e-07
-0.004686827555030028
4.883501310554091e-07
-0.004686889662028165
3.978072506071546e-07
-0.004686920505180064
2.213551455769741e-07
-0.004686924292248735
6.211699321477569e-08
-0.00468690393555326
-8.340405189166237e-08
-0.004686864479228636
-2.014743017047806e-07
-0.00468681528503979
-2.59069963409924e-07
-0.004686759784478925
-2.944578641667354e-07
-0.004686706661648235
-3.002981340248011e-07
-0.004686653675790833
-3.059087831289178e-07
-0.004686604118240246
-2.881851474728166e-07
-0.004686559164415124
-2.778891468756542e-07
-0.004686515532302348
-2.625628569464233e-07
-0.004686475640759682
-2.512093336663261e-07
-0.004686436336296452
-2.448098478853688e-07
-0.004686399947455165
-2.371922566378649e-07
-0.004686363472150722
-2.202975889306872e-07
-0.004686327713013537
-2.100357984872047e-07
-0.004686290335197475
-2.150425245648436e-07
-0.004686253605847344
-2.128125978883685e-07
-0.004686213938252522
-2.375269284316027e-07
-0.004686172526352484
-2.403513135312947e-07
-0.0046861299327109
-2.579572863108521e-07
-0.004686085311692071
-2.633765441905862e-07
-0.004686041289780667
-2.61999804736229e-07
-0.004685995207974747
-2.624430528693257e-07
-0.004685953194377476
-2.529193632076691e-07
-0.004685916226248412
-2.292335275192995e-07
-0.004685887845393271
-1.82914365956746e-07
-0.004685874263292844
-1.075094702433178e-07
-0.004685879250318524
3.312446702564636e-09
-0.004685907604308232
1.357408720094734e-07
-0.004685967526639545
3.054112952436187e-07
-0.004686050960980091
4.418693460723507e-07
-0.004686152385905697
5.511077569506941e-07
-0.004686261355073908
6.171813097552371e-07
-0.004686368950279549
6.117037820107029e-07
-0.004686464339180581
5.85096691911289e-07
-0.004686545752630128
4.908452522440058e-07
-0.004686607759135191
3.897036441287963e-07
-0.004686646792933413
2.496604520061245e-07
-0.004686666123282716
1.523608594416298e-07
-0.004686676767685559
7.783664645431485e-08
-0.004686682812675348
5.762349003083606e-08
4.907091011156507e-08
-0.004732425513505781
-2.226636437893818e-08
-0.004732409838146807
-1.289785497330211e-07
-0.004732371875111161
-2.382472329764273e-07
-0.004732323813646078
-2.998027436479772e-07
-0.004732270983542249
-3.533722187336883e-07
-0.004732221921745425
-3.093696938535572e-07
-0.00473218663802552
-2.38543176305791e-07
-0.004732172218705263
-8.644666127953777e-08
-0.00473218559250089
8.967162312165441e-08
-0.004732230764564223
3.070929357460015e-07
-0.00473230465410307
4.922457244533609e-07
-0.004732392854372307
6.022938830069368e-07
-0.004732490194438163
6.457214831395554e-07
-0.004732572664145717
5.711741505052612e-07
-0.004732637352322338
4.623254038223737e-07
-0.004732669260137679
2.536359643677027e-07
-0.004732672099926773
6.436233130980531e-08
-0.004732650346037188
-1.058061310864654e-07
-0.004732609009409493
-2.435226994913479e-07
-0.00473255797510287
-3.10175573424601e-07
-0.004732500554324208
-3.512041516297256e-07
-0.004732445616570152
-3.559594115129488e-07
-0.004732391434248921
-3.602674376495954e-07
-0.004732340510342863
-3.391389871717195e-07
-0.004732294420602677
-3.247248965535443e-07
-0.004732249548810002
-3.063937016494403e-07
-0.004732208731663281
-2.913658956942215e-07
-0.004732168846743865
-2.834109499253505e-07
-0.004732132085031104
-2.749909122778665e-07
-0.004732095324756868
-2.580968087135529e-07
-0.004732058934345209
-2.477068311690908e-07
-0.004732021452898936
-2.535450254885484e-07
-0.004731983776834116
-2.527570534793204e-07
-0.004731943626789953
-2.786458891948495e-07
-0.004731901276538894
-2.833685049004669e-07
-0.004731857723033648
-3.024539278237561e-07
-0.004731812028379738
-3.099515879487463e-07
-0.00473176656040805
-3.088235942239079e-07
-0.004731719027645274
-3.088511011375491e-07
-0.004731675187950393
-2.959910674951234e-07
-0.004731636372811007
-2.665097401794822e-07
-0.004731605945618578
-2.110122573723546e-07
-0.004731590774456311
-1.207840001203287e-07
-0.004731594295370055
9.687653559968736e-09
-0.004731622636652635
1.665434620304516e-07
-0.0047316840098729
3.671924925257913e-07
-0.004731771046519385
5.29327448798265e-07
-0.004731876749899861
6.550695088144326e-07
-0.004731990604360084
7.308798973407667e-07
-0.004732102689638169
7.220217326533465e-07
-0.004732202220637218
6.871498866395403e-07
-0.004732286494799007
5.744886250822362e-07
-0.004732350110753449
4.534788494443559e-07
-0.004732389305922931
2.876795355241528e-07
-0.004732407916106614
1.722025818305071e-07
-0.004732417978097543
8.757854244634671e-08
-0.004732424037395444
6.466819336069697e-08
5.370926987515306e-08
-0.004871397877976573
-2.658138542670225e-08
-0.004871381676187447
-1.455896672567888e-07
-0.004871341650338032
-2.78167864043303e-07
-0.004871290051603056
-3.505008442537892e-07
-0.004871232665545818
-4.117935117240554e-07
-0.004871179118313053
-3.624659611075085e-07
-0.004871139858993895
-2.787888211370493e-07
-0.004871123022986932
-1.02855491895888e-07
-0.004871136014115551
1.025692606581785e-07
-0.004871183788459092
3.555524142569574e-07
-0.004871263094686597
5.720940588558651e-07
-0.004871357777585164
6.978394781295424e-07
-0.004871462144153228
7.488013531859973e-07
-0.004871550873765109
6.604791260347869e-07
-0.004871620105598838
5.314982225734647e-07
-0.004871653745175179
2.878050196072005e-07
-0.004871655369736439
6.552077790779274e-08
-0.004871631126181751
-1.307432716815796e-07
-0.00487158626325262
-2.890919254805539e-07
-0.004871531885821865
-3.647915236035358e-07
-0.004871471102524263
-4.112960426467006e-07
-0.004871413025366421
-4.147812928202224e-07
-0.004871356315187453
-4.171438000086076e-07
-0.004871303033929474
-3.924003582511271e-07
-0.004871254926665446
-3.735198556065152e-07
-0.004871208063669396
-3.519393876641273e-07
-0.004871165591258803
-3.330312299066007e-07
-0.004871124222415624
-3.231458061650286e-07
-0.004871086299248208
-3.136088192615305e-07
-0.004871048394742923
-2.970491125711197e-07
-0.004871010587449819
-2.86745915090774e-07
-0.004870972123488563
-2.934278844839882e-07
-0.004870932801690082
-2.944869348149931e-07
-0.004870891373250104
-3.214575855584996e-07
-0.004870847343536659
-3.283233053590207e-07
-0.004870801952665567
-3.490975210040927e-07
-0.004870754308020301
-3.586120089816805e-07
-0.004870706596161185
-3.582339813925037e-07
-0.004870656707637528
-3.578174436561236e-07
-0.004870610403621197
-3.416681112019059e-07
-0.004870569034734806
-3.06501850265368e-07
-0.004870536009134539
-2.414723753387122e-07
-0.004870518802074274
-1.362347381163257e-07
-0.004870520791745669
1.496678440916897e-08
-0.004870549553049884
1.975930013527568e-07
-0.004870613443532305
4.315833041461385e-07
-0.004870705867549166
6.224564987916899e-07
-0.004870818195453181
7.656742460280359e-07
-0.004870939590673099
8.522175090237544e-07
-0.004871058913999015
8.395778746431813e-07
-0.004871165032367735
7.956615673133202e-07
-0.004871254231717735
6.627715450322701e-07
-0.004871320894098163
5.201180072506312e-07
-0.004871360940285583
3.262993633249918e-07
-0.004871378702402854
1.909189480555898e-07
-0.004871388042388451
9.647727231843546e-08
-0.004871394181751653
7.173986858696561e-08
5.973965415148326e-08
-0.005165260574468642
-2.932350321151793e-08
-0.005165243743938159
-1.626629068080895e-07
-0.005165199894253582
-3.220479361322711e-07
-0.005165142484182762
-4.068914601774992e-07
-0.005165077877245686
-4.775326963224495e-07
-0.005165017186801595
-4.226309253189829e-07
-0.005164971908983192
-3.249983803703589e-07
-0.005164951389145667
-1.229352168458906e-07
-0.005164964026866034
1.151174557603947e-07
-0.005165016097365329
4.082350540846886e-07
-0.005165104324877171
6.607597658115276e-07
-0.005165209560550614
8.03863703726971e-07
-0.005165325661592336
8.635702410366479e-07
-0.005165424475132714
7.598940489333897e-07
-0.005165501316584577
6.082874693815278e-07
-0.005165537953216902
3.250962944083802e-07
-0.005165537923960229
6.518051826963805e-08
-0.005165509771548087
-1.594642861957399e-07
-0.005165459081047425
-3.403385552304115e-07
-0.005165398969036493
-4.251653518208981e-07
-0.005165332314807795
-4.7733941509638e-07
-0.005165268834139889
-4.791334176818607e-07
-0.005165207482810602
-4.787844798074604e-07
-0.005165149909708813
-4.500259079176805e-07
-0.005165098098891773
-4.261967281816184e-07
-0.005165047614126424
-4.010464185315282e-07
-0.005165001971457217
-3.779171592207273e-07
-0.005164957602711397
-3.656697717025371e-07
-0.005164917219571567
-3.543467597754537e-07
-0.005164876984123124
-3.380432565757993e-07
-0.005164836673371903
-3.279179851079919e-07
-0.005164796083331336
-3.353402092596195e-07
-0.005164754097211471
-3.386412797545711e-07
-0.005164710175483727
-3.668373967173575e-07
-0.005164663131204671
-3.763499430942387e-07
-0.005164614492282069
-3.991834482201647e-07
-0.005164563356783919
-4.108161690790414e-07
-0.005164511927705497
-4.116666897589153e-07
-0.00516445799706185
-4.111463456325161e-07
-0.005164407518024093
-3.920626617457586e-07
-0.005164361860777578
-3.514632366370259e-07
-0.005164324641390414
-2.764625421460233e-07
-0.0051643041880547
-1.555223941895867e-07
-0.005164304207171887
1.823484226055656e-08
-0.005164333864594466
2.292037682452544e-07
-0.005164402504063579
5.007949295923714e-07
-0.005164504007473844
7.25036495734439e-07
-0.005164627383230808
8.87502344829391e-07
-0.005164761258794962
9.86259602754834e-07
-0.005164892546839815
9.691783528970083e-07
-0.005165009454127329
9.149810935304816e-07
-0.005165107099601514
7.594275932029603e-07
-0.005165179382775244
5.923783637823152e-07
-0.005165221489551481
3.668648178278115e-07
-0.0051652383812651
2.086316013545503e-07
-0.005165246798556648
1.042573227023377e-07
-0.005165253110387215
7.876157513924469e-08
6.777522806176161e-08
-0.005685417598527551
-2.996433754732185e-08
-0.005685399968637668
-1.808691541208998e-07
-0.005685349643342348
-3.728109868640152e-07
-0.005685282813687602
-4.726586775912469e-07
-0.005685206712890542
-5.549158837712522e-07
-0.00568513456836759
-4.940903235134167e-07
-0.00568507985756121
-3.805620869609714e-07
-0.005685053538585453
-1.487816743747873e-07
-0.005685065749768139
1.272187019412308e-07
-0.005685124837365158
4.677957205236492e-07
-0.005685227793968648
7.640233011043099e-07
-0.005685350255324184
9.27016488327358e-07
-0.005685485769632658
9.976241538179334e-07
-0.005685600991423392
8.75726053966541e-07
-0.00568569043834772
6.977159661811507e-07
-0.005685732163764843
3.677110739010829e-07
-0.00568572961393828
6.254630457530545e-08
-0.005685695208612567
-1.942378378756237e-07
-0.00568563489515472
-4.009964333328022e-07
-0.005685565201275038
-4.951749607248976e-07
-0.005685488695308331
-5.533574315724459e-07
-0.005685416225158165
-5.526906534913519e-07
-0.005685346964946112
-5.485400837304556e-07
-0.005685282068654532
-5.151202574309505e-07
-0.005685223956818396
-4.854020060092722e-07
-0.005685167376013277
-4.561026951957979e-07
-0.00568511637056176
-4.280585641914121e-07
-0.005685066889466236
-4.127842816677471e-07
-0.005685022226733073
-3.98772811153094e-07
-0.005684977858077591
-3.826162840600802e-07
-0.005684933341515433
-3.727644134851353e-07
-0.005684888879313976
-3.809752607895859e-07
-0.005684842457435594
-3.871128066689939e-07
-0.005684794127983861
-4.169227698041114e-07
-0.00568474187314945
-4.2992049117719e-07
-0.005684687729061597
-4.553538647233981e-07
-0.005684630612882676
-4.695118805344485e-07
-0.005684572957724299
-4.72279843293086e-07
-0.005684512161708117
-4.722129545908576e-07
-0.005684454685043953
-4.506652871783133e-07
-0.00568440193710053
-4.047582410740705e-07
-0.005684357964017043
-3.189451599355328e-07
-0.005684332294422709
-1.80872385616785e-07
-0.005684329523126984
1.874016588514432e-08
-0.00568436081556876
2.622474619654553e-07
-0.005684437658147773
5.785180712072173e-07
-0.005684554267595204
8.433188699795514e-07
-0.005684695768056133
1.027781030387462e-06
-0.005684850054531125
1.141036316471683e-06
-0.00568500086191324
1.118405628123739e-06
-0.005685135297505466
1.051983252652263e-06
-0.005685246847014262
8.699554665205766e-07
-0.005685328657670855
6.741520580084327e-07
-0.005685374452561001
4.109043504141916e-07
-0.005685390078575552
2.249080887983063e-07
-0.005685397038932156
1.102106157432788e-07
-0.005685403662917025
8.573810169559465e-08
7.904501021489635e-08
-0.006487459382194427
-2.524328014603489e-08
-0.006487441465384196
-1.987593403458682e-07
-0.006487381156628081
-4.333392504995344e-07
-0.006487299684627226
-5.525558751259383e-07
-0.006487205674394693
-6.50311528452634e-07
-0.006487115445191618
-5.83448946448523e-07
-0.006487045903673902
-4.509874982168841e-07
-0.006487010294535705
-1.839142807336637e-07
-0.006487021636267125
1.384935700561916e-07
-0.006487091678179044
5.382821619475673e-07
-0.006487218340372354
8.909695812164695e-07
-0.006487368154611674
1.077500752739969e-06
-0.006487534728036254
1.16263708417846e-06
-0.006487675978445783
1.017648234845813e-06
-0.006487785528807038
8.071505898060026e-07
-0.006487835337578458
4.18497786606987e-07
-0.006487828323511188
5.537496786244652e-08
-0.006487783713394583
-2.39301990440251e-07
-0.006487707762280483
-4.772086843109252e-07
-0.00648762273551595
-5.805774533971894e-07
-0.006487530679621426
-6.448824483055275e-07
-0.006487444163425843
-6.404144862638142e-07
-0.006487362566094359
-6.307160378436117e-07
-0.006487286320037535
-5.916033007176614e-07
-0.00648721855089192
-5.544260011936645e-07
-0.006487152682302993
-5.202688695137441e-07
-0.006487093486081369
-4.864624154660799e-07
-0.006487036094001855
-4.675857266128279e-07
-0.006486984626260727
-4.50087676655356e-07
-0.006486933541083108
-4.339934246858648e-07
-0.00648688237015582
-4.241758472526574e-07
-0.006486831605495286
-4.330705238811293e-07
-0.006486778246127589
-4.42387405327272e-07
-0.00648672294625043
-4.74061542552967e-07
-0.006486662507478989
-4.916150955817287e-07
-0.006486599780187435
-5.20231212584046e-07
-0.006486533289511764
-5.374285154993046e-07
-0.006486465993646884
-5.426657148754923e-07
-0.006486394576161181
-5.434006698262423e-07
-0.006486326374551495
-5.197971890622119e-07
-0.00648626275880363
-4.687949603366744e-07
-0.006486208405317396
-3.713325202886145e-07
-0.006486174485357802
-2.144833312340884e-07
-0.006486167339033059
1.551489982613693e-08
-0.00648620073916612
2.970523022180755e-07
-0.00648629017755015
6.687939774147882e-07
-0.006486430505082737
9.855657604849607e-07
-0.006486600194334767
1.196245294392217e-06
-0.006486786339516033
1.327811083494141e-06
-0.006486967481962263
1.297911057804031e-06
-0.006487129082794123
1.216267635181544e-06
-0.006487262123612897
1.001809850431634e-06
-0.006487358719611072
7.707448043591839e-07
-0.006487409908956936
4.601937798412209e-07
-0.0064874227739234
2.385229170160433e-07
-0.006487426865031419
1.131848641782381e-07
-0.006487433848528135
9.312852745789008e-08
9.677663318923211e-08
-0.007569183347582175
-1.05549327438591e-08
-0.007569166873521139
-2.149986627723673e-07
-0.007569091926084589
-5.086186162052053e-07
-0.007568988628718265
-6.539991585409628e-07
-0.007568867813791761
-7.727763181891966e-07
-0.007568750257103174
-6.998716930660081e-07
-0.0075686581884099
-5.43847058155759e-07
-0.00756860795690928
-2.334777572008416e-07
-0.007568617069961802
1.477137010547945e-07
-0.007568702907798671
6.245704452250878e-07
-0.007568866008331731
1.054337587913108e-06
-0.007569057296355439
1.269400284556271e-06
-0.00756927115995973
1.374727716269833e-06
-0.007569451781219962
1.198885684206657e-06
-0.007569591734869293
9.468174688475376e-07
-0.007569653608779818
4.814815490473109e-07
-0.007569638394558067
3.999814101686246e-08
-0.007569577686351678
-3.004376531336617e-07
-0.007569477565118624
-5.774246252230972e-07
-0.007569369392540809
-6.891754674566734e-07
-0.007569254551809648
-7.591935109999421e-07
-0.00756914778749745
-7.486356942776164e-07
-0.007569048690874968
-7.306442058865578e-07
-0.007568956338714509