/*--------------------------------*- C++ -*----------------------------------*\
| =========                 |                                                 |
| \\      /  F ield         | OpenFOAM: The Open Source CFD Toolbox           |
|  \\    /   O peration     | Version:  v1812                                 |
|   \\  /    A nd           | Web:      www.OpenFOAM.com                      |
|    \\/     M anipulation  |                                                 |
\*---------------------------------------------------------------------------*/
FoamFile
{
    version     2.0;
    format      ascii;
    class       volVectorField;
    location    "10000";
    object      U;
}
// * * * * * * * * * * * * * * * * * * * * * * * * * * * * * * * * * * * * * //

dimensions      [0 1 -1 0 0 0 0];


internalField   nonuniform List<vector> 
1856
(
(-1.047479122232161 7.657662380356717e-07 -6.875244407207038e-07)
(-1.047466504758468 -5.363272882054443e-07 -6.875304193190691e-07)
(-1.047453466672325 -5.342890252984501e-07 -6.875019525268667e-07)
(-1.047458221697728 -8.269658665891033e-07 -6.875213854019017e-07)
(-1.047433296517961 -1.464082314859064e-06 -6.874974498948366e-07)
(-1.047430308358274 -1.187413001040147e-06 -6.874999083478471e-07)
(-1.047411693847319 -1.400313032874801e-06 -6.874846406891577e-07)
(-1.047408194254413 -8.055135266520598e-07 -6.874863499911743e-07)
(-1.047401162865276 -4.224094171544142e-07 -6.874743768092755e-07)
(-1.047409074293606 4.318836336938815e-07 -6.874837755116165e-07)
(-1.047418093435309 1.078829880586519e-06 -6.87484042669209e-07)
(-1.047439293786185 1.724307083684696e-06 -6.874953592619349e-07)
(-1.047462195803779 2.079238623723066e-06 -6.875139514342177e-07)
(-1.04748460873662 2.184955158630939e-06 -6.875170014514104e-07)
(-1.047507814983647 2.047032476795829e-06 -6.875412641055423e-07)
(-1.047523936938838 1.572368272809687e-06 -6.875401014128553e-07)
(-1.047535446367383 1.08972960743121e-06 -6.875557114612367e-07)
(-1.047540158925272 5.905301623992885e-07 -6.875506014989151e-07)
(-1.04754021186106 1.726644824844858e-07 -6.875543754925302e-07)
(-1.047534988753108 -9.843377774007254e-08 -6.875456962955146e-07)
(-1.047527209908267 -2.844900228790233e-07 -6.87541002811448e-07)
(-1.047521361332171 -4.046549207790428e-07 -6.875380469532256e-07)
(-1.047512406679661 -4.728647931725482e-07 -6.875295302504564e-07)
(-1.047504024130565 -5.160649736188003e-07 -6.875260859019977e-07)
(-1.047498384415299 -5.486731091672791e-07 -6.875197128637471e-07)
(-1.047488159135032 -5.281421238003838e-07 -6.875154989719389e-07)
(-1.047484157230962 -5.069836374529373e-07 -6.875104144928281e-07)
(-1.047473781296973 -3.942766380391342e-07 -6.875062912152855e-07)
(-1.047470830758747 -2.98769959980665e-07 -6.87501089089326e-07)
(-1.047460743725681 -1.366540555508575e-07 -6.874968728450702e-07)
(-1.047458077885102 -1.132334133890446e-07 -6.874932296886297e-07)
(-1.047448169155308 -1.275020456055519e-07 -6.874908143704529e-07)
(-1.047443302714746 -2.276867302206685e-07 -6.87484460685161e-07)
(-1.047433266847734 -4.134293774343926e-07 -6.874836943518597e-07)
(-1.047423544975726 -5.253511692873319e-07 -6.874720867345168e-07)
(-1.047414073923403 -6.581261036047261e-07 -6.874741943571736e-07)
(-1.047399855763171 -7.897165263928294e-07 -6.874599878397374e-07)
(-1.047390173747492 -9.491708431477153e-07 -6.874626590945946e-07)
(-1.047371815225524 -1.126473841767179e-06 -6.874488940380537e-07)
(-1.047361109192133 -1.403898820763454e-06 -6.874495110625595e-07)
(-1.047341852892893 -1.498766456147567e-06 -6.874369999355034e-07)
(-1.047330713094511 -1.612441154955116e-06 -6.87434674242108e-07)
(-1.047314675037718 -1.514794785779883e-06 -6.874249418827052e-07)
(-1.047307419769392 -1.275848500943758e-06 -6.874229526855347e-07)
(-1.047298705723054 -8.695116189875018e-07 -6.874175064426164e-07)
(-1.04730434671351 -2.252141034843731e-07 -6.874218077781493e-07)
(-1.047310078605934 4.052369461473902e-07 -6.874222999473123e-07)
(-1.047327686916936 9.799868283899344e-07 -6.874312314547406e-07)
(-1.047344734177593 1.462275704802062e-06 -6.874374686512195e-07)
(-1.047368124618887 1.633637281399182e-06 -6.87450568040706e-07)
(-1.047387580137974 1.759219093082078e-06 -6.874590400113115e-07)
(-1.047409008985733 1.558182538316721e-06 -6.874755083551285e-07)
(-1.047426290933523 1.331818256184043e-06 -6.874847566875913e-07)
(-1.047436073385497 9.022413568418612e-07 -6.874946546350051e-07)
(-1.04744519993531 6.000272353939449e-07 -6.874968744054565e-07)
(-1.047446518166632 3.394514706403632e-07 -6.874950858798787e-07)
(-1.047453816073102 2.907334638894319e-07 -6.875026334836805e-07)
(-1.047457923884789 7.507177670611951e-07 -6.875140486343726e-07)
(-1.107635068841718 1.323370859730976e-06 -2.019553857579225e-06)
(-1.107631037336182 -1.332512922276433e-06 -2.019582011807835e-06)
(-1.107625447536524 -2.022500679283289e-06 -2.019541042610161e-06)
(-1.107616523491658 -2.549306598056212e-06 -2.019554364115627e-06)
(-1.10760460596671 -3.872225890260691e-06 -2.019524603321432e-06)
(-1.107593561967959 -2.963203817400088e-06 -2.01951331499949e-06)
(-1.107584289573748 -2.904032951813488e-06 -2.019490757347735e-06)
(-1.107579398876452 -1.080387163809138e-06 -2.019490865322109e-06)
(-1.107579599081965 4.570272097065478e-07 -2.019472881474286e-06)
(-1.107588923988988 2.875258331251558e-06 -2.019495331563326e-06)
(-1.107603345055236 4.676492365712133e-06 -2.0195075434827e-06)
(-1.107625530800249 6.258455519077623e-06 -2.019536575627337e-06)
(-1.107650623628064 6.770492527735881e-06 -2.019589630857479e-06)
(-1.107672031372171 6.554995792046455e-06 -2.019601915989603e-06)
(-1.107693341460169 5.582342967759353e-06 -2.01966010086534e-06)
(-1.107706183035025 3.75608557733627e-06 -2.019664064946545e-06)
(-1.10771297738911 1.958357639905311e-06 -2.019695328250569e-06)
(-1.10771288111397 2.822261423429428e-07 -2.01968840049584e-06)
(-1.107707225672053 -1.127866715371168e-06 -2.01968849010468e-06)
(-1.107696578632785 -1.967490510244391e-06 -2.019669950970162e-06)
(-1.107683456288151 -2.484923160324926e-06 -2.01964849454913e-06)
(-1.107672086794083 -2.768358310625095e-06 -2.019642309720453e-06)
(-1.107658651215123 -2.954705511451414e-06 -2.019612899861239e-06)
(-1.107644953856321 -2.96199983672716e-06 -2.019603446649328e-06)
(-1.107635549638094 -3.025316806591175e-06 -2.019580511012659e-06)
(-1.10762037762579 -2.940472789922054e-06 -2.019568670909745e-06)
(-1.107612871852471 -2.82648795670844e-06 -2.019549321404993e-06)
(-1.10759799663461 -2.57285589325923e-06 -2.019537145713353e-06)
(-1.107591371672983 -2.245121748301331e-06 -2.019516741677422e-06)
(-1.107577430875921 -1.845691084394018e-06 -2.019504498068759e-06)
(-1.107571158089031 -1.694149008806853e-06 -2.019488093149853e-06)
(-1.107558204058815 -1.811961496074828e-06 -2.019481069276846e-06)
(-1.107549836384595 -1.941381801721329e-06 -2.019457164709588e-06)
(-1.107537872597309 -2.522223784232677e-06 -2.019453724583046e-06)
(-1.107525016339419 -2.605786376665567e-06 -2.019416288243078e-06)
(-1.107515112714051 -2.948795768583648e-06 -2.019418939744056e-06)
(-1.107498616225049 -3.050754936517382e-06 -2.019377101901422e-06)
(-1.107490218038538 -3.27446470285889e-06 -2.019380083067341e-06)
(-1.107471563064524 -3.53175754490461e-06 -2.019343148460895e-06)
(-1.107463593330668 -3.847414978982311e-06 -2.019340353622255e-06)
(-1.107447031245439 -3.837328473868653e-06 -2.019309782673276e-06)
(-1.107440111846949 -3.58202749178479e-06 -2.019302109693042e-06)
(-1.107429777660029 -2.915745472990875e-06 -2.019280140109993e-06)
(-1.107428652865457 -1.730457067470672e-06 -2.019277838178343e-06)
(-1.107427850452357 -1.829777994639629e-07 -2.019268875321896e-06)
(-1.107440836941597 1.914165499836651e-06 -2.019286655754984e-06)
(-1.107454882255423 3.753588831549126e-06 -2.019294645890276e-06)
(-1.107479285181713 5.350101511132932e-06 -2.019325852689591e-06)
(-1.10750348503353 6.419990999785315e-06 -2.019347325251932e-06)
(-1.107531332102284 6.627472591906388e-06 -2.019386829829812e-06)
(-1.107555859570717 6.572614699957932e-06 -2.019410463697464e-06)
(-1.10757950672403 5.638300786020113e-06 -2.01945642120979e-06)
(-1.107599953457187 4.595729825151213e-06 -2.019482104804299e-06)
(-1.107610994051486 3.0350550657738e-06 -2.0195122933575e-06)
(-1.107622091718395 1.92484699387561e-06 -2.019522203458923e-06)
(-1.107623313446441 9.313180979620672e-07 -2.019522181551555e-06)
(-1.107629994758996 6.033542871562985e-07 -2.019548715636392e-06)
(-1.10762942539462 1.198036508336191e-06 -2.01956446023646e-06)
(-1.131870356478644 8.421414422387948e-07 -3.155518742991603e-06)
(-1.131865961766838 -1.68856162647954e-06 -3.155533158868373e-06)
(-1.131861401152558 -3.486173130125077e-06 -3.155504114974454e-06)
(-1.131850505111042 -4.42236982212218e-06 -3.155505079933123e-06)
(-1.131840863633992 -5.887516077063826e-06 -3.155480093758763e-06)
(-1.131828248109127 -4.872390895065433e-06 -3.155465419268726e-06)
(-1.13182041560293 -4.182170250315304e-06 -3.155444184279584e-06)
(-1.131814122683401 -1.493441889463244e-06 -3.155446007414454e-06)
(-1.1318147974668 1.261134856260057e-06 -3.155431196726851e-06)
(-1.131821928127029 4.989018959501721e-06 -3.155460392782521e-06)
(-1.131835796270998 7.964739388327964e-06 -3.155476785233917e-06)
(-1.131855252795337 1.018602412923811e-05 -3.15551949052602e-06)
(-1.131878477107732 1.094564290730172e-05 -3.155575575783857e-06)
(-1.131897808231297 1.016609344065385e-05 -3.155602819558243e-06)
(-1.1319162323883 8.510941453954327e-06 -3.155657218580524e-06)
(-1.131927852565533 5.263111686479716e-06 -3.155676635175917e-06)
(-1.131931930180604 2.264410067898059e-06 -3.155698805761898e-06)
(-1.131931540586289 -5.436565313139883e-07 -3.155703305891019e-06)
(-1.131923736644999 -2.885639645582416e-06 -3.155690784209133e-06)
(-1.13191350908216 -4.182291807923777e-06 -3.15567722977793e-06)
(-1.131898862438086 -5.007833354292338e-06 -3.155641219750133e-06)
(-1.131888131891334 -5.341659116860795e-06 -3.15564189421566e-06)
(-1.131873951589403 -5.623382988712879e-06 -3.155598948024628e-06)
(-1.131861147824908 -5.497286097647458e-06 -3.155592222638812e-06)
(-1.131851150397984 -5.559399247326907e-06 -3.155559311846688e-06)
(-1.131837394613746 -5.372121654277196e-06 -3.15554804710439e-06)
(-1.131829509891747 -5.192354988882332e-06 -3.15552015469832e-06)
(-1.131816326286227 -4.835499326494393e-06 -3.155507685301632e-06)
(-1.131809593051307 -4.309819011505388e-06 -3.15547749443213e-06)
(-1.131797155325643 -3.643213014673937e-06 -3.155463466233469e-06)
(-1.131790922137903 -3.301767844936365e-06 -3.155438116072009e-06)
(-1.131779528517203 -3.425890197782336e-06 -3.15543033986065e-06)
(-1.131771707495774 -3.469848368251274e-06 -3.155396259731699e-06)
(-1.131761318696805 -4.346297013881224e-06 -3.155391905980335e-06)
(-1.131749880661632 -4.362783787068808e-06 -3.155342161888616e-06)
(-1.131741505865625 -4.839772698689927e-06 -3.155344594990154e-06)
(-1.13172709475729 -4.861220064949704e-06 -3.155290146765377e-06)
(-1.131719995907713 -5.026120370245747e-06 -3.155292354951128e-06)
(-1.131703862461089 -5.296909846015944e-06 -3.155244644904228e-06)
(-1.131697193689429 -5.542424864427278e-06 -3.155240490597925e-06)
(-1.131683353402612 -5.411682015501401e-06 -3.155201874423706e-06)
(-1.131677969474186 -4.761480972026136e-06 -3.155193629742074e-06)
(-1.131670063778013 -3.558514757357831e-06 -3.155166567040382e-06)
(-1.131670440769165 -1.492630765592055e-06 -3.155167545008936e-06)
(-1.131671422169348 1.073560030191825e-06 -3.155157720911539e-06)
(-1.131685132273826 4.496669925890677e-06 -3.155186138302424e-06)
(-1.131700134429955 7.394893808275678e-06 -3.155197083771965e-06)
(-1.131724156431013 9.870604006329526e-06 -3.155241497436952e-06)
(-1.131748108566146 1.141795572518333e-05 -3.155267706596861e-06)
(-1.131774843168978 1.157108044082339e-05 -3.155319328288806e-06)
(-1.131798410096677 1.131114244840635e-05 -3.155345275652617e-06)
(-1.131820746826422 9.646021335654864e-06 -3.155401119824324e-06)
(-1.131840074541861 7.848124392193088e-06 -3.155429483316727e-06)
(-1.131850418542107 5.212041117723927e-06 -3.15546441148459e-06)
(-1.131860531596845 3.348664802067674e-06 -3.155476873370923e-06)
(-1.131861463330323 1.668077067056269e-06 -3.155475168567263e-06)
(-1.131867036257497 1.020300599744255e-06 -3.155515572946191e-06)
(-1.131866155646235 1.148481577974249e-06 -3.155542980892339e-06)
(-1.128977231132324 5.1988493020358e-07 -3.803017315694368e-06)
(-1.12897282987743 -2.713808508965538e-06 -3.803001755691341e-06)
(-1.128968322446929 -4.957843423950384e-06 -3.802984847458965e-06)
(-1.128957314757505 -6.433936709532593e-06 -3.802983266915806e-06)
(-1.128947559156199 -8.045430710105965e-06 -3.802960307026306e-06)
(-1.128935126377892 -6.834022423318302e-06 -3.802954023852988e-06)
(-1.128926910738519 -5.565676506918384e-06 -3.802927588453062e-06)
(-1.128920698478206 -1.976396659455625e-06 -3.802935244295431e-06)
(-1.128921003071406 1.951230415550583e-06 -3.802910937080822e-06)
(-1.128927566174555 7.018229782424724e-06 -3.802938901412581e-06)
(-1.128941106438473 1.11560861483991e-05 -3.802936239603956e-06)
(-1.128959502387066 1.40012920344745e-05 -3.802978189172454e-06)
(-1.128981755942837 1.499952634623099e-05 -3.803003928041424e-06)
(-1.129000543614728 1.362831327738432e-05 -3.803036253253994e-06)
(-1.129017823341794 1.129673873635478e-05 -3.803058949898345e-06)
(-1.129028878405087 6.655878270268116e-06 -3.803088727636278e-06)
(-1.129032138352971 2.477042113446258e-06 -3.803089132084405e-06)
(-1.129031472234593 -1.426809463814471e-06 -3.80310760251534e-06)
(-1.129023270621413 -4.639542399276164e-06 -3.803084204117975e-06)
(-1.129013602645891 -6.346317101784772e-06 -3.803086467530374e-06)
(-1.128999040271987 -7.441191247846167e-06 -3.80304792778563e-06)
(-1.128988499865738 -7.766627171344088e-06 -3.80306221492466e-06)
(-1.128974750515436 -8.093856702466443e-06 -3.803021612606562e-06)
(-1.128962718465837 -7.788749122523702e-06 -3.803026417513882e-06)
(-1.128952731946171 -7.805283066823572e-06 -3.802997904529614e-06)
(-1.128940337803478 -7.525947644325493e-06 -3.802997054853874e-06)
(-1.128932214712009 -7.338722859868628e-06 -3.802974253829029e-06)
(-1.128920542230023 -6.989658694424375e-06 -3.802971659950108e-06)
(-1.128913510352896 -6.392534863421378e-06 -3.802946730544879e-06)
(-1.128902616561299 -5.507184706753442e-06 -3.802942127929728e-06)
(-1.128895979877908 -4.987816877220517e-06 -3.802921467268225e-06)
(-1.128885927617298 -5.063479797767559e-06 -3.802921496959762e-06)
(-1.128878229185331 -4.972066711711446e-06 -3.802895454014324e-06)
(-1.128868725939285 -6.047678362168078e-06 -3.80289723836985e-06)
(-1.128858339134049 -6.073834996093225e-06 -3.802860522713184e-06)
(-1.128850066496188 -6.665662115676043e-06 -3.802867372280349e-06)
(-1.128837400895909 -6.651714216171911e-06 -3.80282660966326e-06)
(-1.128829933438374 -6.708034649156066e-06 -3.802833523677817e-06)
(-1.128815882260685 -6.927161181721487e-06 -3.802796317591324e-06)
(-1.128808838731861 -7.063982615212182e-06 -3.802798831052373e-06)
(-1.128796900849247 -6.774038137623063e-06 -3.802768248671749e-06)
(-1.128791351665443 -5.756949933393149e-06 -3.802764950064378e-06)
(-1.128784620537103 -4.012891132482431e-06 -3.802742242398295e-06)
(-1.128784968762206 -1.137676622199315e-06 -3.802744426681824e-06)
(-1.128786338582852 2.37765610250742e-06 -3.802733597541279e-06)
(-1.128799456723655 7.064886114627558e-06 -3.802757657210302e-06)
(-1.128814336541343 1.096927129741627e-05 -3.802759636423985e-06)
(-1.128837769639781 1.427286582487772e-05 -3.802794409646273e-06)
(-1.128861188153059 1.62745242831836e-05 -3.802808395715404e-06)
(-1.128887162595937 1.636134974902251e-05 -3.802846417859558e-06)
(-1.128910071261029 1.587193315561704e-05 -3.802861335497178e-06)
(-1.128931426341651 1.349055680558726e-05 -3.802901968805317e-06)
(-1.128949815424054 1.091256759584501e-05 -3.802921799444438e-06)
(-1.128959800492069 7.188623520013581e-06 -3.802944946756064e-06)
(-1.128968890699338 4.573264434367867e-06 -3.802956134022776e-06)
(-1.128969973247208 2.324913686891342e-06 -3.802950848594637e-06)
(-1.128974727850602 1.593308378061197e-06 -3.802983486621207e-06)
(-1.128974115907326 1.565079640434232e-06 -3.803026128919754e-06)
(-1.118823876188658 2.106309453820692e-07 -4.098032830614525e-06)
(-1.118819837626105 -3.60785777565982e-06 -4.098001442275195e-06)
(-1.118814664715532 -6.63756114008869e-06 -4.097976355437165e-06)
(-1.118803911863396 -8.424804822156679e-06 -4.097991831747152e-06)
(-1.118793412430648 -1.02669461475247e-05 -4.097956636720559e-06)
(-1.118781239355365 -8.825610143626154e-06 -4.097972533492855e-06)
(-1.118772475552184 -6.969472063039096e-06 -4.097933877826763e-06)
(-1.118766416423285 -2.473836692486013e-06 -4.097957431061402e-06)
(-1.118766588433712 2.616637042506032e-06 -4.097920569585012e-06)
(-1.118773185565867 9.011394631409697e-06 -4.097954134613538e-06)
(-1.118786991583188 1.434549296200278e-05 -4.09793249095698e-06)
(-1.118805373823648 1.77708394617611e-05 -4.09797413585262e-06)
(-1.118827722903944 1.90412590057494e-05 -4.097974033145284e-06)
(-1.11884692784078 1.704178421790405e-05 -4.098006912062571e-06)
(-1.11886411893293 1.400454921049621e-05 -4.098004951126606e-06)
(-1.1188751447433 7.983776800666957e-06 -4.098036677906768e-06)
(-1.118878301935048 2.596498842258589e-06 -4.098022866774896e-06)
(-1.118877325873738 -2.38177185521324e-06 -4.098046351052666e-06)
(-1.118869165223489 -6.440415692888072e-06 -4.098018913495711e-06)
(-1.118859422546175 -8.518825815902081e-06 -4.098028534470871e-06)
(-1.118845012840282 -9.868508681743203e-06 -4.097992353585702e-06)
(-1.118834005369542 -1.015668989390143e-05 -4.098011455036571e-06)
(-1.11882066702615 -1.047740275116878e-05 -4.097977421059891e-06)
(-1.118808629787376 -9.974740584515266e-06 -4.097986182220509e-06)
(-1.118798453460756 -9.862118039285548e-06 -4.097963831968589e-06)
(-1.118786642972134 -9.470365947044968e-06 -4.097967424029373e-06)
(-1.118778046818352 -9.248114125171734e-06 -4.097950433140694e-06)
(-1.118767242317252 -8.969890198070911e-06 -4.09795282998619e-06)
(-1.118759827939469 -8.425758535585233e-06 -4.097934407592976e-06)
(-1.118749794299443 -7.445182264366413e-06 -4.097934902630649e-06)
(-1.118742633193727 -6.816767747213287e-06 -4.097919918706634e-06)
(-1.118733191286234 -6.854541775540575e-06 -4.097923052489477e-06)
(-1.118725239736992 -6.63426621640805e-06 -4.097905170474222e-06)
(-1.118715831803037 -7.774934031984876e-06 -4.097908022445548e-06)
(-1.118705703106695 -7.862767243233343e-06 -4.097883665490082e-06)
(-1.11869695484872 -8.546595730610935e-06 -4.097890981243702e-06)
(-1.118685051765866 -8.570425120020413e-06 -4.097863588850001e-06)
(-1.118676639167484 -8.508529269782668e-06 -4.097871866237704e-06)
(-1.118663526656671 -8.614788605840315e-06 -4.097845507440449e-06)
(-1.118655361684083 -8.575295334744106e-06 -4.09785086878197e-06)
(-1.11864415453104 -8.049362868281279e-06 -4.097829935415282e-06)
(-1.118637890940281 -6.656398213578623e-06 -4.097830069096309e-06)
(-1.118631552235594 -4.315763484359235e-06 -4.097814546109575e-06)
(-1.118631622787564 -6.503272007727777e-07 -4.097818361456515e-06)
(-1.118633223822688 3.783370235762555e-06 -4.097810314919134e-06)
(-1.118646063261853 9.695536141588197e-06 -4.097830821798345e-06)
(-1.118661674953034 1.457191203974682e-05 -4.097829396008011e-06)
(-1.118685148939668 1.863963400257265e-05 -4.097854408517355e-06)
(-1.118709151627123 2.106924444196277e-05 -4.097860180198498e-06)
(-1.118735181781682 2.105998774529908e-05 -4.097883833925358e-06)
(-1.118758437322135 2.02980331776713e-05 -4.09789024042313e-06)
(-1.118779562366263 1.719928225886508e-05 -4.097915116481266e-06)
(-1.118797736540185 1.38447671242923e-05 -4.097927451249495e-06)
(-1.118807769068068 9.040683460207654e-06 -4.097938893482839e-06)
(-1.11881613015207 5.665373550375409e-06 -4.097947295802287e-06)
(-1.118817478066995 2.867410170530837e-06 -4.097941008463731e-06)
(-1.11882149115382 2.014947492600662e-06 -4.097956518156836e-06)
(-1.118821372869596 1.850126124103255e-06 -4.09800365921071e-06)
(-1.108215852425596 -1.170651026340567e-07 -4.24731087655128e-06)
(-1.108212273518822 -4.420603143928045e-06 -4.247289800538521e-06)
(-1.1082067542532 -8.32360203021317e-06 -4.247243742391997e-06)
(-1.10819609415975 -1.05154424990258e-05 -4.247282709909873e-06)
(-1.108184928925547 -1.256761258561821e-05 -4.247230419486456e-06)
(-1.108172641121151 -1.091244957689436e-05 -4.247266704171341e-06)
(-1.108163255037845 -8.460366012377841e-06 -4.247216043367991e-06)
(-1.1081570975595 -2.997592855889414e-06 -4.247252861090151e-06)
(-1.108157092383146 3.271980900159882e-06 -4.247207482326676e-06)
(-1.108163756962842 1.105141418262726e-05 -4.247246252109328e-06)
(-1.108178085448793 1.760538866646612e-05 -4.247214783248772e-06)
(-1.108196752286952 2.165524227965348e-05 -4.247256051997806e-06)
(-1.108219582349229 2.320713538348842e-05 -4.247243211195753e-06)
(-1.108239426634578 2.059962435244377e-05 -4.247275552611425e-06)
(-1.108256990160686 1.678510804260341e-05 -4.247262236841768e-06)
(-1.108268158501596 9.363285440963844e-06 -4.247293032789703e-06)
(-1.108271241434862 2.699867744015306e-06 -4.247273676781034e-06)
(-1.108269929437721 -3.378878533840516e-06 -4.247297686518423e-06)
(-1.108261565172237 -8.298250432753537e-06 -4.247270233188758e-06)
(-1.108251651175902 -1.07460143503726e-05 -4.247281994704524e-06)
(-1.108237346565962 -1.23261505506159e-05 -4.247249579693641e-06)
(-1.108225799943208 -1.258213709501899e-05 -4.247268236692919e-06)
(-1.108212652364706 -1.286921812729337e-05 -4.247240161374366e-06)
(-1.10820050899381 -1.217485222037917e-05 -4.247248477954043e-06)
(-1.108190198946311 -1.187587716218337e-05 -4.247231158868489e-06)
(-1.108178645772567 -1.134079097312439e-05 -4.247235017804747e-06)
(-1.108169732550559 -1.10057837340745e-05 -4.247222339209157e-06)
(-1.108159347828067 -1.077116959539387e-05 -4.247225619937729e-06)
(-1.108151512709926 -1.033086496554879e-05 -4.247211067635665e-06)
(-1.108141999515015 -9.363350333423072e-06 -4.247213034969707e-06)
(-1.10813429461046 -8.696529392626954e-06 -4.247201070852046e-06)
(-1.108125197056244 -8.758104995305352e-06 -4.247204530313295e-06)
(-1.10811697060427 -8.475128423225587e-06 -4.247191364729731e-06)
(-1.108107574410171 -9.607254812492776e-06 -4.247193047265043e-06)
(-1.108097617414866 -9.749576596648058e-06 -4.247176047635978e-06)
(-1.10808840988766 -1.051626491052304e-05 -4.247181494511024e-06)
(-1.108076937843797 -1.063826672636269e-05 -4.247162044696462e-06)
(-1.108067816148165 -1.050947855713379e-05 -4.247169230642623e-06)
(-1.108055278290081 -1.050339156407805e-05 -4.247149720999955e-06)
(-1.108046344276396 -1.024408954922231e-05 -4.247154783233409e-06)
(-1.108035624108394 -9.43092152026888e-06 -4.247140469142272e-06)
(-1.108028705776695 -7.633894483234069e-06 -4.24714096477761e-06)
(-1.108022569389841 -4.640986895297644e-06 -4.247130386021311e-06)
(-1.108022203435598 -1.357480286950966e-07 -4.247133838508586e-06)
(-1.108023877011633 5.259683002077595e-06 -4.24712800926427e-06)
(-1.108036326144074 1.241938465220529e-05 -4.247145369284541e-06)
(-1.108052296996734 1.828862259276379e-05 -4.2471420412125e-06)
(-1.108076043051214 2.308841803540188e-05 -4.247161500734847e-06)
(-1.108100661535868 2.594334359513562e-05 -4.247163236644171e-06)
(-1.108127132355054 2.580531020558595e-05 -4.247178811426976e-06)
(-1.108150996055895 2.472305415115016e-05 -4.247181050695705e-06)
(-1.108172275834244 2.08609026381051e-05 -4.247196582740735e-06)
(-1.108190433016656 1.670902713764775e-05 -4.247204494781017e-06)
(-1.108200671528925 1.082427843671985e-05 -4.247209203790131e-06)
(-1.108208470720316 6.70363329451916e-06 -4.247214952476767e-06)
(-1.108210008826663 3.420704927254892e-06 -4.247208823196822e-06)
(-1.108213519304464 2.449374873638603e-06 -4.247213639540343e-06)
(-1.108213765035347 2.121691306360423e-06 -4.247252554172667e-06)
(-1.097766430414993 -4.139179006476546e-07 -4.33545443234704e-06)
(-1.097763263092072 -5.191250270786493e-06 -4.33545458545939e-06)
(-1.097757321314799 -1.00104840142087e-05 -4.335385959439895e-06)
(-1.097746630263762 -1.266620181601942e-05 -4.335445375849476e-06)
(-1.097734784871781 -1.49997228218876e-05 -4.335378700089449e-06)
(-1.097722186280861 -1.311273812162359e-05 -4.335429424957543e-06)
(-1.09771220023042 -1.009362778572181e-05 -4.335370758362218e-06)
(-1.097705728438358 -3.601684981407475e-06 -4.335415584980638e-06)
(-1.097705477765761 3.898976787779478e-06 -4.335365907460972e-06)
(-1.097712111147575 1.314444754996131e-05 -4.335406909630295e-06)
(-1.09772691409265 2.098247112204886e-05 -4.335371040291519e-06)
(-1.097745965021492 2.569202817908101e-05 -4.335410532071341e-06)
(-1.097769395992764 2.755372445493805e-05 -4.335392045717228e-06)
(-1.097789923078113 2.435364112097281e-05 -4.335422603683573e-06)
(-1.097807950187325 1.970645694400637e-05 -4.335404607857258e-06)
(-1.097819360608393 1.08255305487829e-05 -4.335433202639567e-06)
(-1.097822347766365 2.803354271733774e-06 -4.335412747608004e-06)
(-1.097820732710074 -4.417269301094745e-06 -4.335435569014318e-06)
(-1.097812129554297 -1.023533780966848e-05 -4.335410400169138e-06)
(-1.097801972477286 -1.306545080525571e-05 -4.335422108712864e-06)
(-1.097787649802041 -1.486776616720447e-05 -4.3353936220278e-06)
(-1.097775626581136 -1.509142151250014e-05 -4.335410175387847e-06)
(-1.097762569326346 -1.532920485729454e-05 -4.33538726201918e-06)
(-1.097750291861364 -1.445854209768399e-05 -4.335393787769027e-06)
(-1.097739826063803 -1.395336769651651e-05 -4.335380216048476e-06)
(-1.097728376758758 -1.326732642055142e-05 -4.335382913891036e-06)
(-1.097719174556802 -1.276538133821612e-05 -4.335373113333463e-06)
(-1.097709029699591 -1.250823468482818e-05 -4.335375927838295e-06)
(-1.097700930772794 -1.212820969584724e-05 -4.335364177722587e-06)
(-1.097691841803335 -1.121342177856849e-05 -4.33536659490223e-06)
(-1.09768389674894 -1.055070718393447e-05 -4.335357048979056e-06)
(-1.097675062527361 -1.066720123976592e-05 -4.335360104209415e-06)
(-1.097666813083793 -1.040818682353244e-05 -4.335350556539873e-06)
(-1.09765742993172 -1.153145204209179e-05 -4.335350726744175e-06)
(-1.09764765641018 -1.172119787475241e-05 -4.33533846987574e-06)
(-1.097638140097639 -1.255551308899734e-05 -4.335341886597691e-06)
(-1.097626960653548 -1.278730427393119e-05 -4.335327426328081e-06)
(-1.09761737925132 -1.264661320979045e-05 -4.335333148027433e-06)
(-1.09760516958454 -1.256688344644915e-05 -4.335317884082727e-06)
(-1.097595637082531 -1.209072648598614e-05 -4.335321472626981e-06)
(-1.097585036442767 -1.097681249568191e-05 -4.335310826320668e-06)
(-1.097577490955042 -8.760108203097884e-06 -4.335310334354752e-06)
(-1.097571241430653 -5.085864154969194e-06 -4.335302313484981e-06)
(-1.097570406816182 3.099099002888286e-07 -4.335304605949964e-06)
(-1.097571930111452 6.755048753000163e-06 -4.335299778393737e-06)
(-1.097584102577389 1.524213818915503e-05 -4.335314846055208e-06)
(-1.097600504471299 2.219278953325857e-05 -4.335310809049358e-06)
(-1.097624653630809 2.773219187155411e-05 -4.33532705539534e-06)
(-1.097649985701165 3.103075296667662e-05 -4.335326960476301e-06)
(-1.09767702821285 3.074798443440975e-05 -4.335337905572148e-06)
(-1.097701556222847 2.930385365788093e-05 -4.335338041599884e-06)
(-1.097723172233946 2.46050541031704e-05 -4.335348119180504e-06)
(-1.097741483965242 1.958494973444863e-05 -4.335353614495738e-06)
(-1.097751907084745 1.256240555058013e-05 -4.335354488780798e-06)
(-1.097759241043368 7.655974995327186e-06 -4.335358299847376e-06)
(-1.097760773693504 3.930337028650694e-06 -4.335352086929941e-06)
(-1.097763867417521 2.865719885279288e-06 -4.335352177602423e-06)
(-1.097764428683866 2.408853186710695e-06 -4.335380840287473e-06)
(-1.087187699049463 -6.776496729955509e-07 -4.392669674280644e-06)
(-1.087184912208815 -5.954437339299587e-06 -4.392689582064397e-06)
(-1.087178748672547 -1.175877684402537e-05 -4.392604273430053e-06)
(-1.087167901849476 -1.49139347159834e-05 -4.392677839285339e-06)
(-1.087155461018404 -1.759846452334665e-05 -4.39260234031707e-06)
(-1.087142353416239 -1.547491797197854e-05 -4.392661444315053e-06)
(-1.087131703655231 -1.188862009410315e-05 -4.392598856062671e-06)
(-1.08712475619898 -4.315441018350444e-06 -4.392647225873225e-06)
(-1.087124146879484 4.499063041014707e-06 -4.392596399023771e-06)
(-1.087130695611262 1.532758889282711e-05 -4.392637042024304e-06)
(-1.087146045809105 2.455336176086233e-05 -4.392600284186623e-06)
(-1.087165599711293 2.99659340016452e-05 -4.392636702313511e-06)
(-1.087189790548211 3.216117385697167e-05 -4.392616322978834e-06)
(-1.087211060413924 2.836063092922648e-05 -4.39264390437537e-06)
(-1.087229711116051 2.281773233057634e-05 -4.392624771745838e-06)
(-1.087241423443874 1.238003881344679e-05 -4.392650246315184e-06)
(-1.087244239600039 2.890610443943955e-06 -4.392630600812174e-06)
(-1.087242278178928 -5.52659209404739e-06 -4.39265122941659e-06)
(-1.087233210134501 -1.229064748630363e-05 -4.39262864356227e-06)
(-1.087222705519256 -1.552402570329828e-05 -4.392639331435807e-06)
(-1.087208238306103 -1.754241926718142e-05 -4.392614614716052e-06)
(-1.087195809141068 -1.772434354508796e-05 -4.39262880634551e-06)
(-1.087182707391276 -1.78890353106022e-05 -4.392610070969497e-06)
(-1.087170319615662 -1.684974952906767e-05 -4.392614787305385e-06)
(-1.087159749526425 -1.61249519198793e-05 -4.392604338900625e-06)
(-1.087148358163637 -1.528562500726765e-05 -4.392605664173196e-06)
(-1.087139005947765 -1.459464651664719e-05 -4.392598305980798e-06)
(-1.087129007917495 -1.42677777074767e-05 -4.392600255105913e-06)
(-1.087120731152963 -1.389780902495654e-05 -4.392590704059237e-06)
(-1.08711193421523 -1.304499611558939e-05 -4.392593100103852e-06)
(-1.087103813167709 -1.240845330212094e-05 -4.392585172510314e-06)
(-1.087095165449593 -1.258537700921889e-05 -4.39258754962843e-06)
(-1.087086899281316 -1.24076268788494e-05 -4.392580469261936e-06)