/*--------------------------------*- C++ -*----------------------------------*\
| =========                 |                                                 |
| \\      /  F ield         | OpenFOAM: The Open Source CFD Toolbox           |
|  \\    /   O peration     | Version:  v1812                                 |
|   \\  /    A nd           | Web:      www.OpenFOAM.com                      |
|    \\/     M anipulation  |                                                 |
\*---------------------------------------------------------------------------*/
FoamFile
{
    version     2.0;
    format      ascii;
    class       volVectorField;
    location    "10000";
    object      wallShearStress;
}
// * * * * * * * * * * * * * * * * * * * * * * * * * * * * * * * * * * * * * //

dimensions      [0 2 -2 0 0 0 0];


internalField   uniform (0 0 0);

boundaryField
{
    inlet
    {
        type            cyclic;
    }
    outlet
    {
        type            cyclic;
    }
    bottomWall
    {
        type            calculated;
        value           nonuniform List<vector> 
58
(
(0.0007010191027035552 -1.914058097630827e-08 1.015113833216927e-08)
(0.0007008325802762435 2.271337655995996e-08 1.015122316309925e-08)
(0.0007006391132505847 1.444253074845536e-08 1.01507993019967e-08)
(0.0007007098637830516 2.583611686281732e-08 1.015108752041251e-08)
(0.0007003409759988126 4.20471360899176e-08 1.015072732222703e-08)
(0.0007002964988938175 3.361067351253362e-08 1.015076280604544e-08)
(0.000700021084338396 3.804418065947685e-08 1.015053230910778e-08)
(0.000699968924426738 2.084694007517399e-08 1.015055659274334e-08)
(0.000699864791270221 7.898742052668544e-09 1.015037789569802e-08)
(0.0006999815625977734 -1.652352507863624e-08 1.015051882105956e-08)
(0.0007001150458194945 -3.555551878112846e-08 1.015052522371184e-08)
(0.0007004286698664243 -5.484002153097635e-08 1.015069808959564e-08)
(0.0007007676271812574 -6.240185592813295e-08 1.015097884350335e-08)
(0.000701099321264539 -6.462720459444674e-08 1.01510299898056e-08)
(0.0007014428061369841 -5.893151513127535e-08 1.015139455427987e-08)
(0.0007016813923559621 -4.404541229136014e-08 1.015138178745506e-08)
(0.0007018515612468803 -2.913847880525871e-08 1.015161540829171e-08)
(0.0007019211840979788 -1.388319869459057e-08 1.015154124732335e-08)
(0.0007019218045786304 -9.496193655777493e-10 1.015159698400338e-08)
(0.0007018444231547866 8.097861041139702e-09 1.015146741154774e-08)
(0.0007017293160985917 1.205696739526792e-08 1.015139598979046e-08)
(0.000701642769033204 1.497965027617947e-08 1.015135075078837e-08)
(0.0007015103319358566 1.752299487353209e-08 1.01512225595719e-08)
(0.0007013863820826263 1.680289839682124e-08 1.015116941698826e-08)
(0.0007013029613357792 1.831787852772961e-08 1.015107378161468e-08)
(0.0007011517564650137 1.713773308487227e-08 1.015100877462248e-08)
(0.000701092528357814 1.679257419731606e-08 1.015093261169577e-08)
(0.0007009390818064242 1.407566516162616e-08 1.015086890207607e-08)
(0.0007008954271203604 1.205861093786158e-08 1.015079128912591e-08)
(0.0007007463557697794 8.732254214366614e-09 1.015072628620393e-08)
(0.0007007070704390428 8.186710523497908e-09 1.015067176887291e-08)
(0.0007005606717939551 9.510201710259505e-09 1.015063340530132e-08)
(0.0007004888502847117 1.154270479656147e-08 1.015053826781764e-08)
(0.0007003404927493115 1.74996895949053e-08 1.015052421699266e-08)
(0.0007001967312946061 1.943541731931036e-08 1.015035018331664e-08)
(0.000700056729560216 2.41795037085913e-08 1.015037872038937e-08)
(0.0006998465539066481 2.686997461472622e-08 1.015016509018382e-08)
(0.0006997034521328253 3.197064455607587e-08 1.01502018924631e-08)
(0.0006994321326827413 3.594622498783193e-08 1.014999365387707e-08)
(0.0006992738015691603 4.183303061336158e-08 1.014999984808404e-08)
(0.000698989010202172 4.390610798474445e-08 1.014980988107122e-08)
(0.0006988241886464408 4.461919837801007e-08 1.014977250997657e-08)
(0.0006985868403350799 4.085648752956304e-08 1.014962444885627e-08)
(0.0006984793631930376 3.268257643411894e-08 1.01495931043161e-08)
(0.0006983502516838545 1.857337358493011e-08 1.014951032077231e-08)
(0.0006984334855575022 -9.545784970995867e-10 1.014957536377486e-08)
(0.0006985182720021141 -1.903564047504439e-08 1.014958419045036e-08)
(0.0006987786887076283 -3.571129149224404e-08 1.01497208543976e-08)
(0.0006990309928442117 -4.794522369967294e-08 1.014981758605051e-08)
(0.000699377038438967 -5.245970659608651e-08 1.01500173648158e-08)
(0.0006996649237759013 -5.400261752674634e-08 1.015014775104377e-08)
(0.0006999819677370386 -4.90151892607034e-08 1.015039674085627e-08)
(0.0007002376185560633 -3.904112563755487e-08 1.015053800046037e-08)
(0.0007003822918874526 -2.672049353977296e-08 1.015068680795485e-08)
(0.0007005170947341574 -1.676084802865797e-08 1.015072207062601e-08)
(0.000700536402749431 -1.076469451730754e-08 1.015069602291891e-08)
(0.0007006437798237566 -1.112725970660177e-08 1.015080945143735e-08)
(0.0007007044626763264 -2.676839777259609e-08 1.01509791135906e-08)
)
;
    }
    topWall
    {
        type            calculated;
        value           nonuniform List<vector> 
58
(
(0.01111162759933147 -7.130830489703606e-06 2.485846638249537e-08)
(0.0110877619982838 3.585798118734526e-06 2.479004323978668e-08)
(0.0111068860250775 1.116010956538882e-05 2.477047172711912e-08)
(0.01113439150174745 4.100356633169586e-06 2.48043570360879e-08)
(0.01114177490860607 1.924931273925377e-06 2.482542407995556e-08)
(0.01114997994327466 9.956450524725044e-07 2.484800062325876e-08)
(0.01115034373764932 1.113122207849426e-06 2.48541706622634e-08)
(0.01116049354079226 5.823071054839246e-07 2.488549187883339e-08)
(0.01115536991716634 2.633784624422865e-06 2.485657521538177e-08)
(0.01117489226607371 -4.915334048153204e-06 2.492077535271111e-08)
(0.0111464869570721 -1.236798020250322e-05 2.491981992278852e-08)
(0.01111647585548944 -6.715912406945173e-06 2.487278235908197e-08)
(0.01111042253739658 -2.710192645931187e-06 2.485167152084296e-08)
(0.01109536768345412 -1.676698232197433e-07 2.480415274024543e-08)
(0.01109877899946679 -2.865502299732835e-06 2.482097171181363e-08)
(0.01107768803685536 5.34287123887885e-06 2.475431193032774e-08)
(0.01110084040146176 1.148450681697202e-05 2.474382244584522e-08)
(0.01112844612937614 4.824478270638772e-06 2.478211966405199e-08)
(0.01113617809457162 3.039144244215574e-06 2.480375764238774e-08)
(0.01114378710053128 1.595100527423071e-06 2.483006500594239e-08)
(0.01114807667656842 8.084166765616025e-08 2.485216384210521e-08)
(0.0111504164079877 2.147320182704188e-07 2.486518249907624e-08)
(0.0111503494510287 5.075477367138225e-07 2.486920006238967e-08)
(0.01115137769332376 3.148792637855291e-07 2.487478475769892e-08)
(0.01115165934022944 5.094697659497449e-07 2.487819758398893e-08)
(0.01115217605879824 9.431267835391479e-08 2.488206328944124e-08)
(0.01115141012610508 -6.150635733623277e-08 2.488236271481772e-08)
(0.01115300650948302 -6.179018391403114e-08 2.488543737803888e-08)
(0.01115448938817545 -1.857975373124279e-07 2.488831491285765e-08)
(0.01115469677475959 -2.434729308461088e-07 2.488810401760775e-08)
(0.01115441585722225 -2.589731588908688e-08 2.488788984249183e-08)
(0.01115387444143607 9.566228366005804e-09 2.488758927255316e-08)
(0.01115347919008188 1.389183688602379e-07 2.488702834815637e-08)
(0.01115353648372869 -3.32126610967221e-07 2.488633782162701e-08)
(0.0111548763240078 1.22534355635241e-07 2.488719215745269e-08)
(0.01115687822306687 7.277095311567586e-07 2.489049797233317e-08)
(0.01115729284229133 3.519195393808214e-07 2.489188173675023e-08)
(0.01115689974599524 -9.373384344221654e-08 2.489159424899891e-08)
(0.01115675860846425 -1.392849690984658e-07 2.489328363288296e-08)
(0.0111571081581517 3.055036087628064e-07 2.489527634793361e-08)
(0.01115649623100877 2.701201337110546e-07 2.489505082225955e-08)
(0.01115868476483244 -5.070489843004225e-08 2.489923653883855e-08)
(0.01115659276272466 -1.810510290188487e-08 2.489220309732165e-08)
(0.01116448049485441 -3.221904772522487e-07 2.490831116769949e-08)
(0.01115986681365759 2.31811115809225e-06 2.487196728137876e-08)
(0.01118021381873907 -5.035215846313946e-06 2.493418526458223e-08)
(0.01115133180449281 -1.236477189569002e-05 2.493089494951009e-08)
(0.0111221545636236 -6.694789259097996e-06 2.488637558297037e-08)
(0.01111474465464678 -2.534223530798047e-06 2.485802745610523e-08)
(0.01110397360840945 -1.843884261186115e-06 2.482372529075005e-08)
(0.01110613783323254 -2.047627200049439e-06 2.481891418528629e-08)
(0.01109344437577677 -3.37603524495866e-07 2.478160655015055e-08)
(0.01110216518682994 -2.205276994257876e-06 2.481468530748826e-08)
(0.01107630244081094 7.187191573147232e-06 2.473905373192678e-08)
(0.0111107309891467 1.201636046199567e-05 2.475837046139156e-08)
(0.01112659467543004 7.079560921637756e-06 2.475182187106045e-08)
(0.01115861038235222 -2.950226287558535e-06 2.484987582671582e-08)
(0.0111281528951298 -1.020305402752232e-05 2.484881981606718e-08)
)
;
    }
    left
    {
        type            cyclic;
    }
    right
    {
        type            cyclic;
    }
}


// ************************************************************************* //
