/*--------------------------------*- C++ -*----------------------------------*\
| =========                 |                                                 |
| \\      /  F ield         | OpenFOAM: The Open Source CFD Toolbox           |
|  \\    /   O peration     | Version:  v1812                                 |
|   \\  /    A nd           | Web:      www.OpenFOAM.com                      |
|    \\/     M anipulation  |                                                 |
\*---------------------------------------------------------------------------*/
FoamFile
{
    version     2.0;
    format      ascii;
    class       volScalarField;
    location    "3000";
    object      nut;
}
// * * * * * * * * * * * * * * * * * * * * * * * * * * * * * * * * * * * * * //

dimensions      [0 2 -1 0 0 0 0];


internalField   nonuniform List<scalar> 
2838
(
4.025345488467708e-06
4.024248296090002e-06
4.086690148914933e-06
4.08847937726796e-06
4.088004585540505e-06
4.025494773023893e-06
4.023509343256868e-06
4.02340894490852e-06
4.023202047344907e-06
4.022942894437708e-06
4.023111484441127e-06
4.02420000438765e-06
4.024188837949298e-06
4.024421007069488e-06
4.024146424565248e-06
4.024117945559208e-06
4.023681106703906e-06
4.02341930125285e-06
4.02370558322732e-06
4.02332249650902e-06
4.023618077582257e-06
4.022852694173246e-06
4.023281512298555e-06
4.023603299028705e-06
4.024333771028089e-06
4.023096915223797e-06
4.023470867857994e-06
4.023567290188525e-06
4.024406680744334e-06
4.02342358887532e-06
4.023292515033342e-06
4.023033936471883e-06
4.023154426117657e-06
4.023906766431141e-06
4.023861293266858e-06
4.024210116155278e-06
4.024163135518699e-06
4.023636126863353e-06
4.023479041272647e-06
4.023745370315589e-06
4.023487175524997e-06
4.024031593042805e-06
4.08668819270505e-06
4.088501953999991e-06
4.02689630522537e-06
4.085370018664953e-06
4.026762038301975e-06
4.086783692399474e-06
4.08848039334789e-06
4.08796625858701e-06
4.087963654885597e-06
4.088214095670014e-06
4.088723692805495e-06
4.088948664645277e-06
4.088201656233226e-06
4.02551990764215e-06
4.02372060289454e-06
4.024211075385249e-06
4.023298291444379e-06
4.024155042372363e-06
4.02347175461606e-06
4.023540822751818e-06
4.024089628541411e-06
4.02373242071426e-06
4.02291257989068e-06
4.023509411423073e-06
3.297370641676363e-06
3.291779456414187e-06
3.993940327131473e-06
4.040477579714681e-06
4.030004489313156e-06
3.304434256259996e-06
3.289241794375222e-06
3.287291517619415e-06
3.281234074871897e-06
3.281096175139305e-06
3.276565785425208e-06
3.288731968704728e-06
3.292998132034537e-06
3.295210059918179e-06
3.294656555171683e-06
3.292241961345576e-06
3.292591975375555e-06
3.291768385196034e-06
3.291019265909505e-06
3.286413796056318e-06
3.284264975527679e-06
3.280179385703591e-06
3.285185385918209e-06
3.287017497128215e-06
3.288509954861482e-06
3.286171289488154e-06
3.28562423965344e-06
3.281725259623652e-06
3.2886773916953e-06
3.292075403154163e-06
3.286101444274029e-06
3.279752286783115e-06
3.276244385100312e-06
3.285427326993973e-06
3.285718713940025e-06
3.290383678510927e-06
3.291361494354695e-06
3.289461575590894e-06
3.28878115572788e-06
3.286656300549131e-06
3.279223681063608e-06
3.286074327462309e-06
3.993559750556594e-06
4.03978250974579e-06
3.313592460610561e-06
3.976240233561221e-06
3.311772198247372e-06
3.996380872107471e-06
4.040566341501425e-06
4.030242327436928e-06
4.032430400973931e-06
4.037801412906926e-06
4.038628410101433e-06
4.046554756733559e-06
4.037028359515783e-06
3.304904289902903e-06
3.287456415468513e-06
3.291023094574278e-06
3.281674122194571e-06
3.288826904655288e-06
3.29183188415423e-06
3.286918801459548e-06
3.289988752217264e-06
3.28932665410869e-06
3.279834046789786e-06
3.28606035355946e-06
2.05759142356453e-05
2.054845118813564e-05
2.18481116219906e-05
2.19583536571026e-05
2.193591621308989e-05
2.065944613154589e-05
2.048260845960457e-05
2.047496934571244e-05
2.046422578895122e-05
2.049012091073236e-05
2.046909865980406e-05
2.048508107372447e-05
2.048567093882732e-05
2.052025739627338e-05
2.05175248271413e-05
2.052164698199967e-05
2.051600607110402e-05
2.05179194974978e-05
2.047846012647034e-05
2.046896185304771e-05
2.047177675658289e-05
2.044829432247267e-05
2.049248069461219e-05
2.050494653859168e-05
2.048007816734474e-05
2.051658679089335e-05
2.051151221684077e-05
2.047712513487617e-05
2.050654982582756e-05
2.050201696481253e-05
2.049711856614613e-05
2.04872527855827e-05
2.046726462854559e-05
2.050851705904801e-05
2.049717834448325e-05
2.048535675127888e-05
2.050442768895763e-05
2.05266909096685e-05
2.051128413839806e-05
2.050111054468068e-05
2.04744564625516e-05
2.051448381169731e-05
2.184553603893598e-05
2.195705778027242e-05
2.072660317625279e-05
2.181317565463583e-05
2.071019023661838e-05
2.185917231534924e-05
2.195870059130149e-05
2.193549057113929e-05
2.195890818803159e-05
2.199498155152775e-05
2.195041188514601e-05
2.194842844943359e-05
2.19442585817485e-05
2.066104158992451e-05
2.050585598262475e-05
2.053817678996774e-05
2.048981128687372e-05
2.050387308828787e-05
2.052087788569589e-05
2.04714258043994e-05
2.048910210556815e-05
2.05157192282944e-05
2.046670074315622e-05
2.047387583618288e-05
7.647918702601259e-05
7.645112126625571e-05
7.757165815219124e-05
7.772688062016115e-05
7.76971830862136e-05
7.658130549918218e-05
7.639912524718845e-05
7.635935192168445e-05
7.637317705503031e-05
7.637188182685027e-05
7.636484223951468e-05
7.636611895434135e-05
7.632121830783271e-05
7.641268984478518e-05
7.644642322230837e-05
7.643424144077663e-05
7.642608762688083e-05
7.642475838678803e-05
7.635737440636697e-05
7.634182950081089e-05
7.637009816566864e-05
7.633312931806098e-05
7.632376968215056e-05
7.633111703463387e-05
7.632176478397002e-05
7.64192804094204e-05
7.642488716308891e-05
7.634163363659771e-05
7.637983842556478e-05
7.636646926534402e-05
7.638089055522438e-05
7.637180393693522e-05
7.632930655702813e-05
7.638629779358608e-05
7.640550268361874e-05
7.639026426323166e-05
7.641777016055273e-05
7.64428899494247e-05
7.64186510202613e-05
7.640472512301752e-05
7.633640080413249e-05
7.639624037154281e-05
7.756744276747192e-05
7.772595662015797e-05
7.666602197771178e-05
7.752935596475815e-05
7.664146790853313e-05
7.759170544916285e-05
7.772745040677288e-05
7.77037549622467e-05
7.77353307983163e-05
7.781245081124175e-05
7.773096280115597e-05
7.775114295478297e-05
7.773349034123049e-05
7.658436737221564e-05
7.639820844946604e-05
7.642818774720267e-05
7.638035671123165e-05
7.641057308067288e-05
7.642992589791292e-05
7.638619949036425e-05
7.641365931689575e-05
7.642045983784589e-05
7.639782664032853e-05
7.637682515949931e-05
0.0002184068774561637
0.0002183709163495021
0.0002189821977975454
0.0002191100129950104
0.0002190891521086085
0.000218471144949692
0.0002183656927925677
0.0002183009550659935
0.0002182991666680002
0.0002183325297918235
0.0002183096839630505
0.000218284371125331
0.0002182336690133909
0.0002183332593458926
0.0002183954528720301
0.0002183855405383327
0.0002183889827791908
0.000218376857997735
0.0002183115001042993
0.000218246392221011
0.0002182916599396087
0.0002182874424651238
0.0002182356715831745
0.0002182749675584551
0.0002183146877279058
0.0002183913755260822
0.000218380431006182
0.0002182700703488315
0.0002182881566065311
0.0002182934801182576
0.0002182894343583303
0.0002182678319071585
0.0002183001796593992
0.0002183244749430662
0.0002183426794065243
0.0002183480570196665
0.0002183301971497395
0.0002183487159477813
0.0002183742577391385
0.0002183728079905355
0.0002182790501877186
0.000218312964682499
0.0002189755565141764
0.0002191109519196988
0.0002185355180551521
0.0002189597951569865
0.0002185126805080548
0.0002190044153565532
0.0002191100240860407
0.0002191254953340609
0.0002191335947828413
0.0002191946792146497
0.0002191221053034152
0.0002191394597516764
0.0002191348581559941
0.0002184720956607767
0.0002183328400246126
0.0002183226330312571
0.0002182958393825733
0.0002183617670691459
0.0002183795050406485
0.0002183511859983149
0.0002183799510676325
0.0002183716943750861
0.000218370966701199
0.0002183479368522184
0.000578648934843145
0.00057855198768883
0.0005787641795399063
0.0005788347376185936
0.0005788255863108261
0.0005786319135558765
0.0005785737447350877
0.0005785642395201786
0.0005785307136659758
0.0005785333384042577
0.0005785649672029236
0.0005785252053726287
0.0005785088170168165
0.000578528440073855
0.0005785831936429001
0.0005785893012993874
0.0005785835183318545
0.0005785697651898362
0.0005785479796529355
0.0005785370193355526
0.0005785160323184172
0.0005785265675873091
0.0005785176593898694
0.0005785436382280833
0.0005785181788687511
0.0005785824163432646
0.0005786098089784998
0.0005784927525403265
0.0005784946524215079
0.0005785378467551639
0.0005785254088752879
0.0005785072878870027
0.0005785354917108825
0.0005785526575470369
0.0005785801346224446
0.0005785798667687548
0.0005785583107064349
0.0005785724611801686
0.000578595131368663
0.0005786025127027474
0.0005785313562601187
0.000578523439020619
0.0005787534089529046
0.0005788321772877025
0.0005786514630187905
0.0005787671190635534
0.0005786397378034901
0.0005787819584168987
0.0005788327090712845
0.0005788285000589821
0.0005788819642645424
0.0005789022682158513
0.0005788341450461949
0.0005788471381449708
0.0005788397139560723
0.0005786257503143091
0.0005785520474609131
0.000578565521469305
0.0005785107795000615
0.0005785557063721758
0.0005785717592918523
0.0005785887152453881
0.0005786105846965555
0.0005785943130096323
0.000578540105208629
0.0005785840478326498
0.001306164606550256
0.001306103846778568
0.00130613634096324
0.001306146423802746
0.001306144966217262
0.001306125162394698
0.001306120978517213
0.001306104643090347
0.00130610310975924
0.001306117133566809
0.001306100065886468
0.001306107014820427
0.001306106442156458
0.001306083407624052
0.001306093367739775
0.001306123084976979
0.001306097397497594
0.001306107911116087
0.001306098464097435
0.001306097694926131
0.001306094508644128
0.001306105702715114
0.001306085119041511
0.001306110980569274
0.001306092965462848
0.001306104919749881
0.001306122132462248
0.001306094784918332
0.00130608868575469
0.001306092495554734
0.001306112980723791
0.001306073672227518
0.00130608699209743
0.001306106952787329
0.001306104922715143
0.001306127484857072
0.001306092718288155
0.001306098582828701
0.001306120003823693
0.001306115009428135
0.001306097704179908
0.00130609248699642
0.001306119309230711
0.001306136381902725
0.001306118863052841
0.001306131436630999
0.001306120594529049
0.001306139058253159
0.001306149323485223
0.001306143412111617
0.001306147517220014
0.001306174992170689
0.001306152176347082
0.00130614321951723
0.001306128243460869
0.001306118820381699
0.001306102942292908
0.001306109532166582
0.001306091590138795
0.001306102313897555
0.00130610905443517
0.001306139833979043
0.001306116963444316
0.00130611573634835
0.001306109729713229
0.001306125102209245
0.002261633449299707
0.00226162189710649
0.002261621946691857
0.002261620674714799
0.002261618757939714
0.002261620254198905
0.00226162088082448
0.002261617591351342
0.002261618018180185
0.002261616832234321
0.002261618045731662
0.002261624900647822
0.002261625299563176
0.002261608696874816
0.002261606977314023
0.00226161338247405
0.002261610570134849
0.002261613991948365
0.002261618431939468
0.002261612107672406
0.002261613132826583
0.002261614766304634
0.002261617015185846
0.002261621899461475
0.002261622316557979
0.002261624428256036
0.002261623597632174
0.002261622905690921
0.002261617321771356
0.002261617138439168
0.00226161992307086
0.002261605710328209
0.002261607640378371
0.002261614936357917
0.002261610406666002
0.002261612104085369
0.002261604318906619
0.00226160593570628
0.002261613416380303
0.002261612405543997
0.002261611506649058
0.002261608260163234
0.002261607751083393
0.002261609150866269
0.002261611456029885
0.002261613295157266
0.002261614837274248
0.002261618799870476
0.002261615381238255
0.002261615536202446
0.002261616331367048
0.002261623427939329
0.002261620624539119
0.002261617997639552
0.002261612387727356
0.002261617583452046
0.002261619088983739
0.002261621522774718
0.002261615302632943
0.002261618123342444
0.00226162012395339
0.00226162985194254
0.002261629224377213
0.002261623098513381
0.002261627090594324
0.002261626389100157
0.00317110662002365
0.003171104108756396
0.003171103734156628
0.003171102649078054
0.003171102411090742
0.003171102972107928
0.003171103892332201
0.003171101789689588
0.003171101120753125
0.003171101555251897
0.003171102597511183
0.003171106481024792
0.00317110769686583
0.003171101453187833
0.003171097691409041
0.00317109907096003
0.00317109868107696
0.003171100585966521
0.003171102776227674
0.003171101202251824
0.003171101442843624
0.003171101538724686
0.003171104061911127
0.003171107087011306
0.003171109376717658
0.003171111224555994
0.00317111017866076
0.003171109068495833
0.003171107612367156
0.003171105044060692
0.003171103290315204
0.003171096996029809
0.00317109654250238
0.003171097070124011
0.003171094419569735
0.003171093059336454
0.003171090306374426
0.003171089823414196
0.003171091615037262
0.003171092373364887
0.003171092782494657
0.00317109478721972
0.003171096535978535
0.003171097540455827
0.003171099194457313
0.003171100071702511
0.003171100247494501
0.003171100869397133
0.003171100210347727
0.00317109970743619
0.003171100695807393
0.003171100613482133
0.00317110083733704
0.003171100311811442
0.003171101031396248
0.003171101889079059
0.003171102101591694
0.003171102823815932
0.003171103652173237
0.003171104525736394
0.003171105044240259
0.003171107318130129
0.003171108250317117
0.003171106322604055
0.003171107687358952
0.003171107428326407
0.003908938697624838
0.00390893712999788
0.00390893645897624
0.003908936282316871
0.003908936365033764
0.00390893664274744
0.003908937019941414
0.003908936085358527
0.003908935372692264
0.003908935392574824
0.003908935932559096
0.003908938319860128
0.003908939481391463
0.003908937965164927
0.003908935615760827
0.003908935786458021
0.003908935692358674
0.003908936434343753
0.003908937448945358
0.00390893691094261
0.003908936519428929
0.003908936579436968
0.003908938179296139
0.003908940285067069
0.003908942013452428
0.003908943794730322
0.003908943446147167
0.003908942398403321
0.003908941635689844
0.003908939433840846
0.003908936927388761
0.003908932849327822
0.00390893154743041
0.003908931260931669
0.003908929830216648
0.003908928282188057
0.0039089263559659
0.003908925785981402
0.003908925895537417
0.00390892652434173
0.003908927109841006
0.00390892965167779
0.003908932835300716
0.003908935003018437
0.003908936371595384
0.003908936649542587
0.003908936630293242
0.003908936240867603
0.003908935607681694
0.00390893441346701
0.003908934611017978
0.003908933871089057
0.003908933602773237
0.003908933352904699
0.00390893422613546
0.003908934731419214
0.003908934436188739
0.003908934757733968
0.003908936228950529
0.003908937388170145
0.003908937907690801
0.003908938822660282
0.003908939482706032
0.003908939108836285
0.00390893967516315
0.003908939943359301
0.004474701883431188
0.004474700730474905
0.004474700201297248
0.004474699945736453
0.00447470004846169
0.004474700211515244
0.00447470027994433
0.004474699771688691
0.004474699210873607
0.00447469907378225
0.004474699251960441
0.004474700464804098
0.00447470154677657
0.004474701386992345
0.00447470037361695
0.004474700344178874
0.004474700300161393
0.004474700647766
0.0044747010972807
0.004474700921212154
0.004474700425000285
0.004474700445315597
0.004474701247796082
0.004474702680680445
0.004474703831057853
0.00447470518445436
0.004474705118488208
0.004474704302274989
0.004474703850264623
0.004474702208469019
0.004474700048419226
0.004474697311814453
0.004474695736356534
0.004474695283517884
0.004474694429040785
0.004474693350463712
0.004474691943882729
0.004474691390433294
0.004474691276413519
0.004474691630534343
0.004474692288434245
0.004474694416142923
0.004474697343200951
0.004474699629021374
0.004474701008269973
0.004474701255283636
0.00447470118212713
0.004474700741500147
0.004474699990888001
0.004474698599995508
0.004474698350380463
0.004474697140659826
0.004474696585608357
0.004474696193747184
0.004474696497901962
0.004474696808939635
0.004474696612507475
0.004474696831617917
0.004474697968569462
0.004474699328428318
0.004474700044416856
0.004474700797992545
0.004474701353891075
0.004474701531244111
0.004474702034118787
0.004474702517778966
0.004899821947439417
0.00489982132868591
0.004899820973917088
0.004899820706321827
0.004899820751901301
0.004899820757987493
0.004899820710301188
0.004899820306814915
0.004899819764391303
0.004899819536360443
0.004899819574500507
0.004899820048012057
0.004899820836558974
0.004899820965764953
0.004899820673934621
0.004899820648318241
0.004899820673522833
0.004899820880707647
0.004899821115090471
0.004899821058322972
0.004899820702613101
0.004899820714568196
0.004899821093544551
0.004899821997301642
0.004899822710021219
0.004899823610367132
0.004899823611696317
0.004899823002891256
0.004899822691027532
0.004899821530277518
0.004899819947241156
0.004899818187095573
0.00489981677488804
0.004899816298060486
0.00489981565106734
0.004899814967866675
0.004899813979377745
0.004899813544743646
0.004899813457321931
0.004899813683533858
0.004899814389358065
0.004899815972628777
0.004899818238755839
0.004899820188695569
0.004899821447960879
0.004899821748052218
0.004899821721142531
0.004899821388614158
0.004899820730889864
0.004899819434946362
0.004899818924380137
0.004899817574516599
0.004899816855800958
0.004899816255448572
0.004899816379189275
0.004899816370380941
0.004899816255973536
0.004899816439202479
0.004899817259921006
0.00489981854168097
0.004899819323113532
0.004899820165789724
0.004899820680908205
0.004899821086262436
0.004899821642352425
0.004899822160318304
0.005211900820968804
0.005211900587844244
0.005211900381170692
0.005211900213916975
0.005211900196136781
0.005211900135165129
0.005211900028760519
0.005211899628720843
0.005211899084361316
0.005211898774736198
0.005211898725993356
0.005211898838372971
0.005211899212456513
0.005211899424799345
0.005211899357962516
0.005211899385277572
0.00521189944827473
0.005211899605939619
0.005211899770051865
0.005211899762002146
0.005211899577196984
0.005211899594673843
0.00521189978233606
0.005211900314890226
0.005211900714310127
0.00521190124529948
0.005211901235893729
0.005211900792060555
0.005211900545511138
0.005211899725879402
0.00521189866493571
0.005211897588651791
0.005211896502550314
0.005211896092575382
0.005211895553020988
0.005211895131455486
0.005211894458534311
0.005211894181424725
0.00521189416705928
0.005211894330818042
0.00521189501872234
0.005211896154953131
0.005211897796637754
0.005211899300569735
0.005211900315481904
0.00521190062740057
0.005211900646739702
0.005211900431314604
0.005211899929123609
0.005211898838452759
0.005211898227080443
0.00521189696329743
0.005211896217347953
0.005211895525511562
0.005211895437792576
0.00521189535794827
0.005211895271282387
0.005211895419108091
0.005211896023682233
0.005211897124905513
0.005211897873077513
0.005211898752842582
0.005211899259191214
0.005211899812517353
0.00521190033115258
0.005211900822970107
0.005431120261109158
0.005431120201635912
0.005431120131419901
0.005431120064652163
0.005431120045626088
0.005431119984148809
0.005431119814797269
0.005431119394642874
0.005431118880830805
0.005431118515413779
0.005431118366167611
0.005431118342070558
0.005431118412198292
0.005431118527539126
0.005431118535789918
0.005431118601802285
0.005431118681242265
0.005431118816109046
0.005431118948264583
0.005431118966763768
0.005431118901226546
0.00543111892900276
0.005431119036112094
0.005431119327657604
0.0054311195177977
0.005431119773868242
0.005431119732144466
0.005431119410262111
0.005431119203474079
0.005431118620366989
0.005431117948327935
0.005431117318030284
0.005431116557067509
0.005431116252066945
0.005431115809869495
0.005431115565173253
0.005431115145227771
0.005431114987174477
0.005431115062577285
0.00543111520609832
0.005431115837260524
0.005431116644946369
0.005431117791482063
0.005431118870915806
0.005431119613132996
0.005431119876036635
0.005431119913829969
0.00543111977443627
0.005431119409739065
0.005431118532348781
0.005431117940745937
0.00543111682781568
0.005431116166520009
0.005431115488551789
0.005431115314461123
0.005431115171503071
0.00543111511608048
0.005431115265384689
0.005431115723025967
0.005431116638893799
0.005431117314064395
0.005431118153246405
0.005431118665912379
0.005431119261995999
0.005431119751621635
0.005431120153102298
0.005572715800163055
0.005572715847997239
0.005572715794639543
0.005572715786704356
0.005572715797004388
0.005572715747442367
0.005572715528366953
0.005572715131743749
0.005572714668610723
0.005572714291460714
0.005572714071448354
0.005572713914378077
0.005572713877576815
0.005572713878734929
0.005572713877752991
0.005572713951832154
0.005572714026942482
0.005572714147407574
0.005572714250361096
0.005572714305462874
0.005572714277160135
0.005572714320338934
0.005572714391530289
0.005572714533698173
0.005572714580245198
0.005572714658738429
0.005572714583642991
0.005572714343809188
0.005572714166902686
0.00557271375197592
0.005572713343256295
0.005572712985929994
0.005572712492432336
0.005572712284565867
0.005572711941951042
0.005572711822309391
0.005572711613019248
0.005572711553873258
0.005572711698757603
0.005572711847725942
0.005572712405266045
0.005572712975034486
0.005572713754781592
0.005572714475502233
0.005572714965743524
0.005572715141793857
0.005572715175493996
0.005572715067420555
0.005572714789870405
0.0055727140954823
0.005572713585587407
0.00557271263801731
0.005572712114249689
0.005572711525811811
0.005572711342131785
0.005572711182843967
0.005572711156343802
0.005572711326928719
0.00557271168898768
0.005572712442647013
0.005572713033272095
0.005572713790843319
0.005572714297574333
0.005572714875105823
0.005572715332079313
0.005572715639283532
0.005649034816596339
0.005649034913064758
0.005649034894354189
0.005649034897645853
0.005649034926693394
0.005649034884989937
0.005649034655291069
0.005649034303512861
0.005649033896901482
0.005649033538916899
0.005649033290996884
0.005649033046628089
0.005649032912850401
0.00564903285532312
0.005649032842836329
0.005649032902197863
0.005649032963577133
0.005649033070197799
0.005649033139261048
0.00564903321939413
0.005649033205532439
0.005649033254650106
0.005649033299565006
0.005649033342038047
0.005649033307240572
0.005649033276231278
0.005649033157511998
0.005649032981256759
0.005649032822022906
0.005649032547983495
0.00564903230636279
0.005649032104854618
0.005649031815126149
0.005649031666742445
0.005649031427536633
0.005649031404959481
0.005649031348856322
0.005649031370333391
0.005649031590557928
0.005649031748031447
0.005649032227742911
0.005649032624551721
0.005649033127398475
0.005649033563491104
0.005649033830384634
0.00564903392050423
0.0056490339376899
0.005649033827135717
0.005649033592156277
0.005649033040938728
0.005649032627189541
0.005649031847996085
0.005649031466777274
0.005649031006902294
0.005649030859079415
0.005649030717858985
0.005649030724520518
0.005649030926375118
0.005649031227586059
0.005649031852620221
0.005649032360121395
0.005649033022222814
0.005649033499185526
0.005649034027362263
0.005649034431722642
0.005649034659069447
0.005670885295223606
0.005670885399512641
0.00567088543016068
0.005670885420898105
0.005670885436620107
0.005670885403228486
0.005670885190680297
0.005670884888343064
0.00567088454421723
0.005670884228763795
0.0056708839818171
0.005670883712322536
0.005670883526472114
0.005670883409083518
0.005670883382621331
0.005670883425495284
0.005670883465113181
0.005670883552543133
0.005670883596684424
0.005670883671053339
0.005670883676294525
0.00567088371572465
0.005670883733990383
0.005670883730493453
0.005670883652552347
0.005670883545959827
0.005670883406093661
0.005670883272101984
0.005670883126449359
0.005670882956650833
0.005670882813354225
0.00567088269865181
0.00567088255234937
0.005670882442836906
0.005670882305358207
0.005670882359050175
0.005670882378511948
0.005670882484743745
0.005670882761506238
0.005670882924661372
0.005670883328559194
0.005670883598750142
0.005670883896745873
0.005670884114297688
0.00567088422204569
0.005670884237221753
0.005670884213276188
0.0056708840642635
0.005670883845073547
0.00567088340101463
0.005670883073746674
0.005670882456958734
0.005670882198059889
0.005670881876537562
0.00567088178438954
0.005670881682122858
0.005670881723732145
0.005670881958389847
0.005670882225032273
0.005670882752343141
0.00567088318205705
0.005670883753761944
0.005670884185439521
0.00567088465515782
0.005670884992636577
0.005670885159992569
0.005648534367072342
0.005648534464164026
0.005648534505544825
0.005648534500555945
0.005648534514840299
0.005648534484772407
0.005648534297303543
0.005648534050369002
0.005648533772863875
0.005648533513262641
0.0056485332882952
0.005648533030881815
0.005648532833597815
0.005648532683959714
0.005648532635803082
0.005648532655689141
0.005648532668180195
0.005648532731879551
0.005648532757138111
0.005648532820892837
0.005648532829042326
0.005648532851595816
0.005648532856595381
0.005648532826050844
0.005648532726632232
0.005648532580727051
0.005648532442091451
0.005648532328189409
0.005648532196103763
0.005648532090238182
0.005648532004571914
0.005648531939675741
0.005648531883775228
0.005648531805380831
0.005648531745137764
0.005648531833398366
0.005648531941257846
0.005648532110964209
0.005648532397477429
0.005648532571196218
0.005648532902767244
0.005648533078248993
0.005648533216085795
0.005648533278971656
0.005648533297237861
0.005648533241387049
0.005648533153081469
0.005648532960133726
0.005648532748477914
0.005648532382624801
0.005648532117926723
0.00564853165473799
0.005648531488700164
0.005648531295062162
0.00564853124427177
0.005648531203918711
0.005648531278628874
0.005648531535269546
0.005648531783638607
0.005648532233846908
0.005648532593138829
0.005648533082123547
0.005648533460501693
0.005648533870941592
0.005648534135909461
0.005648534254319148
0.005592631150534854
0.005592631239577667
0.005592631284225848
0.005592631282185674
0.005592631298266309
0.005592631274540636
0.005592631119435037
0.005592630929564795
0.00559263071833838
0.005592630523343838
0.005592630340133838
0.005592630116515468
0.005592629942122403
0.005592629782768345
0.005592629723115217
0.005592629702531505
0.005592629697192799
0.005592629738276835
0.00559262974732237
0.005592629790689558
0.005592629792062091
0.005592629805911452
0.005592629799427131
0.005592629745657537
0.005592629641928182
0.005592629475218544
0.005592629346139742
0.005592629241261124
0.005592629121737605
0.005592629051140875
0.005592628999856296
0.005592628968371847
0.005592628952172596
0.005592628899957991
0.005592628901243547
0.005592629008746936
0.005592629172399884
0.005592629379338169
0.005592629653052103
0.005592629843865256
0.005592630102956929
0.005592630211826208
0.00559263024726551
0.00559263023978184
0.005592630197646769
0.005592630044303546
0.005592629902207645
0.0055926296713289
0.005592629462565428
0.005592629150518103
0.005592628930474275
0.00559262860412798
0.005592628514201785
0.005592628400790774
0.005592628394098915
0.005592628382909054
0.005592628506995819
0.005592628768238938
0.005592629007222422
0.005592629395483082
0.005592629687918307
0.005592630107941903
0.005592630428972503
0.005592630781745927
0.005592630976755539
0.005592631051989344
0.005515359127408744
0.005515359208600971
0.005515359257363247
0.005515359260126162
0.00551535928787721
0.005515359273862779
0.005515359155345709
0.00551535902790668
0.005515358881618219
0.005515358753301671
0.005515358622454
0.00551535844301421
0.005515358314373431
0.005515358160643892
0.005515358098700613
0.005515358065452361
0.005515358030654228
0.005515358052935996
0.005515358036811635
0.005515358066800227
0.005515358060843605
0.005515358065714969
0.005515358048547088
0.005515357969597452
0.005515357869998879
0.005515357693365822
0.005515357575221718
0.005515357475181187
0.005515357363014659
0.005515357311955827
0.005515357290342292
0.005515357262106627
0.005515357271528611
0.005515357253134452
0.005515357296308711
0.005515357394407267
0.005515357576773004
0.005515357798526872
0.005515358042148455
0.005515358256149862
0.00551535845422994
0.005515358510353035
0.005515358513207848
0.005515358459884562
0.005515358366671891
0.005515358138258616
0.005515357969782349
0.005515357706614336
0.005515357504427699
0.005515357232369659
0.005515357041152
0.00551535682903018
0.005515356767751388
0.005515356723584478
0.005515356718041504
0.005515356755847491
0.005515356908007902
0.005515357139555098
0.005515357363546467
0.005515357697144715
0.005515357923232329
0.005515358287977311
0.005515358553078605
0.00551535884893487
0.00551535899530206
0.005515359039153809
0.005432777269314238
0.005432777347972258
0.005432777420031135
0.005432777447746275
0.005432777487325353
0.005432777496881347
0.005432777429084549
0.005432777376834894
0.005432777292961885
0.005432777221495768
0.005432777136524639
0.005432776995180861
0.005432776922899923
0.005432776782646803
0.005432776734057341
0.005432776699359458
0.005432776649608606
0.005432776659973593
0.005432776640314648
0.00543277665653012
0.005432776650991219
0.005432776640359481
0.005432776608102218
0.005432776499519053
0.005432776412499685
0.005432776231088149
0.005432776124078236
0.005432776031430222
0.005432775919871595
0.005432775879517983
0.005432775883461049
0.005432775867031625
0.005432775897679642
0.005432775867429665
0.005432775956639564
0.005432775991321218
0.005432776164233665
0.005432776398858384
0.005432776591459371
0.005432776840135586
0.005432776967158403
0.005432777015941525
0.0054327769982582
0.005432776895239882
0.005432776793964972
0.005432776522858626
0.005432776364039152
0.00543277608984149
0.005432775915886017
0.005432775686617312
0.005432775510554384
0.005432775395423799
0.005432775303506252
0.005432775293581587
0.005432775258928435
0.005432775330370555
0.00543277546369313