/*--------------------------------*- C++ -*----------------------------------*\
| =========                 |                                                 |
| \\      /  F ield         | OpenFOAM: The Open Source CFD Toolbox           |
|  \\    /   O peration     | Version:  v1812                                 |
|   \\  /    A nd           | Web:      www.OpenFOAM.com                      |
|    \\/     M anipulation  |                                                 |
\*---------------------------------------------------------------------------*/
FoamFile
{
    version     2.0;
    format      ascii;
    class       volScalarField;
    location    "3000";
    object      nuTilda;
}
// * * * * * * * * * * * * * * * * * * * * * * * * * * * * * * * * * * * * * //

dimensions      [0 2 -1 0 0 0 0];


internalField   nonuniform List<scalar> 
2838
(
0.0005024245691184456
0.0005024904488202093
0.0004985917933266505
0.0004984793997887501
0.0004985087168557229
0.0005024142056456916
0.0005025713705821481
0.0005025791243873822
0.000502545135038189
0.0005025320578286999
0.0005025441460313706
0.0005025453717943737
0.0005025481523887164
0.0005025450747821515
0.0005025364280714706
0.0005025005564012911
0.0005025412671370951
0.0005025150096657208
0.0005025387342443071
0.0005025233519891875
0.0005025098614097037
0.0005025252954716731
0.0005025136783242174
0.0005025589221567431
0.00050256341706925
0.0005025383490959239
0.0005025176017167243
0.0005025235820786454
0.0005025475873614271
0.0005025113771945649
0.000502571926589222
0.0005025613150583753
0.0005025472743419666
0.0005025117686468669
0.0005025087665839132
0.0005025398512014124
0.0005025082057139835
0.0005025053194676239
0.0005025052679555655
0.0005025671168747661
0.0005025553444165139
0.0005025115268963296
0.0004985912691148779
0.00049847839415548
0.0005023225915057829
0.0004986701806216632
0.0005023307554293874
0.0004985857325846239
0.0004984793449278515
0.0004985104799850019
0.0004984681303981178
0.0004984476642698147
0.0004984369676959695
0.0004984648162528847
0.0004984969353795851
0.0005024125181157901
0.0005025239793546629
0.0005024923170964009
0.0005025259300139014
0.0005025485899000925
0.0005025112828012724
0.0005025007497994094
0.0005024872970876552
0.0005025142699761875
0.0005025386620783379
0.0005025394974043378
0.0005121570349543021
0.0005126340840275566
0.0004640708864898332
0.0004624697819779545
0.0004628151685816413
0.0005107547158555369
0.000513829575856611
0.0005139426621793941
0.00051357426022201
0.0005131584948530474
0.0005133348186318925
0.0005136147815292616
0.0005137281671561913
0.0005135976584056392
0.0005134715064868528
0.000512993155190335
0.0005132431131731841
0.0005131247974077243
0.0005135115524222142
0.000513359820621089
0.0005129860201260147
0.0005131018247554008
0.0005131298343606938
0.000513532542089138
0.0005138340441099833
0.0005136116300587587
0.0005130479126896475
0.0005130914136278546
0.000513439056064087
0.0005132634864526492
0.0005138705515668858
0.0005140025165541502
0.0005134460916455245
0.0005129742416282026
0.0005131603678636313
0.0005133994816287991
0.0005133545266561804
0.000513110531338464
0.0005128715739746561
0.000513776981810017
0.0005137476203452228
0.0005129651173468772
0.0004640544784585678
0.0004624932652270684
0.0005095323173391292
0.0004647008635689288
0.0005097157824257533
0.0004639606989471606
0.0004624678529917662
0.0004628139997757366
0.0004622736889373196
0.0004620707807896156
0.00046192741500523
0.0004623423261080228
0.0004627627985692726
0.0005107366716512929
0.0005133103528343412
0.0005127403454838982
0.000513107462972385
0.0005135303029847397
0.0005131351153666641
0.000512844724116995
0.0005128468023403767
0.0005129809063855494
0.0005133027983836301
0.0005133346350336676
0.0007733160342078482
0.000773854589665619
0.000750020633103079
0.0007473085212818657
0.000747874341282756
0.0007722236949262208
0.0007748129611867223
0.0007745083159741745
0.0007745116839647235
0.0007742645134936654
0.0007744320135986246
0.0007749107208125973
0.0007747574890941247
0.000774439894618583
0.0007743790128939977
0.000774115444873361
0.0007741739861948719
0.0007741338994719891
0.0007748502607654017
0.000774599908491856
0.0007742009691817599
0.0007743652720218659
0.0007746048968989183
0.0007745368816690764
0.000774402937795856
0.0007748686550585802
0.0007744857664273623
0.0007742144785746441
0.0007742407878240668
0.0007746709982180343
0.0007752502305351956
0.0007754387138063348
0.0007747269483449321
0.0007741320569015088
0.0007747413834041599
0.0007746212916111817
0.0007747793290353677
0.0007750447786165698
0.0007744166853777785
0.0007749612280116887
0.0007747780863307043
0.0007741535633703964
0.0007499933296847978
0.0007473579835951435
0.000771182835922234
0.0007508351128479372
0.0007714478313758413
0.0007497702800451746
0.0007472987423005875
0.000747893160022872
0.0007469765617878315
0.0007468365881773002
0.0007469425491614224
0.0007470466005394744
0.0007476679127242662
0.0007721892996585149
0.0007744826812743649
0.0007739784873003978
0.0007741964769260085
0.0007745420787486112
0.0007742775215734971
0.0007741551738984576
0.000774458672885494
0.000774310619129808
0.0007744415429918499
0.0007743912179416375
0.001067055092163845
0.001067393056929291
0.001058877352619124
0.001057483067786886
0.00105776837118278
0.001066514331107323
0.00106819353184185
0.00106785728145512
0.001067929800062362
0.001067746587661953
0.001067918654433716
0.001068245722558719
0.001067907839287109
0.001067896013131458
0.001068068178158094
0.001067745154802006
0.001067638272086498
0.001067579107544155
0.001068058347400512
0.001067850606420746
0.001067586469867869
0.001067910451498342
0.001067838236470556
0.001067702790874869
0.001067705180471405
0.00106808436328318
0.001067834266761948
0.001067593283285221
0.001067567531198129
0.001067955858542641
0.001068202140820471
0.00106829351442219
0.001067968474416287
0.001067617973867573
0.001068009773526547
0.001067878256629232
0.001067974435066915
0.001068217117163436
0.001067795295463993
0.001068081479206742
0.001067933815269481
0.001067593903406751
0.001058853602172069
0.001057516766915258
0.001065948964162252
0.001059263545787145
0.001066128892129909
0.001058720494648284
0.001057476095206365
0.001057792768270688
0.001057240464207238
0.001057266515536869
0.0010574713296156
0.001057526315635759
0.001057727265865588
0.001066504541957858
0.001067772630588388
0.001067484574363843
0.001067574328519958
0.001067859292142809
0.001067702498487753
0.001067599264329817
0.001067887104643655
0.001067730053731845
0.001067934959780558
0.001067816051295767
0.001413038886659194
0.001413168106547387
0.001410661784404375
0.001410069234612212
0.001410180603889264
0.001412784174173989
0.001413595178089322
0.001413409722595798
0.001413371455066972
0.00141331595525588
0.001413419906316511
0.00141360485981433
0.001413395245526217
0.001413419239270347
0.001413590229050207
0.001413484910499065
0.001413445499500431
0.001413336669775416
0.001413491525608101
0.001413373596066805
0.001413227996101614
0.001413414400565545
0.00141336033319722
0.001413358293155251
0.001413431046134425
0.001413601187428142
0.001413426494132057
0.001413237933787392
0.001413215818699232
0.001413421733308133
0.001413586457271122
0.001413510583493009
0.001413463935443685
0.001413411752596363
0.001413506981651517
0.001413386191819863
0.001413372225427605
0.001413461832822276
0.001413350963387797
0.001413476842448382
0.001413393996772688
0.001413266407615042
0.001410652632940859
0.00141008734944718
0.001412571319397675
0.001410788745801688
0.001412666789501488
0.001410587243132068
0.001410064903952538
0.001410213387730915
0.00140997246206621
0.001410010028293429
0.001410116727183576
0.001410147249179328
0.001410206961790267
0.001412788279131203
0.001413346881312427
0.001413213616905842
0.001413225178624581
0.001413416972974266
0.0014133733007924
0.001413288365045296
0.001413453138916872
0.001413384075518138
0.001413448881153398
0.001413399350281706
0.001891690573448454
0.001891669555625776
0.001891121143878958
0.001890888559461694
0.001890917323256335
0.001891509460604878
0.001891806606812924
0.001891759828172416
0.001891716120538822
0.001891731328077836
0.001891750152667541
0.001891767729504616
0.001891758294322162
0.001891710305987604
0.001891799646400921
0.001891816880577351
0.001891770148492095
0.001891737923201203
0.001891754990239148
0.001891754363352161
0.001891705460199655
0.00189172908983659
0.001891719357795236
0.001891731972727959
0.001891727470851367
0.001891774431802187
0.001891797872741205
0.001891685357534919
0.001891644304393625
0.001891760890933844
0.001891766227813862
0.001891777542064398
0.001891732641131766
0.001891753172414409
0.001891793466100507
0.001891781189756037
0.001891726079177062
0.00189178828826435
0.001891747470024211
0.001891780299289907
0.001891727713055345
0.001891715649079742
0.001891121348380416
0.00189089270939691
0.00189146386720543
0.001891123390704023
0.00189151106500617
0.00189109356360751
0.001890885000882747
0.001890925485293393
0.001890914864369312
0.001890885246497002
0.001890909765835876
0.001890923726733999
0.001890933093396991
0.001891511051923897
0.001891732525693116
0.001891704066914972
0.001891675936965751
0.001891715819958521
0.001891742284033296
0.001891782279620101
0.001891792222496884
0.001891779301027511
0.001891755408004915
0.001891748139645879
0.002535693498729666
0.002535672865009856
0.002535589582290081
0.002535533695808715
0.002535524377776491
0.002535619895507074
0.002535692702790372
0.002535690363153735
0.002535683620991884
0.002535689566925741
0.002535671317311754
0.002535696893247736
0.002535690469223931
0.002535668930574447
0.00253566823330725
0.002535705050468138
0.002535684136396488
0.002535679905481212
0.002535671617813443
0.002535676291671017
0.002535679146879395
0.002535680191221109
0.002535669513002115
0.002535680126714625
0.002535676614336645
0.00253567480910688
0.002535701993149498
0.00253566816906973
0.002535666166931802
0.002535664525192796
0.002535696972571229
0.002535676955689905
0.002535660428222849
0.002535696814755628
0.00253568057142295
0.002535703795503625
0.002535676923937399
0.002535674318153932
0.002535692545196241
0.002535689384718488
0.002535672631910767
0.002535676948168365
0.002535580796134182
0.002535518481251325
0.002535610273435592
0.002535572770010916
0.002535628351704806
0.002535578751972828
0.002535533415751275
0.002535520425638327
0.002535518922967848
0.002535528932564724
0.002535539685435151
0.002535528728586032
0.00253551392631196
0.002535618920348616
0.002535678142057917
0.002535677073363411
0.002535656952053451
0.00253567960298824
0.002535672516251693
0.002535710898037145
0.002535696967748231
0.002535692445860788
0.002535691271267662
0.002535689183070274
0.00326175371174513
0.003261749822750961
0.003261739735433292
0.003261730682028596
0.003261726618483535
0.003261738079421173
0.003261749012392479
0.003261748917979361
0.003261747294836323
0.003261747180703721
0.003261744891905144
0.003261754519914524
0.003261754245361541
0.003261743116254595
0.003261737662919684
0.003261746102158448
0.003261743178619042
0.003261742575696935
0.003261746904078918
0.003261743276299676
0.003261742602150291
0.003261743977192706
0.003261745785678027
0.003261749457322232
0.003261750277217641
0.003261751230674454
0.003261751478115701
0.003261751202797457
0.003261745808359284
0.003261745581071879
0.0032617489236656
0.003261741342767029
0.003261737576697673
0.00326174717762164
0.003261742656127104
0.003261744272170186
0.003261739167039887
0.003261736817479426
0.003261744646924444
0.003261743779575844
0.003261741605917403
0.003261740426333081
0.003261729473960306
0.003261719869487275
0.003261731140675066
0.003261729914323516
0.003261736278277343
0.003261734666059621
0.003261726732247287
0.003261723415458411
0.003261725253461396
0.003261728256618177
0.0032617305421906
0.00326172781212314
0.003261721106301785
0.003261736283475869
0.003261746768902929
0.003261748516048736
0.003261742754204329
0.003261747468879487
0.003261746002437942
0.003261757279301876
0.003261756525055491
0.003261752797355158
0.00326175450088574
0.003261753571017947
0.003956692606699085
0.003956691072520976
0.00395668974538798
0.003956688133048979
0.003956687735214039
0.003956688936218337
0.003956690710706356
0.003956689255963662
0.003956688564130656
0.00395668881776008
0.003956689036225345
0.003956692547657889
0.0039566938548387
0.003956689596568244
0.003956685898168842
0.003956686836912054
0.003956686553419631
0.00395668749525962
0.003956689623118301
0.003956688446130635
0.003956688316729767
0.003956688462031637
0.003956690129997787
0.003956692546105496
0.003956694461315586
0.003956696278659542
0.003956695578283278
0.003956694788051782
0.003956693494772688
0.003956691449855115
0.003956690700883143
0.00395668586489126
0.003956684821358384
0.003956685699045243
0.00395668367074793
0.003956682702854821
0.00395668056804802
0.003956679662516006
0.003956681003254442
0.00395668157313136
0.003956681665678083
0.003956683115739612
0.003956683624005137
0.003956683682942384
0.00395668570432243
0.003956686232337736
0.003956686781088509
0.003956686968177207
0.003956686148871471
0.003956685428610396
0.003956686410359611
0.003956686207616714
0.003956686744588514
0.003956686110011164
0.003956686490080731
0.003956688090141799
0.003956688957559743
0.003956689636593876
0.003956689933770137
0.003956690948878778
0.003956690989872433
0.003956693390186281
0.003956694389266819
0.003956693005778444
0.003956693771482635
0.003956693629325695
0.004547001078763941
0.004546999725336761
0.004546998979745035
0.004546998731122012
0.004546998901472239
0.004546999166770144
0.00454699955816187
0.004546998838569704
0.004546998174768582
0.004546998155922024
0.004546998418008647
0.004547000397845309
0.004547001559872695
0.004547000546947078
0.004546998411617292
0.004546998413951078
0.0045469983030974
0.004546998817905244
0.004546999758325059
0.004546999373977686
0.004546998956615691
0.004546998997993245
0.004547000148767388
0.004547001887079913
0.004547003360170422
0.004547005011048918
0.004547004857524087
0.004547004027326771
0.004547003400477534
0.004547001675081959
0.004546999832369034
0.00454699639694674
0.004546995112175383
0.004546994955007599
0.004546993835256274
0.004546992598383754
0.004546990936157564
0.004546990350764618
0.004546990360987008
0.004546990780745825
0.004546991112363574
0.004546993040459928
0.004546995564349598
0.004546997380277007
0.004546998700859322
0.00454699894481351
0.004546998992842779
0.004546998642964476
0.00454699823012192
0.004546997201936467
0.004546997445588031
0.004546996855120022
0.004546996663731268
0.004546996374660814
0.004546997083143623
0.004546997655825469
0.004546997376909218
0.004546997625717565
0.004546998647389007
0.004546999664050169
0.004547000074333175
0.004547000957790483
0.004547001633058991
0.00454700133208259
0.004547001707441259
0.004547002007121362
0.005018106940589686
0.005018105919733325
0.005018105385581252
0.005018105136713237
0.005018105302428254
0.005018105493016572
0.005018105513183982
0.005018105104431207
0.005018104586352539
0.005018104443522521
0.005018104547798889
0.005018105526583608
0.005018106543145466
0.005018106495723243
0.005018105581093726
0.005018105502978796
0.005018105436744093
0.005018105708108738
0.00501810612300648
0.005018106008525224
0.005018105549549628
0.005018105555987114
0.005018106159889387
0.005018107369476448
0.005018108369207851
0.005018109621967373
0.005018109655803052
0.005018108991174246
0.00501810861095533
0.005018107302912065
0.005018105538343711
0.005018103187696637
0.005018101737354388
0.005018101341636199
0.005018100635315933
0.005018099742604758
0.005018098502575868
0.005018097974133866
0.005018097824942099
0.005018098051579925
0.005018098488697705
0.005018100193622018
0.005018102653144773
0.00501810465859615
0.005018105961640624
0.005018106197933561
0.005018106155439506
0.005018105824487146
0.005018105264725875
0.005018104070584433
0.005018103910269293
0.005018102893126287
0.005018102424793042
0.0050181020297833
0.005018102317620673
0.005018102613819748
0.005018102392833073
0.005018102561307812
0.005018103395593432
0.005018104573708707
0.005018105186675138
0.005018105886769039
0.00501810640532915
0.005018106582187523
0.005018106945133093
0.005018107416733986
0.005382105902195654
0.005382105338527804
0.005382104992000626
0.005382104749779619
0.005382104842420669
0.005382104887622008
0.005382104815439932
0.005382104486433192
0.005382103993847077
0.005382103772706976
0.005382103791916004
0.005382104172531363
0.005382104888486038
0.005382105035247671
0.005382104780482812
0.005382104731581641
0.005382104736263352
0.005382104907353564
0.005382105121429289
0.005382105091025433
0.005382104761878263
0.005382104767776906
0.005382105059503425
0.005382105837650987
0.005382106466844771
0.005382107307968345
0.005382107364161011
0.005382106860172957
0.005382106591629764
0.005382105639587948
0.005382104282779626
0.005382102751416975
0.00538210146210103
0.005382101027601974
0.005382100469450248
0.005382099890743197
0.00538209900662404
0.00538209859327054
0.005382098479672402
0.005382098627819564
0.005382099154027944
0.005382100474403262
0.005382102424273325
0.005382104157971287
0.005382105342344065
0.005382105628811266
0.00538210561979818
0.00538210536944978
0.005382104858337885
0.005382103727112142
0.005382103326040878
0.005382102147765916
0.005382101534613181
0.005382100953094018
0.00538210110704912
0.005382101083969442
0.005382100949318228
0.005382101096980814
0.005382101710880064
0.005382102833765031
0.005382103511434714
0.005382104280585399
0.005382104749075295
0.005382105106730128
0.005382105568733112
0.005382106062406901
0.005654320195772999
0.005654319981100681
0.005654319770517969
0.005654319629078804
0.005654319652778258
0.005654319618389745
0.005654319512369722
0.005654319183307437
0.005654318691201697
0.00565431839917208
0.005654318348118722
0.005654318439444602
0.005654318768113646
0.005654318975627157
0.005654318915430541
0.005654318927144085
0.005654318973527087
0.005654319109068745
0.005654319256489407
0.005654319257873003
0.005654319086452957
0.005654319100189215
0.005654319247415908
0.005654319714730171
0.0056543200724566
0.00565432057410732
0.005654320598285982
0.005654320224412156
0.005654320008610939
0.005654319319856076
0.005654318382508914
0.005654317438130731
0.005654316445100043
0.005654316069871912
0.005654315592588621
0.005654315228664293
0.005654314619619711
0.005654314349553697
0.005654314312956086
0.005654314426230017
0.005654314972039414
0.005654315946822928
0.005654317381897991
0.005654318730326307
0.005654319686751673
0.005654319980815982
0.005654320011433392
0.005654319845765974
0.005654319453630157
0.005654318489682078
0.005654317984771028
0.00565431685991927
0.005654316216324459
0.005654315561928293
0.005654315498753993
0.005654315421287172
0.00565431532196656
0.005654315438289976
0.005654315900159243
0.005654316874858163
0.005654317527517562
0.005654318328678242
0.005654318784122052
0.005654319277745943
0.005654319725583648
0.005654320189808759
0.005847870098206863
0.005847870037117621
0.005847869961139015
0.005847869910380769
0.00584786992159717
0.005847869881880754
0.005847869732760406
0.005847869374041695
0.005847868910593261
0.005847868573463269
0.005847868431846599
0.005847868411916043
0.005847868467138048
0.005847868576642865
0.005847868582702791
0.005847868633311688
0.00584786869854311
0.005847868816924656
0.005847868934808031
0.005847868955476863
0.005847868892891828
0.005847868918006415
0.005847869005622436
0.005847869267230735
0.005847869440325441
0.005847869687565142
0.00584786966896917
0.005847869392707541
0.005847869209501951
0.005847868710317972
0.005847868103089338
0.005847867547618606
0.005847866850134819
0.005847866571473923
0.005847866174404983
0.005847865959045445
0.005847865574351515
0.005847865418564639
0.005847865467852572
0.005847865575433744
0.005847866095345962
0.005847866803260791
0.005847867816544486
0.00584786879052244
0.005847869493029148
0.00584786973941494
0.005847869785316853
0.005847869674158798
0.005847869392879943
0.005847868610393966
0.005847868111032378
0.005847867108235308
0.005847866533559063
0.00584786589670837
0.005847865745669069
0.005847865606766946
0.00584786554226197
0.005847865660465815
0.005847866020055033
0.005847866835914657
0.005847867426752506
0.005847868191415505
0.005847868649885271
0.005847869188128746
0.005847869620021983
0.005847869999872898
0.005973844946317601
0.005973844982704799
0.005973844924514259
0.005973844924989574
0.005973844957946058
0.005973844928483668
0.005973844740241155
0.005973844393445824
0.005973843976658479
0.005973843631940103
0.005973843430450992
0.005973843290542573
0.005973843250799722
0.005973843252190729
0.005973843247855736
0.005973843307768863
0.005973843371148073
0.00597384347811231
0.005973843569620036
0.005973843622977683
0.00597384359248855
0.005973843633528865
0.005973843695677784
0.00597384382712318
0.005973843873380015
0.005973843953891092
0.005973843896803941
0.005973843687063077
0.005973843528980607
0.005973843168269817
0.005973842792242431
0.005973842477044939
0.005973842023930406
0.005973841835314075
0.005973841524367712
0.005973841416374463
0.005973841219401889
0.00597384115828447
0.005973841273152562
0.005973841395363517
0.005973841866623682
0.005973842374391221
0.005973843069275961
0.005973843723384561
0.005973844191060377
0.00597384435537318
0.005973844396355344
0.005973844306826339
0.005973844093708176
0.005973843469791151
0.005973843034999761
0.005973842173796859
0.005973841717345386
0.005973841164586719
0.005973841000393948
0.005973840843741188
0.005973840808251945
0.005973840948651827
0.005973841240298121
0.005973841914419718
0.005973842431855081
0.005973843122394008
0.00597384357458983
0.005973844100133814
0.005973844508139287
0.005973844801270833
0.006042043288238297
0.006042043370134643
0.006042043345764182
0.006042043353149149
0.006042043400259271
0.006042043377842548
0.006042043181401269
0.006042042871145921
0.006042042504775517
0.006042042179062029
0.006042041954626127
0.006042041735203371
0.006042041607786374
0.006042041553115073
0.006042041539313235
0.006042041587129816
0.006042041639213945
0.006042041734595482
0.006042041795138011
0.006042041869448903
0.006042041853667223
0.006042041901172398
0.006042041943314216
0.006042041986700743
0.006042041959987116
0.006042041936874575
0.006042041836453802
0.006042041679715102
0.006042041535844825
0.006042041292772733
0.006042041068514505
0.00604204089083897
0.006042040624856571
0.006042040491800832
0.006042040271135676
0.006042040246917255
0.006042040191445833
0.006042040203729764
0.006042040389840853
0.006042040526485275
0.006042040939856211
0.006042041298861464
0.006042041750731888
0.006042042149356358
0.006042042410191792
0.006042042493161094
0.006042042518020155
0.006042042423458026
0.006042042239514793
0.006042041740930014
0.00604204138607285
0.006042040673270867
0.006042040341053089
0.006042039907039658
0.006042039773515845
0.006042039632736878
0.006042039628308178
0.006042039800369036
0.006042040047575399
0.006042040608456882
0.006042041053112103
0.0060420416562078
0.006042042081469644
0.006042042564569666
0.006042042928094507
0.006042043146986729
0.006061606363097984
0.006061606452958279
0.006061606479476326
0.006061606468980532
0.006061606503167627
0.006061606485777721
0.006061606305334909
0.006061606037634974
0.006061605727136526
0.006061605440981752
0.00606160521897666
0.006061604976979494
0.006061604804094739
0.006061604693907896
0.006061604666070066
0.006061604701022306
0.006061604734093689
0.006061604812370186
0.006061604850165906
0.006061604918837171
0.006061604922197608
0.006061604960907248
0.006061604979266035
0.006061604981198706
0.006061604916836688
0.006061604823532479
0.006061604699860336
0.006061604579724853
0.006061604446819388
0.006061604293575934
0.006061604159430796
0.006061604058042697
0.006061603924133118
0.006061603826516301
0.006061603696806753
0.006061603740689713
0.006061603753106709
0.006061603842348147
0.00606160408509036
0.00606160422971635
0.00606160458357121
0.006061604831332574
0.006061605102132117
0.006061605303592944
0.006061605416184606
0.006061605427807495
0.006061605417031251
0.006061605285839779
0.0060616051089541
0.006061604705085944
0.006061604423100887
0.006061603855393294
0.006061603630738798
0.006061603323939358
0.006061603240151697
0.006061603136159779
0.006061603163315935
0.006061603367363765
0.006061603589786496
0.006061604064348852
0.006061604440460201
0.006061604960312255
0.00606160534482973
0.006061605775875737
0.006061606080183966
0.006061606242725962
0.006041595421754416
0.006041595505590888
0.006041595543122743
0.006041595536074524
0.006041595565946356
0.006041595549800362
0.006041595391709044
0.006041595172696142
0.006041594922043484
0.006041594687269839
0.006041594486326578
0.006041594255344038
0.006041594074292163
0.006041593935183321
0.006041593887441674
0.006041593903263441
0.006041593912088951
0.006041593968526741
0.006041593989217916
0.006041594047553779
0.006041594054699142
0.006041594077019833
0.006041594083782281
0.00604159406302289
0.006041593978458308
0.00604159384903359
0.006041593724038711
0.006041593621592609
0.006041593500027757
0.006041593402336301
0.006041593321529245
0.006041593263724811
0.00604159321271742
0.006041593142750242
0.006041593083447411
0.006041593157623205
0.006041593249656693
0.006041593397204546
0.006041593652057731
0.006041593808320615
0.006041594103657998
0.006041594266859415
0.006041594396046301
0.006041594454209486
0.006041594482720865
0.006041594432849931
0.006041594363775697
0.006041594191858358
0.006041594016458234
0.006041593682087832
0.006041593451801713
0.006041593022412231
0.006041592879280518
0.006041592689543465
0.006041592642234637
0.006041592597919946
0.006041592653823444
0.006041592879527507
0.006041593089610789
0.006041593495648671
0.00604159380970379
0.006041594253056511
0.006041594589516453
0.006041594967214621
0.006041595206394534
0.006041595322628745
0.005991621371966572
0.005991621448842223
0.005991621489894845
0.005991621485630072
0.005991621514498674
0.005991621502454266
0.005991621372727187
0.005991621204230101
0.005991621012990674
0.005991620836938677
0.005991620674473157
0.005991620474166335
0.005991620315612068
0.005991620169006442
0.00599162011193909
0.005991620092505844
0.005991620085516336
0.005991620120914174
0.005991620127050297
0.005991620166888329
0.005991620166331642
0.005991620182717884
0.005991620179236409
0.005991620137725481
0.005991620049122565
0.00599161990045116
0.005991619782913033
0.005991619688605127
0.00599161957778347
0.005991619510891979
0.005991619462278193
0.005991619433558375
0.00599161941918619
0.005991619370077286
0.00599161936871791
0.005991619459762608
0.005991619601936079
0.005991619784676496
0.005991620028758166
0.005991620201775664
0.005991620435575312
0.005991620539637762
0.005991620575265031
0.005991620569490298
0.005991620544541936
0.005991620409192372
0.005991620289638844
0.005991620083303631
0.005991619906874452
0.005991619621019511
0.005991619426718431
0.005991619120576157
0.00599161904351308
0.005991618928687067
0.005991618921347789
0.005991618903255376
0.005991619003409536
0.005991619234902718
0.005991619440193065
0.005991619791127022
0.005991620046216211
0.005991620425389254
0.00599162071037457
0.005991621035679106
0.005991621211849065
0.00599162128619523
0.00592272780584487
0.005922727875532311
0.005922727920850338
0.005922727921903371
0.005922727957535984
0.005922727953605026
0.005922727855100385
0.005922727741920378
0.005922727608831019
0.005922727492790414
0.005922727377937447
0.005922727217310889
0.00592272710158863
0.005922726962063272
0.005922726904114287
0.005922726874420348
0.005922726840855764
0.005922726860014829
0.00592272684203955
0.005922726870558345
0.005922726863662258
0.005922726871856768
0.005922726860363533
0.00592272679507421
0.005922726710261873
0.005922726552741025
0.0059227264445919
0.0059227263550636
0.00592272625041009
0.005922726200270362
0.005922726178756521
0.00592272615198875
0.005922726159978168
0.00592272614213616
0.005922726179060928
0.005922726263618574
0.005922726421064519
0.005922726618669548
0.00592272683487954
0.005922727029449709
0.005922727210341637
0.005922727266364162
0.005922727271437842
0.005922727228602794
0.005922727156437288
0.005922726954907084
0.005922726810372314
0.005922726575881185
0.005922726402588104
0.005922726153859635
0.005922725981507138
0.005922725779702135
0.005922725726343207
0.00592272567835756
0.005922725669678717
0.005922725693549409
0.005922725820568178
0.00592272602573472
0.00592272621995457
0.005922726522257087
0.005922726718759521
0.005922727045898325
0.005922727281052397
0.005922727554293562
0.005922727685487438
0.005922727729377426
0.005849340041150208
0.005849340107696097
0.005849340172018617
0.005849340196967534
0.005849340242142276
0.005849340258275578
0.005849340202688943
0.005849340156034776
0.00584934007921777
0.005849340014022339
0.005849339940704782
0.005849339813865206
0.0058493397496909
0.005849339624220683
0.00584933957896091
0.005849339549018147
0.005849339502185623
0.005849339510633903
0.005849339491648512
0.005849339505791089
0.005849339501591984
0.005849339494848945
0.0058493394713137
0.005849339377760015
0.005849339304248266
0.005849339143283607
0.005849339045065361
0.00584933896289564
0.00584933885799138
0.005849338815059339
0.005849338815987468
0.005849338803025211
0.005849338829079653
0.005849338800435709
0.005849338879450491
0.005849338911365671
0.005849339057040426
0.00584933926865855
0.005849339436913116
0.005849339662988271
0.005849339779614957
0.005849339828160104
0.005849339815444273
0.00584933972860088
0.005849339648967955
0.005849339410128636
0.005849339273616952
0.005849339030689103
0.005849338881011202
0.00584933867280737
0.005849338510450708
0.005849338398892063
0.00584933831705661
0.005849338298757747
0.005849338267912455
0.005849338318429537
0.005849338431310239
0.005849338582655528
0.005849338753668248
0.00584933900475778
0.00584933914039563
0.005849339423099796
0.005849339611117004
0.005849339833322328
0.005849339935791756