/*--------------------------------*- C++ -*----------------------------------*\
| =========                 |                                                 |
| \\      /  F ield         | OpenFOAM: The Open Source CFD Toolbox           |
|  \\    /   O peration     | Version:  v1812                                 |
|   \\  /    A nd           | Web:      www.OpenFOAM.com                      |
|    \\/     M anipulation  |                                                 |
\*---------------------------------------------------------------------------*/
FoamFile
{
    version     2.0;
    format      ascii;
    class       volScalarField;
    location    "3000";
    object      nuTilda_0;
}
// * * * * * * * * * * * * * * * * * * * * * * * * * * * * * * * * * * * * * //

dimensions      [0 2 -1 0 0 0 0];


internalField   nonuniform List<scalar> 
2838
(
0.0004985801619993978
0.0004985125286813824
0.0005024120388429592
0.0005025240309965437
0.0005024944844871731
0.0004985898310129167
0.000498454795553425
0.0004984480320198036
0.0004984507466016663
0.0004984443159287397
0.0004984473059423143
0.0004984922105556003
0.0004984908189509404
0.0004985015085206347
0.0004984929614012621
0.000498503733260432
0.0004984719788617368
0.0004984698319517328
0.0004984738419972561
0.0004984630212733001
0.0004984798230633565
0.0004984428143837159
0.0004984645393957761
0.0004984628555609685
0.0004984917638012254
0.0004984486314354015
0.0004984711147155774
0.0004984731354081701
0.0004985000747244725
0.0004984712212255145
0.0004984455838702576
0.0004984383554561388
0.0004984480510659632
0.000498491204995745
0.0004984903127505713
0.0004984944715586487
0.0004985030644524636
0.0004984820884171713
0.0004984755661113009
0.000498466038483017
0.0004984592139054365
0.0004984964817434827
0.0005024121355472019
0.0005025253043562483
0.0004986787131644096
0.0005023309465227224
0.0004986704025708117
0.0005024179564458207
0.000502524091558152
0.0005024923038209174
0.0005025065440067473
0.0005025238248499245
0.0005025485011941579
0.0005025483577602289
0.0005025066171337404
0.0004985914398398601
0.0004984793852297149
0.0004985103565235808
0.0004984611543147689
0.0004984892663956043
0.000498473257857401
0.0004984796441459162
0.0004985069746044141
0.0004984831135552241
0.0004984408527217985
0.000498465421253216
0.0004632864940809459
0.0004628781923167948
0.0005107206597861203
0.0005133101315731215
0.000512733603587551
0.0004640458919626652
0.0004623969636878562
0.0004622708390565699
0.0004620960466194038
0.0004622150966696216
0.0004619476520729202
0.0004624377795995783
0.0004626046827471249
0.0004627483483484047
0.0004627604060462934
0.0004627912840933535
0.0004627321607973407
0.0004627291160493284
0.0004625768459164495
0.0004624054181070796
0.0004624169515616244
0.0004621888894838006
0.0004624169362449032
0.0004623817279582987
0.0004623610977063198
0.000462317905423414
0.0004624624295568108
0.0004622650983598399
0.0004624882954577305
0.0004627016422782522
0.0004622364478564682
0.000461896851886122
0.0004618988638811455
0.0004624754112366162
0.0004624328883806924
0.0004625807444283102
0.000462640448757937
0.0004626246174811215
0.0004626648079094158
0.0004622908715366207
0.0004619487401047948
0.0004625087233460773
0.0005107103678528958
0.0005132716720980526
0.0004648505570087033
0.0005097260044137275
0.000464708731929061
0.0005108663564854937
0.0005133146434775101
0.0005127442140562443
0.0005130392871537386
0.0005133447543729464
0.000513433682123201
0.0005136172290940234
0.0005130534515417759
0.0004640735373431777
0.0004624695784981028
0.0004628103259125728
0.0004622578310759482
0.0004624677781034637
0.0004627289890878258
0.0004625850207041309
0.0004627292927499106
0.0004626574659623027
0.0004621118506714231
0.0004623963446172743
0.0007485677028543312
0.0007480470627024166
0.0007721818682124533
0.0007744803671114773
0.0007740073016289485
0.000749970038345668
0.0007469088747458799
0.0007469140500074323
0.0007467787291814171
0.0007471837881503791
0.0007468659116613847
0.0007469074801253408
0.0007469654193741102
0.0007475019144259918
0.0007474879509109768
0.000747626509109115
0.0007475367797513796
0.0007475739060039035
0.0007468447690218944
0.0007468087727690232
0.000746975676064184
0.0007466279569986039
0.0007471008103839904
0.0007472788549451942
0.0007470126549180386
0.0007473144879095412
0.0007473776637111948
0.0007470380248929275
0.0007473967031942912
0.0007471979996770321
0.0007469456918255195
0.0007467604208593211
0.0007467456414607684
0.000747457196051504
0.0007471143744980356
0.0007470064614700133
0.0007471923064431134
0.0007473823237730715
0.0007473976450281697
0.0007470908657566736
0.0007468185916926176
0.0007475245395289902
0.0007721602645503021
0.0007744470672367701
0.0007511511116749105
0.0007714702082047956
0.0007508589445806682
0.0007724045950239257
0.000774488049905845
0.0007739954559554107
0.0007746052691546433
0.0007750919427240022
0.0007745144395010786
0.000774453356025729
0.000774181764644157
0.0007500013158738988
0.0007473081092394646
0.0007478779662093936
0.0007472024040815934
0.0007472637430935223
0.0007475633256390114
0.0007469864204157772
0.0007471069258222395
0.0007474880323149515
0.0007468328077229698
0.000746939059254381
0.001058144293100012
0.001057884556039144
0.001066496198346147
0.001067769392578288
0.001067518992183256
0.001058844155710928
0.00105734156132415
0.001057263405476023
0.001057306346102415
0.001057365036597689
0.001057268881481545
0.001057159003792472
0.001057055860555432
0.001057514711519838
0.001057621086847689
0.001057675433664092
0.001057672936161472
0.001057687376003565
0.001057182118645005
0.001057178672795933
0.001057413101708633
0.001057114151664848
0.001057093280260343
0.001057177952001553
0.001057130600791957
0.001057480498588671
0.001057597268974002
0.001057269170212552
0.001057468252732669
0.001057263745365474
0.001057247895374842
0.001057170276799239
0.001057074528142575
0.001057482420112623
0.001057438558881429
0.001057409588482668
0.001057512072724429
0.001057550592154705
0.001057580142275814
0.001057409207936715
0.001057122113295162
0.001057540395648777
0.001066483956504762
0.001067752583977268
0.00105946641926581
0.001066147140697508
0.001059280322563364
0.00106665216494545
0.001067774741702031
0.001067542617392033
0.001067899306825238
0.001068270904754903
0.001067793832511152
0.001067873584282752
0.001067713359691956
0.001058862849058173
0.001057486620453384
0.001057738045050351
0.001057468411624563
0.001057517249543765
0.001057669163477261
0.001057488584943143
0.001057522695820347
0.001057612330439882
0.001057427011312015
0.001057364911653275
0.001410383160417161
0.001410240754050795
0.001412785286071089
0.001413344947708529
0.001413247791111482
0.001410647048637459
0.001410059469832506
0.001409967582104266
0.001409978077835151
0.001410084855285517
0.00140998580252686
0.001409848627295148
0.00140980193933375
0.00141004608992332
0.001410137173937331
0.001410153362356069
0.001410177626701477
0.001410189567828571
0.001409962262298586
0.00140984285210242
0.001410015385980815
0.001409931336249719
0.001409820766730642
0.001409921635354356
0.001409994161859884
0.00141012248518105
0.001410163331423158
0.001409956499747897
0.001410011254668144
0.001409943826023436
0.001409868753908361
0.001409843582224686
0.001409944288672029
0.001410026668732749
0.001410035566117325
0.001410096762726309
0.001410056783857654
0.001410068690446053
0.001410177325187204
0.001410124121820672
0.001409917990715161
0.001410054527090347
0.001412771995593469
0.001413340172191986
0.001410894760967045
0.001412678088014277
0.001410799018359817
0.00141287130460552
0.001413346689052619
0.001413327339348229
0.001413443264007505
0.001413583892082297
0.001413356943786247
0.00141338904662088
0.001413353713719883
0.001410647852986003
0.001410073481095488
0.001410099910924296
0.001410027136839636
0.001410119560898497
0.001410181897521301
0.001410143208696872
0.001410151629418887
0.001410157774354534
0.00141013043175672
0.001410091281335666
0.001891059874279447
0.001890917810617045
0.001891514236606323
0.001891736768537612
0.001891708577387572
0.00189112011329597
0.0018908861741504
0.001890893709043862
0.00189086207159815
0.001890858891831094
0.001890899495067206
0.001890828656910169
0.001890807465337221
0.001890861294151099
0.001890904343565529
0.001890905656789784
0.001890919011379948
0.001890912894966248
0.001890870512964711
0.001890853612738471
0.00189084414675304
0.001890849339844282
0.001890840030054957
0.001890874747138934
0.001890836951437933
0.001890915226038337
0.001890946963747107
0.00189081725869921
0.001890839944591854
0.001890851778354924
0.001890829697006312
0.001890795828040301
0.001890861641050597
0.001890878726930927
0.00189090250921344
0.001890907981145363
0.001890900603137345
0.001890892951981184
0.001890948122198376
0.001890943948361568
0.001890857516091658
0.001890850880824895
0.001891497230298113
0.001891730754357038
0.00189117269013347
0.001891517771711787
0.001891131623611424
0.001891555397622497
0.001891735293988096
0.001891709229365941
0.001891798271010721
0.00189184438336658
0.001891725646441341
0.001891739335745322
0.001891723178482395
0.001891109675615326
0.001890887679302342
0.001890922485609791
0.001890850072889659
0.001890901440121545
0.001890913931373532
0.001890921344559268
0.001890950893186516
0.001890931559186078
0.001890857954318532
0.001890930406350293
0.002535592454448581
0.002535525554946037
0.00253562616946655
0.00253567804759664
0.002535682508592419
0.002535590412209945
0.002535534780713786
0.002535514589913799
0.002535517178070558
0.002535531805273131
0.002535521573303041
0.002535513266343342
0.002535516917780924
0.002535500983999339
0.002535514754688838
0.00253552910424926
0.002535509201022808
0.002535526139242503
0.002535519229208167
0.002535514990110143
0.002535508775571811
0.002535522995793938
0.002535502867480046
0.002535530083263294
0.002535508457033176
0.002535525650471747
0.002535529934666395
0.002535516690023796
0.002535509927093655
0.002535516139631118
0.002535521173043904
0.00253548247650096
0.002535511611564209
0.002535513237515503
0.002535521693570961
0.002535535838335414
0.002535507914380711
0.002535517531517678
0.002535533588344643
0.002535529095927498
0.002535517518062158
0.002535507589075876
0.00253560947956842
0.002535675105619472
0.002535588620042418
0.002535631182204552
0.002535578503215677
0.002535637241449915
0.002535682110155391
0.002535683151610879
0.002535689663599115
0.002535719451129191
0.002535681607146363
0.002535677186107397
0.002535667375351661
0.002535582618928116
0.002535520720638996
0.002535530249214261
0.002535520136951235
0.002535518877868283
0.002535532744155746
0.002535547435660588
0.002535526491132102
0.002535527961831784
0.002535520753590992
0.002535542703038628
0.003261742886492227
0.003261729002196291
0.003261740045975456
0.003261747893865415
0.00326174930621668
0.003261739192671288
0.003261728289772685
0.003261723235051731
0.003261725668767884
0.003261723933471941
0.003261728324198155
0.00326172860496389
0.003261729528865681
0.003261715597036844
0.003261718829347042
0.003261719697304591
0.003261718466195393
0.003261724486471583
0.003261726742268683
0.003261720770609747
0.003261723110750357
0.00326172417696902
0.003261725736843646
0.003261729403147638
0.003261729165776545
0.003261731440075302
0.003261729868794607
0.003261729083241204
0.003261726192863427
0.003261726152512765
0.00326172688462459
0.003261712842587723
0.003261719962654848
0.003261720964402277
0.003261718777902306
0.003261719682378087
0.003261713026290828
0.003261718115353782
0.003261721332444027
0.003261720690512773
0.003261721644173972
0.00326171783654443
0.003261728944746774
0.003261741580610885
0.003261732941645619
0.003261737158318615
0.003261732657779721
0.003261740623223553
0.003261743888314167
0.003261747737056586
0.003261746985621751
0.003261754847316937
0.003261747967218581
0.00326174681652178
0.003261745311008701
0.003261736957729896
0.003261727919358965
0.003261729835825693
0.003261726347358937
0.003261725644442676
0.003261730375255643
0.003261733368056192
0.003261733204079321
0.003261727652107872
0.003261732059133754
0.003261731970166939
0.003956690666669148
0.003956687981802137
0.003956689425179887
0.003956689859085673
0.003956690028467682
0.003956689187345449
0.003956688135880211
0.003956686173631284
0.00395668593385359
0.003956686418221616
0.003956688234749099
0.003956690474619524
0.00395669082695304
0.003956684896907058
0.003956683225937189
0.003956684539763469
0.003956684198991441
0.003956686608086082
0.003956687623804974
0.003956686302681272
0.003956687023914199
0.003956686980821233
0.003956689466043889
0.003956691746635121
0.003956693327679729
0.003956694147411207
0.003956693132330023
0.003956692133473601
0.003956691254450964
0.003956689307563319
0.003956686891280647
0.003956681825144514
0.003956682627054639
0.00395668225878729
0.003956680111710276
0.003956678887290665
0.003956676704509116
0.00395667721307752
0.003956678715204743
0.003956679346983784
0.003956680048643777
0.003956681813634198
0.003956684623581398
0.003956686628790587
0.003956686699928431
0.003956687651095373
0.003956687098060642
0.003956688086712114
0.003956688081655515
0.003956688237390465
0.00395668865958259
0.003956688827508163
0.003956688394929416
0.003956688359441113
0.003956689228726493
0.003956688339089909
0.003956687327976784
0.003956687700868104
0.003956688937173712
0.003956689062861751
0.003956690080190306
0.003956690813675877
0.003956691089076645
0.003956689373638579
0.00395669094698221
0.003956690643028921
0.004547000125458351
0.004546999008806205
0.004546998925756915
0.004546999028202218
0.004546998852109225
0.004546998989283678
0.004546999101812717
0.004546998228740845
0.004546997836333693
0.004546997936040889
0.004546998805539897
0.004547000699100791
0.004547001148299078
0.004546999364839993
0.004546997945356801
0.004546998411477179
0.004546998414789286
0.004546999242130802
0.004546999811749359
0.004546999238145949
0.004546999147739506
0.00454699921526249
0.004547000902364405
0.004547002591733683
0.004547003868338407
0.004547004868772029
0.004547004270264266
0.00454700334724252
0.004547002728769861
0.004547000743238197
0.00454699819471781
0.004546995086940607
0.004546994541456252
0.004546994123153614
0.004546992829735523
0.004546991490373345
0.004546990116393806
0.004546989931986975
0.004546990210424538
0.004546990950808232
0.004546991780904864
0.004546994224373897
0.004546997025945995
0.004546998702115103
0.004546999346780027
0.004546999535300088
0.004546999368021255
0.004546999123082273
0.004546998354160334
0.00454699749672188
0.004546997463812898
0.004546996821877868
0.004546996535106188
0.004546996531342042
0.004546997261277134
0.004546997297099252
0.004546997143872335
0.00454699744133001
0.00454699907964332
0.004546999867759981
0.004547000328686403
0.004547000758314908
0.004547000978083087
0.004547000659964956
0.004547001333184793
0.004547001362388487
0.005018106452336421
0.005018105614718127
0.005018105432216736
0.00501810531608313
0.005018105160588988
0.005018105136783464
0.005018105310921504
0.005018104814640701
0.0050181044734501
0.005018104439868195
0.005018104733956951
0.005018105907810651
0.005018106513612264
0.005018106108011624
0.00501810542524046
0.005018105564072495
0.005018105616006915
0.005018105980626868
0.005018106255218831
0.005018105999824937
0.005018105699714242
0.005018105750026898
0.005018106661265477
0.005018107884247682
0.005018108777990907
0.005018109593688134
0.005018109261819964
0.005018108490103109
0.005018108100148047
0.005018106459071022
0.005018104434251269
0.005018102223224783
0.005018101249169443
0.005018100904065432
0.005018100128597654
0.005018099153283421
0.005018098114808485
0.005018097830944522
0.005018097896587876
0.005018098421377739
0.00501809934691548
0.005018101443686754
0.005018103977018455
0.005018105694516209
0.005018106444668056
0.005018106570005421
0.005018106448273792
0.005018105945962675
0.005018105077899624
0.005018103952329844
0.005018103584139059
0.005018102539140712
0.005018102064720855
0.005018101927929828
0.005018102091854808
0.005018102253800671
0.005018102255954942
0.00501810249372714
0.005018103850395347
0.005018104918168681
0.005018105502935744
0.005018105949259134
0.005018106271995914
0.005018106339815473
0.005018106958524597
0.005018107176443857
0.005382105684810681
0.005382105253346797
0.00538210509279282
0.005382104900425714
0.005382104742051279
0.005382104598776384
0.005382104672437492
0.005382104247649571
0.005382103863655953
0.005382103754531326
0.005382103838917033
0.005382104357851779
0.00538210491660652
0.005382104898609599
0.005382104653879169
0.005382104731116341
0.005382104816687314
0.005382105026813879
0.005382105188171324
0.005382105069316914
0.005382104840266391
0.005382104867172896
0.005382105330490696
0.005382106128646599
0.005382106700309367
0.005382107250264426
0.005382107046665744
0.005382106433849893
0.00538210615851627
0.005382104957147905
0.00538210353599136
0.005382102040484242
0.005382101066274197
0.005382100734230848
0.005382100166860865
0.005382099528009849
0.005382098777840444
0.005382098539541328
0.005382098604905104
0.005382098978121084
0.005382099904699861
0.005382101462338802
0.00538210346849989
0.005382104986848327
0.005382105726510243
0.005382105887066654
0.005382105810640767
0.005382105383188745
0.005382104596988253
0.00538210350975895
0.005382102915511849
0.0053821017829821
0.00538210112714961
0.005382100837277732
0.005382100770191072
0.005382100820053418
0.005382100853468163
0.005382101052858196
0.005382102122698551
0.005382103183000064
0.005382103855100529
0.005382104437145901
0.005382104799205264
0.005382105125058532
0.005382105678658681
0.005382105958671748
0.005654320149669136
0.005654319986755247
0.005654319928669749
0.00565431975821211
0.005654319575072751
0.005654319439775497
0.005654319399658132
0.005654318952618006
0.005654318533153049
0.00565431834622426
0.005654318338440583
0.005654318468772302
0.005654318797524176
0.005654318894887082
0.005654318842428673
0.005654318918771339
0.005654319012331699
0.005654319163596124
0.005654319294052481
0.005654319250954139
0.005654319127100675
0.005654319149356332
0.005654319389481769
0.00565431986000048
0.005654320182062706
0.005654320499070766
0.005654320352594683
0.005654319894054464
0.005654319673903153
0.005654318819945751
0.005654317909738586
0.005654316958585738
0.005654316169325237
0.005654315873040163
0.005654315412638007
0.005654315014628255
0.005654314499157319
0.005654314368939895
0.005654314458457055
0.005654314732749387
0.005654315586859787
0.005654316685542202
0.005654318159409671
0.005654319365743626
0.005654319981927707
0.005654320170788743
0.005654320129735162
0.005654319839856016
0.005654319189397762
0.005654318255122021
0.005654317580491621
0.005654316531604057
0.005654315825801748
0.005654315416113094
0.00565431527982756
0.005654315240825132
0.005654315263395172
0.005654315451057414
0.005654316277631953
0.005654317214878111
0.005654317892336323
0.005654318545351017
0.005654318945323368
0.005654319399762531
0.005654319888924048
0.005654320184327289
0.005847870140374621
0.005847870126587601
0.005847870128340031
0.005847870029494144
0.005847869881210463
0.005847869757362156
0.005847869601951386
0.005847869163796413
0.005847868743814658
0.005847868480353767
0.005847868391101746
0.005847868362964835
0.005847868457853908
0.00584786852654818
0.00584786853975695
0.00584786863549709
0.005847868730467521
0.005847868855980093
0.005847868970168235
0.005847868966659576
0.005847868929329093
0.005847868951747675
0.005847869081367664
0.005847869326033747
0.005847869474004602
0.005847869607216233
0.005847869484064011
0.005847869155152241
0.005847868970630134
0.005847868368807938
0.005847867824464059
0.005847867248250978
0.0058478666782191
0.005847866445551003
0.005847866075759352
0.005847865850716985
0.005847865535109884
0.005847865467781941
0.00584786561699333
0.005847865836608067
0.00584786658349488
0.005847867340046991
0.00584786837481887
0.005847869255494491
0.005847869707624857
0.005847869879243882
0.005847869854881576
0.005847869672783295
0.005847869151711651
0.005847868392904894
0.005847867749126651
0.005847866834551363
0.005847866192055171
0.005847865756403554
0.005847865586101096
0.005847865515820827
0.005847865538410549
0.005847865737464884
0.005847866360341642
0.005847867156830855
0.005847867793611548
0.005847868443355535
0.005847868880852267
0.005847869365332591
0.005847869811100027
0.005847870056366106
0.005973845024497113
0.005973845098414578
0.005973845103339596
0.005973845058752799
0.00597384494996233
0.005973844832474083
0.005973844601132154
0.005973844212052986
0.005973843816494374
0.005973843520731788
0.00597384335016256
0.005973843208842446
0.005973843210294962
0.005973843209552663
0.005973843225846978
0.005973843322640314
0.005973843407714726
0.005973843517780931
0.005973843611388079
0.005973843639735621
0.005973843640475965
0.005973843666520746
0.005973843736847684
0.005973843840876553
0.005973843858949624
0.005973843876980399
0.005973843760750261
0.005973843525664178
0.005973843369004694
0.005973842951601954
0.005973842643265063
0.005973842306447533
0.005973841929638236
0.005973841759800719
0.00597384148016715
0.005973841379591164
0.005973841243659488
0.00597384123231156
0.005973841433088808
0.005973841619147765
0.005973842246681392
0.005973842758059024
0.005973843457956362
0.005973844046164019
0.005973844333359747
0.005973844454534613
0.005973844430427227
0.005973844299751577
0.005973843880722882
0.005973843282767646
0.005973842727740678
0.005973841960405632
0.005973841439079647
0.005973841051696811
0.005973840889324704
0.005973840819325961
0.005973840854480148
0.005973841065278741
0.005973841544193515
0.005973842208336306
0.00597384278270993
0.005973843386171423
0.00597384383796303
0.005973844302406421
0.005973844708781915
0.005973844888413702
0.006042043386551611
0.006042043495621052
0.006042043517955028
0.006042043498152004
0.006042043415944484
0.006042043302239264
0.006042043049914096
0.006042042711708523
0.006042042360522804
0.006042042067516216
0.006042041858780074
0.006042041643818242
0.006042041563527311
0.006042041528381704
0.006042041530668964
0.006042041610996072
0.006042041680513144
0.006042041776122027
0.006042041844410031
0.006042041902815789
0.006042041907712952
0.00604204193348795
0.006042041963712119
0.006042041974173505
0.006042041920340864
0.006042041868817578
0.006042041732718739
0.006042041569865045
0.006042041434362175
0.006042041177965427
0.006042041002846133
0.006042040808870917
0.006042040583886701
0.006042040452434692
0.006042040272138696
0.006042040272500257
0.006042040249260749
0.006042040304029
0.006042040557362082
0.006042040720245944
0.006042041231243289
0.00604204156644327
0.006042042006953575
0.006042042354440448
0.00604204248063966
0.006042042549411867
0.006042042516215862
0.006042042394847704
0.006042042049531566
0.006042041583287355
0.006042041133977738
0.006042040515946968
0.006042040128922719
0.006042039832436311
0.006042039706456967
0.006042039653846212
0.006042039713054215
0.006042039937701161
0.006042040321841888
0.006042040873438302
0.006042041376435056
0.006042041914870859
0.006042042349865896
0.006042042769173825
0.006042043122603962
0.006042043246984898
0.006061606467702044
0.006061606579475539
0.00606160661175286
0.006061606614829942
0.006061606524943168
0.00606160643029609
0.006061606188538715
0.00606160590169623
0.006061605605187047
0.006061605341278975
0.006061605124311504
0.006061604886093466
0.006061604752825704
0.006061604673757771
0.006061604671443159
0.006061604727684654
0.006061604775654464
0.006061604854140951
0.006061604902683313
0.006061604958645168
0.006061604970238515
0.006061604988013307
0.006061604994040176
0.006061604964716143
0.006061604866724268
0.006061604760027594
0.006061604626449239
0.006061604507053567
0.006061604389238249
0.006061604243127914
0.006061604144746418
0.006061604035025731
0.006061603918811078
0.006061603818275928
0.006061603729115734
0.006061603798971429
0.006061603842336255
0.006061603968048753
0.006061604242588042
0.00606160439653985
0.006061604799235485
0.00606160501149449
0.006061605258309856
0.006061605419034804
0.006061605432377396
0.006061605456159141
0.006061605379524879
0.006061605234272897
0.006061604937407652
0.00606160457135126
0.006061604220574557
0.006061603747004263
0.006061603477671115
0.006061603286976414
0.006061603210910229
0.006061603183394317
0.006061603272961048
0.006061603514862138
0.006061603838539771
0.0060616042991986
0.006061604729500233
0.006061605201344971
0.006061605599030504
0.00606160596637699
0.006061606258155315
0.006061606342678837
0.006041595523704233
0.00604159562623386
0.006041595660707536
0.006041595669479966
0.006041595594709637
0.006041595512660132
0.006041595295304977
0.006041595064208016
0.006041594827689712
0.00604159460792923
0.006041594404633005
0.006041594177438232
0.006041594023934873
0.006041593916637505
0.006041593897342089
0.006041593925255599
0.006041593948489574
0.006041594008405153
0.006041594040811733
0.006041594091305884
0.006041594099356096
0.006041594108589817
0.006041594101340106
0.006041594040315517
0.006041593928764715
0.006041593792307019
0.006041593672990684
0.006041593573686371
0.006041593472690349
0.006041593393065776
0.006041593337626934
0.006041593278154781
0.006041593233154546
0.006041593162027507
0.006041593135731787
0.006041593239363276
0.006041593358903351
0.006041593532938528
0.006041593797300158
0.006041593948671927
0.006041594252531055
0.006041594378014129
0.00604159447147511
0.006041594518092548
0.006041594472113419
0.006041594421562848
0.006041594291546798
0.006041594115005258
0.006041593853786434
0.006041593562046386
0.006041593291362921
0.00604159295305108
0.006041592776493499
0.006041592687469321
0.006041592651523167
0.006041592657433701
0.006041592780426657
0.00604159303043131
0.00604159331514066
0.006041593701961726
0.006041594061832178
0.00604159446996668
0.00604159481963903
0.006041595133726304
0.006041595360320665
0.006041595413683275
0.005991621468029824
0.005991621560732869
0.005991621594675492
0.005991621605082492
0.005991621546812966
0.005991621479867818
0.005991621297441341
0.005991621122649394
0.005991620947169539
0.00599162078271445
0.005991620613447924
0.005991620416901162
0.005991620275339443
0.005991620154617665
0.005991620120371198
0.005991620107261638
0.005991620113618452
0.005991620156753259
0.005991620174547047
0.005991620207699804
0.005991620217846956
0.005991620210094022
0.005991620192747182
0.005991620112182693
0.005991619999421811
0.005991619849594362
0.00599161974572992
0.005991619655363006
0.005991619569120999
0.005991619525362785
0.005991619493679286
0.00599161946859697
0.005991619453666336
0.005991619419473717
0.005991619433172413
0.005991619553949829
0.005991619719911345
0.005991619914937991
0.005991620161013859
0.005991620318234768
0.005991620537363125
0.005991620600303186
0.005991620612018169
0.005991620600791292
0.005991620499713582
0.005991620354882565
0.005991620191298868
0.00599161998599246
0.005991619749585926
0.00599161950703954
0.005991619299599622
0.005991619081922531
0.005991618985420374
0.005991618952002711
0.005991618952853705
0.005991618983409396
0.005991619147520743
0.005991619389732091
0.005991619643732506
0.005991619969230286
0.005991620260604249
0.005991620615084243
0.005991620910158957
0.005991621173639042
0.005991621337584501
0.005991621368894765
0.005922727894526577
0.005922727979345607
0.005922728013492206
0.005922728022767848
0.005922727994504779
0.005922727940620437
0.005922727801210005
0.005922727686488853
0.005922727570157192
0.005922727464732574
0.005922727340379606
0.005922727184973401
0.005922727076318596
0.005922726952452453
0.005922726910921984
0.005922726881795281
0.005922726863360983
0.005922726886470459
0.005922726889668845
0.005922726907526483
0.005922726909947247
0.005922726895585912
0.005922726861939424
0.005922726767476778
0.005922726660166188
0.00592272650431576
0.005922726413586724
0.005922726326831165
0.005922726250270224
0.005922726227539249
0.005922726219319463
0.005922726202098514
0.005922726212413821
0.005922726203153664
0.005922726248895113
0.005922726349633499
0.005922726535681403
0.00592272673209215
0.005922726952142899
0.005922727122915612
0.005922727277118484
0.005922727297695348
0.005922727287963881
0.005922727218047187
0.005922727082679928
0.005922726870634428
0.005922726694299433
0.005922726461119971
0.005922726248718965
0.005922726038272135
0.005922725878398386
0.005922725752469979
0.00592272569215278
0.005922725694849922
0.005922725708063224
0.005922725789130973
0.005922725965441896
0.005922726176174271
0.005922726400635264
0.005922726671717274
0.005922726896025587
0.005922727208839219
0.005922727448867241
0.005922727664370252
0.005922727790297781
0.005922727805809352
0.005849340121711372
0.00584934020663362
0.005849340268706073
0.005849340291600503
0.005849340279613835
0.005849340252257387
0.005849340170774297
0.005849340125831854
0.005849340062703903
0.005849340007704468
0.00584933992266286
0.00584933980404679
0.005849339740161532
0.005849339620632394
0.005849339587608958
0.005849339552899169
0.005849339521384354
0.005849339534075682
0.005849339523867575
0.005849339539389648
0.005849339531130675
0.005849339509113447
0.005849339456711968
0.005849339347394795
0.005849339252939981
0.005849339092128428
0.005849339012572828
0.005849338930277124
0.00584933885909296
0.005849338856679053
0.005849338872206021
0.00584933885008108
0.005849338882581261
0.005849338864207535
0.005849338943943886
0.005849338969339708
0.005849339158886344
0.005849339350776798
0.005849339533856517
0.005849339728891793
0.005849339823139793
0.005849339841761536
0.005849339812164089
0.005849339699482668
0.005849339561837624
0.005849339313509482
0.00584933915209578
0.005849338907325812
0.005849338731260114
0.005849338550380422
0.005849338423038819
0.005849338365000427
0.005849338284821355
0.005849338320456038
0.005849338290196098
0.005849338413778576
0.005849338557307931
0.005849338715686916
0.005849338905268848
0.005849339117922829
0.005849339278061825
0.005849339556481374
0.005849339744473893
0.00584933991661666