/*--------------------------------*- C++ -*----------------------------------*\
| =========                 |                                                 |
| \\      /  F ield         | OpenFOAM: The Open Source CFD Toolbox           |
|  \\    /   O peration     | Version:  v1812                                 |
|   \\  /    A nd           | Web:      www.OpenFOAM.com                      |
|    \\/     M anipulation  |                                                 |
\*---------------------------------------------------------------------------*/
FoamFile
{
    version     2.0;
    format      ascii;
    class       volScalarField;
    location    "3000";
    object      p;
}
// * * * * * * * * * * * * * * * * * * * * * * * * * * * * * * * * * * * * * //

dimensions      [0 2 -2 0 0 0 0];


internalField   nonuniform List<scalar> 
2838
(
-2.463033461647194e-08
3.006048264414906e-07
9.145920054535959e-07
2.852003522781757e-07
-8.979886920975523e-07
-7.823313120977696e-07
-2.143553275145725e-07
-3.664161937840537e-07
-3.88753954726678e-07
-5.162783073202292e-07
-5.139864287413358e-07
-3.384664925892822e-07
-6.937577986573844e-07
-6.941275398900053e-07
-8.55604676397384e-08
6.752979759044037e-08
1.21399411380212e-07
7.357876578118108e-08
-2.663463798878618e-07
-6.937176056391729e-09
2.360011144108788e-07
-2.881993429849774e-07
-4.373588793198676e-07
-4.870806399680431e-07
-7.371058129999794e-07
-4.966812911062993e-07
3.526995706673354e-07
6.247073432683006e-07
4.487605308238099e-07
1.719294147931327e-07
-4.342470024006113e-07
-6.243948001984087e-07
-5.48308674473177e-07
-2.635254995388201e-07
1.176441428558831e-07
1.905284850590843e-07
2.210995468177651e-07
4.045765907767587e-07
9.963338354137924e-07
1.091755215667322e-06
-1.972928351016633e-08
-2.880492583681019e-07
4.677351464225218e-07
-8.17292259339355e-08
2.580560073918748e-07
6.572680342229174e-07
7.1615733304116e-07
1.073270162994974e-06
3.833588127670866e-07
-2.729759155856816e-07
-3.232697062455031e-07
1.992756853429822e-07
2.017723370035037e-07
-3.551449647654089e-07
-1.63868375539314e-06
-1.257218100604095e-06
-3.503434686135423e-07
-4.754044465347189e-07
-4.607056311479119e-07
-6.63196784284234e-07
-7.262819988786444e-07
-6.213085121478157e-07
-4.401783120062884e-07
-4.888723789420561e-07
-8.266523313896834e-07
-2.468209291856454e-07
-2.382121764990068e-08
2.423202204235001e-07
8.498529037974661e-07
2.811066317396728e-07
-8.497723047275196e-07
-7.117049866537519e-07
-1.935243557103064e-07
-3.74436257791471e-07
-3.918333704322367e-07
-5.147055070759406e-07
-5.181351931226977e-07
-3.316156284149275e-07
-6.853691779356127e-07
-6.985146575764649e-07
-9.177818345442656e-08
6.840140097712867e-08
1.26945415879796e-07
7.484369290243999e-08
-2.724177461532559e-07
-1.418492596862429e-08
2.413582634099473e-07
-2.750953201341918e-07
-4.334946700568779e-07
-4.880096098349529e-07
-7.413086693234076e-07
-5.040023893994822e-07
3.46708873632394e-07
6.251618061519411e-07
4.561206724239878e-07
1.725028814286712e-07
-4.274618533219861e-07
-6.164379095749342e-07
-5.573567675282656e-07
-2.732061508672818e-07
1.21398163972914e-07
1.986150692652805e-07
2.131594732233733e-07
3.99803381739072e-07
1.000383252178256e-06
1.091732740333006e-06
-1.991132776796435e-08
-3.533369340180532e-07
3.987899346536659e-07
-3.81152118753534e-08
2.563868709734319e-07
6.580375085947191e-07
7.181256710348308e-07
1.026639364811195e-06
3.81927057611587e-07
-2.659700984335236e-07
-3.195447565601671e-07
1.867557170756165e-07
2.06268577721048e-07
-3.43402694917234e-07
-1.591933774410474e-06
-1.197365077064157e-06
-3.383840746903491e-07
-4.786388609086572e-07
-4.61226151791455e-07
-6.558364164643319e-07
-7.207539315889152e-07
-6.284101043757914e-07
-4.4782612144936e-07
-4.81745114139481e-07
-8.191399579418946e-07
-2.570828898974412e-07
-1.637806305384849e-08
1.374626484049672e-07
7.148280402173108e-07
2.521766921445666e-07
-7.419880851689413e-07
-5.733983099188923e-07
-1.649627977936969e-07
-3.890558462226305e-07
-4.008459018901887e-07
-5.084588322716503e-07
-5.177983644943203e-07
-3.297490346810694e-07
-6.788738431402437e-07
-6.958780789720566e-07
-9.642923853857767e-08
6.401375455556138e-08
1.295635341565349e-07
8.288316860507737e-08
-2.758153798528015e-07
-3.071802043709276e-08
2.409840479609292e-07
-2.5296236762234e-07
-4.180163694605564e-07
-4.912290841400403e-07
-7.533723974331475e-07
-5.107982868031445e-07
3.350076701075653e-07
6.241489845146115e-07
4.7064030659614e-07
1.649986192391146e-07
-4.261933740896758e-07
-5.965617793961163e-07
-5.580792074258675e-07
-2.875497076131457e-07
1.301980501317873e-07
2.15868217977779e-07
1.937420827328334e-07
3.912183070953664e-07
1.011003302712076e-06
1.081629838743439e-06
-2.174303204266793e-08
-4.558011438939024e-07
2.590353470514261e-07
4.901818155284721e-08
2.78669079253407e-07
6.606214881998181e-07
7.188906504019461e-07
9.135127256027032e-07
3.616637321676835e-07
-2.521713702776168e-07
-3.157570703830999e-07
1.629219974512825e-07
2.065692494532655e-07
-3.303488085949013e-07
-1.478859021021762e-06
-1.069242025019745e-06
-3.218548483832037e-07
-4.913924983034816e-07
-4.683502912433168e-07
-6.361830466436826e-07
-7.073468634779514e-07
-6.409443148743804e-07
-4.638597371808411e-07
-4.668488401555568e-07
-7.961289797577862e-07
-2.679534431069468e-07
-1.780086827646017e-08
1.477987621811395e-08
5.405277953453924e-07
1.947354213811074e-07
-6.033734789930975e-07
-4.151156699307041e-07
-1.406785853920978e-07
-3.935867878885589e-07
-4.078695603536534e-07
-4.973442561749019e-07
-5.117666912685392e-07
-3.449969721999705e-07
-6.741945211898409e-07
-6.783217040790383e-07
-1.021241719273655e-07
4.450603780503499e-08
1.151783833230611e-07
1.019806014422684e-07
-2.566172401623916e-07
-4.849698475867876e-08
2.118570311365819e-07
-2.356403687473267e-07
-3.764354235213229e-07
-4.831203345952063e-07
-7.705744538719628e-07
-5.155773739523832e-07
3.091700972539285e-07
6.110441602605718e-07
4.887803965617576e-07
1.5037805599637e-07
-4.231305839872482e-07
-5.548149211154686e-07
-5.361659042694795e-07
-3.139526163582379e-07
1.361511311477147e-07
2.504238692955294e-07
1.758688168209567e-07
3.801065122586896e-07
1.003680216230196e-06
1.041023039085761e-06
-1.822087710483999e-08
-5.403388690021921e-07
8.78379403620922e-08
1.434029778613112e-07
3.271805139196085e-07
6.641417746405187e-07
7.142594178387254e-07
7.628914480220108e-07
3.187604701739464e-07
-2.258349080730898e-07
-3.120333068855928e-07
1.073892780921896e-07
1.834048342678328e-07
-3.054145569761074e-07
-1.308205287418595e-06
-9.038472341173267e-07
-3.031650295596227e-07
-5.223972477095709e-07
-4.827681149201647e-07
-5.925352422447266e-07
-6.780824762030827e-07
-6.578600953413363e-07
-4.902661828348987e-07
-4.351776779539948e-07
-7.527717748253862e-07
-2.813279910001814e-07
-3.923360812912235e-08
-8.532237780633065e-08
3.984858649447512e-07
1.416118449660035e-07
-4.978277037268458e-07
-3.087089270969574e-07
-1.326070259393698e-07
-3.8287372274602e-07
-3.98235264433314e-07
-4.815873934965901e-07
-5.054685962840526e-07
-3.736999133276368e-07
-6.695475047155748e-07
-6.526392611827977e-07
-1.106558606040096e-07
2.254461173774936e-08
8.529922337925146e-08
1.127531525902691e-07
-2.18823827877218e-07
-5.51428693862399e-08
1.6120608283993e-07
-2.360648860839775e-07
-3.287801306525341e-07
-4.526202475398474e-07
-7.711083271360821e-07
-5.180457937077521e-07
2.693350396853384e-07
5.768400666080306e-07
4.970300833798596e-07
1.374203684845469e-07
-4.093418998810651e-07
-4.957700925423101e-07
-4.922207527287952e-07
-3.498203017232841e-07
1.279738391553137e-07
2.963539595214652e-07
1.794323693571649e-07
3.734806140147073e-07
9.630355084351397e-07
9.668600626900983e-07
-6.801709412151184e-09
-5.707793783888716e-07
-3.834407625563648e-08
2.038011905761843e-07
3.653269415978415e-07
6.647042549036453e-07
7.057631930352057e-07
6.500788635845726e-07
2.790244078995025e-07
-1.889138783976364e-07
-3.054654714460409e-07
2.697962450575836e-08
1.326208692088989e-07
-2.75284028856537e-07
-1.145354583166036e-06
-7.70493709527856e-07
-2.824083586752329e-07
-5.628378099058909e-07
-4.977620146876835e-07
-5.307873098072556e-07
-6.379728084692598e-07
-6.704944806780979e-07
-5.176655180656428e-07
-3.925005369756928e-07
-6.961301041813356e-07
-3.004635543394845e-07
-6.414419965370365e-08
-1.556309445801001e-07
3.018406258581272e-07
9.990187669993787e-08
-4.313122604201711e-07
-2.628246757779642e-07
-1.440837183092606e-07
-3.725784604535085e-07
-3.834437079260068e-07
-4.518495912569862e-07
-4.965337842942187e-07
-4.02927602621199e-07
-6.607411864255588e-07
-6.257582552652322e-07
-1.248997884746888e-07
-1.548900318543645e-09
5.626651025081075e-08
1.068631125781307e-07
-1.788831964960331e-07
-5.781280336256404e-08
1.080220431504748e-07
-2.370836095524139e-07
-2.942326392354835e-07
-4.091854024101886e-07
-7.39220191381069e-07
-5.215413415493671e-07
2.103532996156535e-07
5.211639481207383e-07
4.943433886735393e-07
1.275582088386719e-07
-3.932121660680444e-07
-4.181312450364244e-07
-4.29571263038837e-07
-3.746729107028986e-07
1.016560033247436e-07
3.234914380452979e-07
1.940946078064584e-07
3.763053858792138e-07
9.046051864984558e-07
8.771237860357504e-07
1.843740949836647e-08
-5.483511026633767e-07
-1.030005729349265e-07
2.266831676904345e-07
3.853042263683123e-07
6.581829156013774e-07
6.894626764177199e-07
5.811719093731252e-07
2.464454408908956e-07
-1.437505786518688e-07
-2.858434487996301e-07
-5.705492703727035e-08
5.750889031385738e-08
-2.545577684743456e-07
-1.002585663697746e-06
-6.83108453265343e-07
-2.741684348450845e-07
-5.966366141233877e-07
-5.094866659003414e-07
-4.6714781316198e-07
-6.002522600584266e-07
-6.710911457921587e-07
-5.329418828230451e-07
-3.616930341299351e-07
-6.368683829759751e-07
-3.085967324869602e-07
-6.495122482541262e-08
-1.821337603557424e-07
2.396580569805921e-07
7.19338867131893e-08
-3.911320697238361e-07
-2.665874398881376e-07
-1.638117964862619e-07
-3.619864453718457e-07
-3.879585169149907e-07
-4.184457804010322e-07
-4.77822628273515e-07
-4.255311030543373e-07
-6.415464836915161e-07
-5.945488943147399e-07
-1.394266838006619e-07
-3.545520145340716e-08
2.85655902082684e-08
9.377181054494597e-08
-1.392624749512673e-07
-6.707376112574551e-08
5.321881832676389e-08
-2.247608431193132e-07
-2.697781466247039e-07
-3.741088846602755e-07
-6.808315520543787e-07
-5.099543446481998e-07
1.468495858832486e-07
4.496582102459826e-07
4.722562436297601e-07
1.240940882897794e-07
-3.840501395623178e-07
-3.499220290160745e-07
-3.602276449531016e-07
-3.572725143205728e-07
6.378206439725382e-08
3.001953892336675e-07
2.106758853034373e-07
3.869924743506644e-07
8.326723861978873e-07
7.922499485988313e-07
7.370412141251553e-08
-4.787299302196713e-07
-1.162138878539322e-07
2.217208214064238e-07
3.84993904512345e-07
6.368462300928779e-07
6.575556730648499e-07
5.378378823920643e-07
2.261654636213335e-07
-9.777068020863378e-08
-2.435356523737136e-07
-1.087547460219069e-07
-2.619845363877821e-08
-2.48644700922876e-07
-8.826835234566593e-07
-6.411173040139303e-07
-2.924938119350973e-07
-6.045580771196029e-07
-5.154091479075209e-07
-4.357420185001799e-07
-5.742987458309975e-07
-6.483773399707841e-07
-5.343369108974433e-07
-3.678141440587073e-07
-5.945371338269848e-07
-3.042250623140277e-07
-4.573015487741067e-08
-1.705020123154881e-07
1.72521100730003e-07
4.92573886819732e-08
-3.562165650616913e-07
-2.874449222141027e-07
-1.922494461009464e-07
-3.447216546084282e-07
-3.926039801944277e-07
-4.047884951297019e-07
-4.572885793783457e-07
-4.387364791477757e-07
-6.025785175021671e-07
-5.519635967976153e-07
-1.524488636537065e-07
-5.891932327755296e-08
-1.376261436408577e-08
6.642469057001667e-08
-9.462174349156417e-08
-7.167994859776474e-08
-6.618692640392585e-09
-2.24642597025568e-07
-2.571840119061724e-07
-3.402326460673079e-07
-6.035167564004565e-07
-4.695252607730526e-07
1.034278477303582e-07
3.66577589461583e-07
4.106455241500397e-07
1.300370042097182e-07
-3.576890877837861e-07
-3.222229271662281e-07
-3.020421084177521e-07
-3.031273363304257e-07
3.791937229546752e-08
2.533163963632221e-07
2.273086632788847e-07
3.862660810984269e-07
7.424748623157652e-07
7.013168236160138e-07
1.30474841207309e-07
-3.659598489658366e-07
-9.429426529078222e-08
2.115155723595122e-07
3.685684296359288e-07
5.94783811121209e-07
6.055344742998292e-07
4.923789778941226e-07
2.202404228567933e-07
-6.518635234182043e-08
-2.07303984194012e-07
-1.180516482180251e-07
-9.404943978242464e-08
-2.487558416209792e-07
-7.640153949524544e-07
-6.206093721421977e-07
-3.332401032001843e-07
-5.908146788524618e-07
-5.048311859466843e-07
-4.314313671404229e-07
-5.649047687195431e-07
-6.203195866848866e-07
-5.335601832312835e-07
-3.773777635245236e-07
-5.475928452703603e-07
-3.128482571118449e-07
-3.570872272357362e-08
-1.527861044580955e-07
9.869764059814775e-08
2.379302569519917e-08
-3.208586739123414e-07
-3.028271656789373e-07
-2.237908240570504e-07
-3.274790870597004e-07
-3.864837078722858e-07
-3.983665792138649e-07
-4.375463885816495e-07
-4.398646071555136e-07
-5.559191192630553e-07
-5.06900767169338e-07
-1.739378696176406e-07
-7.698592319110662e-08
-4.586885583221106e-08
2.400745031364856e-08
-6.691642750611132e-08
-7.102089150207834e-08
-5.55320453072858e-08
-2.294192915612564e-07
-2.589668401844655e-07
-3.085071440490475e-07
-5.126165291443541e-07
-4.156088394112942e-07
6.554232894762713e-08
2.844207691393413e-07
3.289802883812092e-07
1.258281144827029e-07
-3.073239648352719e-07
-2.958143262263237e-07
-2.56766288926973e-07
-2.411060850265462e-07
2.580194702370877e-08
2.054054441909816e-07
2.354871039466548e-07
3.713815572343294e-07
6.488929465935453e-07
6.076217112407403e-07
1.716681041007785e-07
-2.402552341519244e-07
-5.49908077035623e-08
2.047849068158374e-07
3.445851638352587e-07
5.394537314476087e-07
5.422929085856085e-07
4.410059700664836e-07
2.122731807233735e-07
-3.874320162257482e-08
-1.749902323110945e-07
-1.122848771366592e-07
-1.4311606047761e-07
-2.585662340106995e-07
-6.549352331728491e-07
-5.916755721092361e-07
-3.725954054123678e-07
-5.713896458386458e-07
-4.915545533062898e-07
-4.292120423399769e-07
-5.525699172351679e-07
-5.946675207313663e-07
-5.223276724690012e-07
-3.823198749585172e-07
-4.981911999380015e-07
-3.241348573875485e-07
-4.546919419650426e-08
-1.393191118441309e-07
3.371931146890343e-08
-4.162711755764564e-09
-2.912546798169782e-07
-3.09870339925777e-07
-2.488358973361396e-07
-3.166267628563965e-07
-3.773261648337247e-07
-3.90372938815492e-07
-4.177580658270401e-07
-4.309526487341814e-07
-5.09959153842369e-07
-4.677709058906677e-07
-1.981164289382196e-07
-9.556193781947562e-08
-6.970387916572886e-08
-1.84997303861861e-08
-5.364400296208897e-08
-7.081637468591702e-08
-9.288949624278883e-08
-2.313289463556926e-07
-2.628793656955481e-07
-2.817374181378101e-07
-4.299840781619734e-07
-3.65328505603644e-07
3.152724185549527e-08
2.152222995735706e-07
2.530531294385047e-07
1.144163669982999e-07
-2.502591455304069e-07
-2.641394474177849e-07
-2.22070433170075e-07
-1.882959263906922e-07
2.278836607084444e-08
1.65458883349617e-07
2.30650270468392e-07
3.476375399395225e-07
5.672324104809649e-07
5.260820604393173e-07
2.003095830482612e-07
-1.269861923303323e-07
-1.368319924602348e-08
1.992811458080996e-07
3.178532748294138e-07
4.812897438193225e-07
4.79347484654666e-07
3.899267550016553e-07
1.986514108519104e-07
-1.796123794894238e-08
-1.456730593618011e-07
-1.072953632229974e-07
-1.782506509500674e-07
-2.695258393701776e-07
-5.614842780321745e-07
-5.523740581868739e-07
-3.990032079495197e-07
-5.500562236513361e-07
-4.805432371210372e-07
-4.280305894097543e-07
-5.382005837537679e-07
-5.723870344114038e-07
-5.031716329473596e-07
-3.839040467115751e-07
-4.488501748896386e-07
-3.274358975408433e-07
-6.648064277139061e-08
-1.294702212349924e-07
-1.843189416523683e-08
-3.332075044975004e-08
-2.691206049334761e-07
-3.112898008284629e-07
-2.669400042422147e-07
-3.105980406950956e-07
-3.668691126377233e-07
-3.806905762072206e-07
-3.990823766909457e-07
-4.167465115552127e-07
-4.702977860104365e-07
-4.35110878777579e-07
-2.196927995510385e-07
-1.164737735682557e-07
-8.710655988245878e-08
-5.106201998038006e-08
-5.158273968654663e-08
-7.249316775424258e-08
-1.194333568731298e-07
-2.30921933611002e-07
-2.627639246603685e-07
-2.615525316506091e-07
-3.646823449763163e-07
-3.226287208662591e-07
2.377466756348149e-09
1.609687738624117e-07
1.93268110759725e-07
1.006989541819408e-07
-1.982632314455683e-07
-2.305584337674116e-07
-1.946546937948542e-07
-1.4910365893752e-07
2.234086056177189e-08
1.343477751319626e-07
2.193783157834826e-07
3.214970360434847e-07
4.993961299426889e-07
4.613935201461104e-07
2.186251840651582e-07
-3.735549007357657e-08
2.243279034209186e-08
1.937051263257863e-07
2.913479977026908e-07
4.263154160686032e-07
4.220499801515108e-07
3.424673603750151e-07
1.821094305851326e-07
-2.509160689334534e-09
-1.218671881389495e-07
-1.048766888287442e-07
-1.984976398495622e-07
-2.736979589498314e-07
-4.866976048973285e-07
-5.109082292698094e-07
-4.130577164118111e-07
-5.298207325870251e-07
-4.715682737367019e-07
-4.280205431153552e-07
-5.21375835899843e-07
-5.514726541693735e-07
-4.826107817327434e-07
-3.825994637324328e-07
-4.055548880883428e-07
-3.251486585732032e-07
-9.165657406304043e-08
-1.234625774004889e-07
-5.880717315528346e-08
-6.217807388050827e-08
-2.535996822496387e-07
-3.092615411534817e-07
-2.790819164154175e-07
-3.069457977844578e-07
-3.5594922552419e-07
-3.696418622126389e-07
-3.818187767157625e-07
-4.006668207792331e-07
-4.375028965950522e-07
-4.078096855488688e-07
-2.368458255291508e-07
-1.379961289507449e-07
-1.0013901402504e-07
-7.382494975414045e-08
-5.688827748290799e-08
-7.655406306981055e-08
-1.376529157851163e-07
-2.28706020024532e-07
-2.593283518540636e-07
-2.47277602318245e-07
-3.150690909922919e-07
-2.866495946404394e-07
-2.153314130169328e-08
1.189699937011058e-07
1.485306934555612e-07
8.666644055441901e-08
-1.545429475620932e-07
-1.97091660277993e-07
-1.71143880062586e-07
-1.215687674065273e-07
2.106853288811623e-08
1.108059166617747e-07
2.057732679163397e-07
2.956744213224032e-07
4.434291165478823e-07
4.11038081329428e-07
2.288527358678076e-07
2.98325880463423e-08
5.203911466854786e-08
1.874478357332909e-07
2.660032323956982e-07
3.762258895349613e-07
3.708970024702915e-07
2.996681588572643e-07
1.646998729078854e-07
8.265012840332049e-09
-1.03051540130342e-07
-1.032942184434537e-07
-2.06259556841161e-07
-2.71405794668787e-07
-4.290175639958713e-07
-4.722237653694736e-07
-4.17850591516297e-07
-5.103106269174739e-07
-4.634114402002535e-07
-4.284619324623381e-07
-5.031714133293568e-07
-5.308708984092676e-07
-4.627155825645968e-07
-3.792960022205248e-07
-3.711605048862793e-07
-3.192669001654361e-07
-1.170379908182532e-07
-1.214897829021651e-07
-8.964913568545389e-08
-8.950310181731387e-08
-2.433288328889375e-07
-3.052104042621571e-07
-2.86385762872029e-07
-3.041388353106087e-07
-3.450393565664966e-07
-3.577150705092986e-07
-3.660373734596824e-07
-3.842594808047501e-07
-4.100427076487957e-07
-3.848266025603771e-07
-2.497140193019861e-07
-1.582104026625101e-07
-1.110763287805621e-07
-8.997900372803686e-08
-6.612194176570954e-08
-8.245366286192934e-08
-1.496010878516338e-07
-2.254102237350007e-07
-2.541974087858691e-07
-2.371348524285311e-07
-2.776653286599731e-07
-2.563741908594418e-07
-4.072932403430222e-08
8.59874167037751e-08
1.155401632083234e-07
7.407406863352284e-08
-1.183305091316066e-07
-1.651232584143621e-07
-1.50396135187589e-07
-1.030456799428787e-07
1.808482050641308e-08
9.299967598717242e-08
1.915152295269113e-07
2.714626989298421e-07
3.970228718970334e-07
3.713687554421152e-07
2.332402414886226e-07
7.889141344274108e-08
7.573606241009627e-08
1.80531141744934e-07
2.421027444720195e-07
3.3110235595573e-07
3.252197333581405e-07
2.614533026943295e-07
1.473941575130587e-07
1.533172449414938e-08
-8.777523895121212e-08
-1.012751247129458e-07
-2.055997769915861e-07
-2.648497653671339e-07
-3.847775132741796e-07
-4.376620296413071e-07
-4.158670868360876e-07
-4.912823875772204e-07
-4.554181798941398e-07
-4.285872070241664e-07
-4.849488454647389e-07
-5.105422797240734e-07
-4.442790230727699e-07
-3.747249820756994e-07
-3.454913542945519e-07
-3.110379033027217e-07
-1.406542250135219e-07
-1.233952538239794e-07
-1.130777553652527e-07
-1.142868685987082e-07
-2.369167496210147e-07
-3.000847937308304e-07
-2.900049316161929e-07
-3.013858240511114e-07
-3.344423842474512e-07
-3.45449601320625e-07
-3.514685984744621e-07
-3.67989216946093e-07
-3.86571374621149e-07
-3.654280803750718e-07
-2.589193198243755e-07
-1.762101190421498e-07
-1.215727463729097e-07
-1.021394849581223e-07
-7.681781546781756e-08
-8.936884259817331e-08
-1.569464818508841e-07
-2.216474301700977e-07
-2.485220317058582e-07
-2.296985711435749e-07
-2.496877067173212e-07
-2.310553650168303e-07
-5.573966147753103e-08
5.976251801315276e-08
9.137297391803609e-08
6.40971364928235e-08
-8.818590844437241e-08
-1.358890030119142e-07
-1.323560002795655e-07
-9.095184715396926e-08
1.356368129176805e-08
7.917291764764479e-08
1.772800313490884e-07
2.493588998897948e-07
3.581915167215899e-07
3.394328119651911e-07
2.335337931164889e-07
1.13933333163187e-07
9.451168271485844e-08
1.732521215731622e-07
2.197345865616177e-07
2.905296764690285e-07
2.842420868181561e-07
2.273835324934044e-07
1.307130632414526e-07
1.966870503827963e-08
-7.489183675985804e-08
-9.839764453611497e-08
-1.998766484013728e-07
-2.557030322797548e-07
-3.503394181579408e-07
-4.07234535728141e-07
-4.090383266721904e-07
-4.727840294319176e-07
-4.474327290239551e-07
-4.280183750373527e-07
-4.678019482141992e-07
-4.906393305352464e-07
-4.275328605639105e-07
-3.692156105592982e-07
-3.270939554148863e-07
-3.016483856185727e-07
-1.616411482032203e-07
-1.285878117686079e-07
-1.308734518010338e-07
-1.358898759919235e-07
-2.332216124143319e-07
-2.946006472422753e-07
-2.909908668387451e-07
-2.983178934754823e-07
-3.243125518646236e-07
-3.332025501958749e-07
-3.377705963206754e-07
-3.521027326829066e-07
-3.662353786924278e-07
-3.490222259882988e-07
-2.651879115898201e-07
-1.917049816186073e-07
-1.322234721673342e-07
-1.119936768786948e-07
-8.745715309726645e-08
-9.661114646440759e-08
-1.611289234503022e-07
-2.178557253534538e-07
-2.42982051011593e-07
-2.24098765984926e-07
-2.288920592885108e-07
-2.099797499169531e-07
-6.704797072250546e-08
3.879777270756636e-08
7.378253803654678e-08
5.716381287045775e-08
-6.289911140783998e-08
-1.102000402370335e-07
-1.169567552129085e-07
-8.307168036218212e-08
7.938047032370489e-09
6.784255959670633e-08
1.632581616383248e-07
2.294201562741592e-07
3.254028923920221e-07
3.131376918944727e-07
2.311244576547908e-07
1.38458524951974e-07
1.092540814575349e-07
1.657942477894126e-07
1.988052637798486e-07
2.539845513342493e-07
2.473195440844678e-07
1.96959122284085e-07
1.149574080098326e-07
2.209318480229687e-08
-6.366362642667886e-08
-9.458150826721123e-08
-1.913666363344328e-07
-2.450787771641172e-07
-3.227324409989552e-07
-3.80406892599382e-07
-3.989843391357064e-07
-4.551374252244077e-07
-4.395878970469684e-07
-4.265785097368046e-07
-4.523204783537184e-07
-4.713624317546334e-07
-4.1241121218199e-07
-3.628845182212054e-07
-3.142868986065981e-07
-2.923119672164525e-07
-1.797350676676039e-07
-1.362107704767016e-07
-1.444381549123965e-07
-1.540955498856579e-07
-2.313889046533326e-07
-2.892514618706723e-07
-2.901748132694268e-07
-2.947865914534198e-07
-3.146702164982771e-07
-3.211886431102019e-07
-3.247657865501247e-07
-3.368354165221547e-07
-3.48474398823053e-07
-3.350232873349165e-07
-2.691180493281274e-07
-2.046436958487009e-07
-1.430022613862743e-07
-1.205713114122482e-07
-9.738924000483896e-08
-1.038654788012984e-07
-1.633121510642519e-07
-2.142206588328385e-07
-2.378835651069591e-07
-2.197803302979104e-07
-2.13515909963393e-07
-1.925194034312921e-07
-7.520314108911886e-08
2.210670272450292e-08
6.107111018808846e-08
5.307380075364328e-08
-4.159899942417853e-08
-8.826986299294248e-08
-1.038831810855827e-07
-7.780242750418864e-08
1.4979221064103e-09
5.787946291430255e-08
1.494413640684625e-07
2.115358922776345e-07
2.975275419307324e-07
2.911053863056583e-07
2.270708739314908e-07
1.551167352866734e-07
1.205754992013007e-07
1.581661184224061e-07
1.791634306004404e-07
2.209426758405877e-07
2.139066681819366e-07
1.696624250160226e-07
1.003177363012712e-07
2.32536516629797e-08
-5.364500551021685e-08
-8.999701532661656e-08
-1.813547122637839e-07
-2.336110240496321e-07
-2.997943322578141e-07
-3.566425037489795e-07
-3.869557915129703e-07
-4.385644974630854e-07
-4.320442906387437e-07
-4.241973520737058e-07
-4.386695995336542e-07
-4.528337948095957e-07
-3.986795587946985e-07
-3.558718948198248e-07
-3.056156981801282e-07
-2.83987843853799e-07
-1.950096518093276e-07
-1.453743897877302e-07
-1.549800259144061e-07
-1.690545073192161e-07
-2.307507980802059e-07
-2.84319435038035e-07
-2.88162170183833e-07
-2.90750231680531e-07
-3.054710049717416e-07
-3.095781639685834e-07
-3.124381731436022e-07
-3.224096204515078e-07
-3.328690071557187e-07
-3.228469606879872e-07
-2.711190959241014e-07
-2.150456942517061e-07
-1.535755966841421e-07
-1.285408668098074e-07
-1.065169720482683e-07
-1.110040681531882e-07
-1.643405009134167e-07
-2.108200249765168e-07
-2.333060615957494e-07
-2.163583339421858e-07
-2.021104972238055e-07
-1.780970430468767e-07
-8.075085577506548e-08
8.994637592517509e-09
5.197774287148857e-08
5.130246700577825e-08
-2.362558188863581e-08
-6.988746649189623e-08
-9.270332760380233e-08
-7.413146085943946e-08
-5.560057138274184e-09
4.849085131515806e-08
1.358208498640774e-07
1.955952255522116e-07
2.737728561750831e-07
2.724302479788464e-07
2.221094831668064e-07
1.659261087177618e-07
1.289243846835665e-07
1.50312969146588e-07
1.606392154096026e-07
1.909589040102985e-07
1.835632276832367e-07
1.450522159913854e-07
8.688859394846312e-08
2.363825064889027e-08
-4.456464569871826e-08
-8.475321055153233e-08
-1.705767751121709e-07
-2.217904689770641e-07
-2.800618318447696e-07
-3.353308560239259e-07
-3.738808748044647e-07
-4.232718109608991e-07
-4.249730479484832e-07
-4.20906536986756e-07
-4.267432558367788e-07
-4.35178712003822e-07
-3.861188986969215e-07
-3.484324081666297e-07
-2.998669901188984e-07
-2.772422651597307e-07
-2.077438319370919e-07
-1.553145334164176e-07
-1.634339858997965e-07
-1.810754123737517e-07
-2.307666813405013e-07
-2.799395641097855e-07
-2.853828377836801e-07
-2.862391414668234e-07
-2.966981788940317e-07
-2.985739963527823e-07
-3.008884061615988e-07
-3.089681951305132e-07
-3.19042032662199e-07
-3.119178988315441e-07
-2.714384881731601e-07
-2.229981313205529e-07
-1.636408514624149e-07
-1.363656586044157e-07
-1.150278624430366e-07
-1.180489575515714e-07
-1.648204037344441e-07
-2.076694409364344e-07
-2.291765958036464e-07
-2.135223936324541e-07
-1.935339498902846e-07
-1.6622446698732e-07
-8.426678303624858e-08
-1.11265709287906e-09
4.55753755538347e-08
5.120463806569534e-08
-8.47369520993781e-09
-5.461109259212707e-08
-8.296998834114724e-08
-7.153002770695151e-08
-1.318058770259128e-08
3.921996478236376e-08
1.224559478991922e-07
1.815292064923673e-07
2.535459727917229e-07
2.564506396445853e-07
2.167016385827693e-07
1.72328553146779e-07
1.3463807996322e-07
1.421282400434228e-07
1.430983434238274e-07
1.636549441328237e-07
1.559312710424508e-07
1.227463893453475e-07
7.47296503940944e-08
2.363759398028109e-08
-3.621526937896674e-08
-7.905791534916376e-08
-1.594582635717938e-07
-2.099547009871617e-07
-2.62536615028012e-07
-3.16006864119924e-07
-3.604262949811781e-07
-4.09357276990447e-07
-4.184544566119769e-07
-4.167627667090555e-07
-4.16306483028659e-07
-4.18496936446579e-07
-3.745507623311113e-07
-3.408215167177757e-07
-2.960566307515322e-07
-2.722633979361447e-07
-2.183497607729836e-07
-1.65403918569029e-07
-1.705070424222458e-07
-1.905820066681353e-07
-2.310292199041702e-07
-2.761597699908091e-07
-2.821206331345746e-07
-2.813222150862274e-07
-2.88379772829991e-07
-2.883637375428597e-07
-2.901951415153772e-07
-2.965519000858623e-07
-3.066769646675627e-07
-3.017519154248601e-07
-2.702574292152767e-07
-2.286338121800556e-07
-1.729294778441525e-07
-1.442790583926298e-07
-1.231769255104082e-07
-1.250599259994741e-07
-1.651569800419656e-07
-2.047928331356543e-07
-2.253886626362967e-07
-2.110298802910805e-07
-1.868740707810651e-07
-1.564376803115338e-07
-8.62511900062317e-08
-8.647668044566148e-09
4.125163020415231e-08
5.221853200541271e-08
4.214321987287065e-09
-4.195336947943318e-08
-7.434624858156463e-08
-6.980571907190708e-08
-2.131600142488298e-08
2.98641352016472e-08
1.094987511556258e-07
1.692971356289944e-07
2.363942304253715e-07
2.42659096979667e-07
2.110912195535418e-07
1.754456647378628e-07
1.380233137845471e-07
1.335293143073116e-07
1.264153777215499e-07
1.387567430407931e-07
1.307465420756836e-07
1.024680302282708e-07
6.386311973205926e-08
2.357376944260551e-08
-2.845802278964729e-08
-7.307602599161591e-08
-1.483408157220586e-07
-1.983820441162036e-07
-2.465960544681159e-07
-2.982500866624056e-07
-3.470686920676878e-07
-3.969100248422704e-07
-4.125242026980925e-07
-4.118700457607595e-07
-4.070752154014411e-07
-4.029208827361917e-07
-3.63878694122914e-07
-3.332796032842946e-07
-2.93408136757485e-07
-2.689836800290648e-07
-2.272730616146875e-07
-1.751666818705014e-07
-1.766681758192808e-07
-1.979852988991577e-07
-2.312288321207092e-07
-2.729786925786406e-07
-2.785571129946716e-07
-2.761168998857247e-07
-2.806272779649953e-07
-2.791388269263891e-07
-2.804160904477955e-07
-2.851326939809099e-07
-2.955047536284001e-07
-2.919674822055418e-07
-2.677254816318364e-07
-2.321206312162173e-07
-1.812758789457983e-07
-1.52396794960494e-07
-1.312098734770645e-07
-1.32146191206147e-07
-1.656479156178655e-07
-2.022325891859782e-07
-2.218257801144428e-07
-2.086755878745012e-07
-1.813985558930283e-07
-1.483226839931602e-07
-8.715271935269077e-08
-1.400093322925471e-08
3.855686812575567e-08
5.380861179276927e-08
1.472060244982852e-08
-3.139954889488068e-08
-6.662923634045842e-08
-6.901562290036601e-08
-2.995429058409827e-08
2.047006956159535e-08