/*--------------------------------*- C++ -*----------------------------------*\
| =========                 |                                                 |
| \\      /  F ield         | OpenFOAM: The Open Source CFD Toolbox           |
|  \\    /   O peration     | Version:  v1812                                 |
|   \\  /    A nd           | Web:      www.OpenFOAM.com                      |
|    \\/     M anipulation  |                                                 |
\*---------------------------------------------------------------------------*/
FoamFile
{
    version     2.0;
    format      ascii;
    class       surfaceScalarField;
    location    "3000";
    object      phi;
}
// * * * * * * * * * * * * * * * * * * * * * * * * * * * * * * * * * * * * * //

dimensions      [0 3 -1 0 0 0 0];
oriented        oriented;


internalField   nonuniform List<scalar> 
5567
(
8.304829287223931e-05
-3.892025584600933e-09
8.302823924719472e-05
1.725205160976224e-08
8.300647790024704e-05
1.915289768264917e-08
8.300423001738533e-05
2.340478514353885e-09
8.302355875860638e-05
-1.844912291392448e-08
8.304666777822209e-05
-2.026422453211351e-08
8.305011549756576e-05
-1.614538604887149e-09
8.304944132685907e-05
9.400149113537056e-10
8.304898352483422e-05
5.87246068280171e-10
8.30480428648231e-05
9.133682488001861e-10
8.304854468532519e-05
-5.675094781729168e-10
8.30484001956668e-05
2.527766661939008e-11
8.304700972378422e-05
1.451177418318839e-09
8.304754968796253e-05
-6.545340454249857e-10
8.304879277622776e-05
-1.188515232809937e-09
8.304914606016858e-05
-3.848713590797572e-10
8.30492209934068e-05
-2.15309120946793e-10
8.304959546346566e-05
2.086168452931891e-11
8.305006614121189e-05
-5.868887280158604e-11
8.305010360961896e-05
-2.595272061539197e-10
8.304935724914464e-05
6.920618932116858e-10
8.304907410691956e-05
4.237848863901148e-10
8.304952328152801e-05
-3.276944736603656e-10
8.304864174034044e-05
5.926295624065211e-10
8.304744250213195e-05
1.096516822326108e-09
8.304806035337568e-05
-7.348134211207399e-10
8.304857103683686e-05
-6.810796911851752e-10
8.304878463887303e-05
-1.412390480030941e-10
8.304996447638971e-05
-1.112246339277273e-09
8.304974908715743e-05
2.60385674773599e-10
8.304799654921376e-05
1.918900425014886e-09
8.304688030236582e-05
9.015288523434729e-10
8.304704810733929e-05
-3.918827122767716e-11
8.304758096629046e-05
-4.794310107509345e-10
8.30490592131197e-05
-1.355005012802098e-09
8.304936721408723e-05
-4.766873795823049e-10
8.304862132002835e-05
6.137231020712185e-10
8.304944238829365e-05
-6.969221797052814e-10
8.305036785164286e-05
-9.026763692657037e-10
8.304896766138119e-05
1.256124375465482e-09
8.304591423636874e-05
3.399731615781424e-09
8.302540590185121e-05
1.841638088985851e-08
8.300555722523608e-05
1.75666846632169e-08
8.302216582718187e-05
-1.521583520749361e-08
8.302543681598754e-05
-3.032495565292848e-09
8.302651461756428e-05
-1.117483086475856e-09
8.302560440830963e-05
9.542404836471873e-10
8.300670326810128e-05
1.738836951947074e-08
8.300326799675339e-05
2.356843857861593e-09
8.300263880941168e-05
6.083784216541385e-10
8.300173036312321e-05
7.841129438926683e-10
8.300181641884456e-05
1.417667761848364e-10
8.300202839878285e-05
-6.726230504591554e-10
8.300230754615266e-05
1.117741187976493e-09
8.302222351169756e-05
-1.860058728746228e-08
8.304528708914147e-05
-2.139257156379503e-08
8.304871216551011e-05
-2.004712421126142e-09
8.304796156323193e-05
7.853179234425791e-10
8.3047985353618e-05
3.390347892390734e-10
8.304906996622315e-05
-1.125880755518091e-09
8.304954137697501e-05
-2.565517916898864e-10
8.304885353664401e-05
5.583360418895842e-10
8.304881450295329e-05
1.384879066497245e-11
8.304924963426496e-05
-4.150826664858287e-10
8.304995281490514e-05
-4.738316127417965e-10
-5.783584976622991e-10
0.0002454954337208806
-2.233692609037889e-09
0.000245468494761226
3.628271429025558e-08
0.0002454330105044384
4.502581388425714e-08
0.0002454229366507132
1.019373195272977e-08
0.0002454521031011106
-4.170526663192928e-08
0.0002454891501438287
-4.695015134634031e-08
0.0002454946591973279
-2.725749835895089e-09
0.0002454931350527112
2.720488487856189e-09
0.0002454917035653586
1.748062511685922e-09
0.000245490481773237
2.139897170835318e-09
0.0002454922098336481
-2.779872672902975e-09
0.0002454904829950921
1.615148234053848e-09
0.0002454869593749598
5.58471110562199e-09
0.0002454894135875046
-3.153008992281812e-09
0.0002454921912949931
-4.46303898608072e-09
0.0002454919538861048
-5.732487051823362e-10
0.000245491273059583
8.330777722522891e-10
0.0002454920441988838
5.063672159638975e-10
0.0002454950321639152
-2.136880993230309e-09
0.0002454965366037375
-1.988940201477069e-09
0.0002454925296733873
4.454745259033689e-09
0.0002454906923862116
2.551936106523914e-09
0.0002454928058689815
-2.261114504886251e-09
0.0002454915584465234
1.006491772749637e-09
0.0002454884771952349
3.658042978696832e-09
0.0002454906387087247
-2.979401559987618e-09
0.0002454923477271043
-2.682256571606059e-09
0.0002454919098799061
2.214374398268171e-13
0.0002454936827720432
-2.463204616476533e-09
0.0002454925222623678
1.904057231330219e-09
0.0002454889198976579
5.925173093092166e-09
0.0002454868029290475
3.011782042922063e-09
0.0002454875563849459
-1.226387141646856e-09
0.0002454891136715711
-2.538261066836781e-09
0.0002454935397717497
-4.963689949530749e-09
0.0002454947782295279
-1.232948738064417e-09
0.00024549231226603
2.394559776879236e-09
0.0002454948561703363
-3.134915632455233e-09
0.0002454970436341903
-2.537315101123499e-09
0.0002454916099030654
6.469285142476171e-09
0.000245486413775177
8.492881796902845e-09
0.0002454609866377189
3.627131732861358e-08
0.0002454280796839518
4.053868975918034e-08
0.0002454512960132852
-3.45363749548297e-08
0.0002454619953012626
-1.196669055303834e-08
0.0002454644991972869
-3.240722899249751e-09
0.0002454641607190042
1.307008668397386e-09
0.0002454330318024019
4.168822448177301e-08
0.0002454237263340056
9.17933884339813e-09
0.0002454228665214561
1.466491146967735e-09
0.0002454218573330974
1.862056102990828e-09
0.0002454207959218488
5.969915680335433e-10
0.0002454190969254913
-6.603973592096234e-11
0.0002454169300433649
5.513350315027064e-09
0.0002454487369553699
-4.332747829120884e-08
0.0002454871484481643
-5.098286868021134e-08
0.0002454922428754504
-3.872841781319987e-09
0.0002454895099036105
3.565725700102434e-09
0.0002454895778799117
1.21825129993574e-09
0.0002454925381765348
-3.640996586003351e-09
0.000245493261321797
-8.614204736427987e-10
0.0002454925285209038
8.948123469112615e-10
0.0002454927345091363
-4.822804329772738e-10
0.0002454938672470733
-1.001187800820319e-09
0.0002454960458571089
-2.117686153535122e-09
-2.706778546011875e-09
0.0004056942201270513
-1.078668743800182e-09
0.0004056920316323359
3.869491080912826e-08
0.0004056833568288518
5.408244951256465e-08
0.0004056747976094893
1.98107563104508e-08
0.0004056787972011494
-4.687775366019794e-08
0.0004056871334754349
-5.64830433707764e-08
0.0004056889316461083
-3.845493020905657e-09
0.0004056892715019796
2.570147309280502e-09
0.0004056901342069939
1.159289779226995e-09
0.0004056891164256251
3.168777597666245e-09
0.0004056890635661799
-2.653287126667376e-09
0.0004056857950061197
4.774193896934136e-09
0.0004056832866426736
7.982051283032532e-09
0.0004056859951227429
-6.021280367944465e-09
0.0004056879362567396
-6.172729348644803e-09
0.000405687764807071
-2.633028624468809e-10
0.000405686983139681
1.340158506570235e-09
0.0004056878643997077
-3.348884525067934e-10
0.0004056916142400118
-5.764172420578342e-09
0.0004056952248104864
-5.832701250981124e-09
0.000405690533965787
9.260009206928959e-09
0.0004056864349997274
6.722447185648257e-09
0.0004056878000526704
-3.574515198344067e-09
0.0004056870201397798
1.688239221018804e-09
0.0004056851042043225
5.66555719988894e-09
0.0004056878092338474
-5.774003785374214e-09
0.0004056899428801815
-4.915950461164357e-09
0.0004056895390021701
5.85090550999507e-10
0.0004056890395448468
-2.074992677478882e-09
0.0004056868541844079
3.912608181500411e-09
0.0004056861915608322
6.706502084378956e-09
0.0004056852915388255
3.685990557742137e-09
0.0004056854244725125
-1.012344382848552e-09
0.0004056857594531708
-2.69062682403208e-09
0.0004056898599312379
-9.171490381102378e-09
0.0004056920843826505
-3.765877555693733e-09
0.0004056914229631962
3.139335334504024e-09
0.0004056952715287721
-6.886244161699159e-09
0.0004056969268704419
-4.284640996227851e-09
0.0004056898251963149
1.347553475890405e-08
0.0004056832763746908
1.558277104743773e-08
0.0004056832259247952
3.668308426389129e-08
0.0004056776765151198
4.691025590326741e-08
0.0004056787810148069
-3.536226902075816e-08
0.0004056871696002955
-2.070629734725478e-08
0.0004056895828246714
-5.798262221301433e-09
0.0004056896337022032
1.407040845470622e-09
0.0004056829135187487
4.914854622914397e-08
0.0004056751633880446
1.65128159896624e-08
0.0004056743085806883
2.412080606779068e-09
0.0004056736445884188
2.334847127696502e-09
0.0004056701849191788
4.578370207284474e-09
0.000405666930572923
2.865640745303231e-09
0.0004056659715816715
7.365318035201898e-09
0.0004056745303461367
-5.313628869161088e-08
0.0004056865083416137
-6.426148104371793e-08
0.0004056890436266924
-5.854190372212927e-09
0.0004056861384413045
6.381718434896135e-09
0.0004056872326180311
2.714506964919809e-10
0.0004056903280505766
-6.979557646131634e-09
0.000405690461073078
-7.297596544329296e-10
0.0004056894243294173
1.880469416022749e-09
0.000405690408505212
-1.405622019180592e-09
0.0004056935944441859
-4.347006559855039e-09
0.0004056956564199567
-4.014115220661477e-09
-2.987081181608733e-09
0.0005865259416980942
2.343495137221248e-10
0.0005865409569041514
2.174989382706771e-08
0.000586557993557189
3.474728843193824e-08
0.0005865588361479887
1.889494256840099e-08
0.0005865418945474078
-2.906323896730678e-08
0.0005865233784121973
-3.608654210088275e-08
0.000586520633218534
6.369891520518712e-10
0.0005865211658960769
2.408860297602638e-09
0.0005865237450581699
-1.311522187351862e-09
0.0005865236211513598
3.361415971219073e-09
0.0005865214236241137
-5.842882874266633e-10
0.0005865190224451848
6.942425000560994e-09
0.0005865196001325153
7.570165014640522e-09
0.0005865209482002099
-7.399649802018967e-09
0.0005865205671970278
-5.885242729781745e-09
0.0005865211278909757
-1.118432802774465e-09
0.000586521822511729
5.198609172046848e-10
0.0005865215519157169
6.390237135692603e-10
0.0005865230020822916
-6.594494001640693e-09
0.0005865259567547021
-9.007290760628617e-09
0.0005865240391365893
1.100315912333481e-08
0.0005865207743689315
1.011415113974659e-08
0.0005865189960752029
-1.498070843061355e-09
0.0005865190872987094
1.344462290015144e-09
0.0005865210781223707
3.439774862737705e-09
0.0005865224908609821
-7.476866594251146e-09
0.0005865232802436081
-6.055219556920337e-09
0.0005865235589979049
3.71706370209622e-10
0.0005865218795863157
-9.79665524551872e-11
0.0005865192721258263
6.683443974819977e-09
0.000586520938771301
5.292089479255759e-09
0.0005865229297520405
1.747344118005708e-09
0.0005865224231853388
-4.089925706881402e-10
0.0005865210473745191
-1.604290812369514e-09
0.0005865217235671028
-9.774823180131816e-09
0.0005865223979199175
-4.506939158226639e-09
0.0005865238785340329
1.379020542238436e-09
0.0005865270397067579
-1.00668241479727e-08
0.0005865278464812835
-4.995477554676497e-09
0.0005865240771710535
1.722849855702036e-08
0.0005865190850561672
2.078446557012549e-08
0.0005865348253132428
1.915619207718451e-08
0.0005865552767015886
2.414895424919879e-08
0.0005865421233199578
-2.16826042179562e-08
0.000586541367983674
-1.979882520700572e-08
0.0005865419823320474
-6.409043066512343e-09
0.0005865416674520954
1.656699033554848e-09
0.0005865578175422262
3.167719084872004e-08
0.0005865572958530348
1.603684454807403e-08
0.0005865560842220648
3.571588946116417e-09
0.0005865565401248414
1.659285070430208e-09
0.0005865543256805887
6.802897157624199e-09
0.0005865511982634392
5.3875595732948e-09
0.0005865516805949847
8.367520003370314e-09
0.0005865384977478758
-3.836250977928127e-08
0.0005865236160098345
-4.75041196543467e-08
0.0005865217303341169
-2.611133611086294e-09
0.0005865203726784073
7.708619581681947e-09
0.0005865221886498851
-9.83512923313766e-10
0.0005865231652725878
-7.805761642254145e-09
0.000586522227429376
3.296500954651515e-10
0.0005865213409201863
2.510348390364038e-09
0.0005865226679134827
-2.792242554196402e-09
0.000586524786716153
-6.313843162403937e-09
0.0005865261169762973
-5.032547443945744e-09
-4.753988445961886e-09
0.0009311663588124989
-4.980974872823175e-10
0.0009311820276117739
6.775468948863807e-09
0.0009312028556251622
1.470708797038127e-08
0.0009312085196475998
1.415243603835209e-08
0.0009311903362314065
-1.193136973025879e-08
0.0009311676988623712
-1.503565080580874e-08
0.0009311652183071506
3.357846225114843e-09
0.0009311650738790767
2.708169620287668e-09
0.000931164224406301
-2.430631077858319e-10
0.0009311650019886066
2.614100355601673e-09
0.0009311641641412294
3.28220634256097e-10
0.000931164329405651
6.687527339007794e-09
0.0009311671887823908
4.622980524816859e-09
0.0009311677944321105
-8.126349890032995e-09
0.0009311660308163579
-3.953705515642388e-09
0.0009311650331415792
-3.435973310280298e-11
0.000931167037336412
-1.682284014990396e-09
0.0009311671363952693
5.701978818441322e-10
0.0009311664303129803
-5.814733183635536e-09
0.0009311655832484018
-8.33949216263272e-09
0.0009311651622648729
1.152826329885624e-08
0.0009311664615424219
8.849537456855369e-09
0.0009311647569727085
2.627562814303491e-10
0.0009311633749149436
2.676928528840072e-09
0.0009311661017302428
7.88720959618352e-10
0.0009311664940926588
-7.964318217178907e-09
0.000931166253553973
-5.904843654685476e-09
0.0009311678751180806
-1.103490807594924e-09
0.0009311678912126382
-1.784292004151615e-10
0.0009311657336091875
8.698831439385867e-09
0.0009311657646808856
5.367606767719993e-09
0.0009311677888621592
-4.27924416544679e-10
0.0009311666523813323
1.009345620704698e-09
0.0009311672745001001
-2.117888100587633e-09
0.0009311661493584817
-8.750120709785094e-09
0.0009311629957339932
-1.600926713115551e-09
0.000931163725773855
7.222492088002399e-10
0.0009311647083541646
-1.099903165332633e-08
0.0009311650910808517
-5.454498590358847e-09
0.0009311669405879659
1.531886245791043e-08
0.0009311672543432055
2.083053626898532e-08
0.0009311818979494832
5.076307045160697e-09
0.0009312042509433862
2.805511046393661e-09
0.0009311921674878068
-9.618936402279911e-09
0.0009311872065128259
-1.520141054557369e-08
0.0009311862801255848
-5.581704649391864e-09
0.000931185396285734
2.599256671034184e-09
0.0009312033294409137
1.457863220573376e-08
0.0009312061727775693
1.29945694306933e-08
0.0009312035360389908
6.30561367393196e-09
0.0009312054218863404
-4.339322114215402e-10
0.0009312084269637723
4.233947139117022e-09
0.0009312074066532369
6.161088330014589e-09
0.0009312072821410421
9.127495261331557e-09
0.0009311898681756194
-2.210114966552934e-08
0.0009311693544619402
-2.82489474582238e-08
0.0009311646268276034
2.3723665371109e-09
0.0009311655866650613
6.64006551373237e-09
0.0009311671621119019
-2.42272044088855e-09
0.0009311648325014024
-5.672743502929711e-09
0.0009311626069195154
2.749405016120454e-09
0.0009311627886741863
2.262963151205818e-09
0.0009311649076295604
-4.834792096290001e-09
0.0009311623643812335
-3.906359495955386e-09
0.0009311616817357784
-4.224720636324498e-09
-9.11091244688913e-09
0.001748306139848427
-1.89265987414129e-09
0.001748315252419676
-1.668929761726725e-09
0.001748327228256147
3.513780399375628e-09
0.001748333275053136
8.783111897904661e-09
0.001748323761088365
-3.364515536584781e-09
0.001748309921990441
-2.547639382214936e-09
0.001748310377146274
3.011190663256323e-09
0.001748311412615755
1.863306812129603e-09
0.001748307803704366
3.572310907181577e-09
0.001748307447141445
3.027870956153074e-09
0.001748306996559788
8.61468229318103e-10
0.00174830844655501
5.128214326738745e-09
0.001748313729820638
-7.458013690905101e-10
0.001748315237376678
-9.713097033477161e-09
0.001748313681010306
-2.254656468775533e-09
0.001748311838778915
1.838622577663556e-09
0.001748311847989459
-1.881541578815687e-09
0.001748312751190654
-2.899968218879421e-10
0.001748313157765719
-6.096000412780057e-09
0.001748309334367723
-4.629486429809277e-09
0.001748308298792338
1.260871949590517e-08
0.001748311162376923
5.986999111843756e-09
0.001748311182946247
3.260523959895257e-10
0.001748309158503431
4.694470037532961e-09
0.001748309730486718
2.64088566865412e-10
0.001748310865387742
-9.219784351740146e-09
0.001748311158585833
-6.299890629366442e-09
0.001748312554653606
-2.389133462668712e-09
0.00174831394418621
-1.574757456542302e-09
0.001748313636266574
8.934029617333492e-09
0.001748313091576335
6.003050318469883e-09
0.001748312174042289
3.606589582703407e-10
0.001748310458506604
2.945275618113845e-09
0.001748313737877723
-5.345561524275626e-09
0.001748312730200101
-7.860018532360192e-09
0.001748308739817476
2.132800724865515e-09
0.001748308898169541
5.779108199386433e-10
0.001748307155989415
-9.246689627030033e-09
0.001748305736624671
-4.131425611500523e-09
0.001748310147357029
1.084747490038551e-08
0.001748315115797724
1.618838746550961e-08
0.001748322497650173
-1.734286525279518e-09
0.001748333655312314
-7.576654331836481e-09
0.001748328422611602
-4.544401381574542e-09
0.001748323281999323
-1.046250191002612e-08
0.00174832133881083
-3.762919323449365e-09
0.001748319858858252
4.125031398340597e-09
0.001748328597318254
6.505606039942535e-09
0.001748331559748026
9.866598568304978e-09
0.001748328233458155
9.660200390444462e-09
0.001748330032333492
-2.445470056079239e-09
0.001748335567565294
-9.114524873456216e-10
0.001748336584347852
4.963726322397542e-09
0.001748338020732595
8.180417606339842e-09
0.001748327024565888
-1.199393537685393e-08
0.00174831357333157
-1.571937285953459e-08
0.001748308990674296
7.184391123845376e-09
0.001748311297663377
4.274735174299653e-09
0.001748313239784331
-4.196316499613879e-09
0.001748308447609539
-9.998580348756623e-10
0.00174830578309733
5.57254028827802e-09
0.001748306611193958
1.375555867774389e-09
0.001748308110324394
-6.250238321943812e-09
0.001748304257037145
-1.716965933753095e-10
0.001748302322302884
-2.190894902538778e-09
-1.174691858149392e-08
0.003115528533628643
-1.75343300753461e-09
0.003115531477008966
-3.876495118589748e-09
0.003115534946349457
9.411093788302305e-10
0.003115538456632211
5.912123303858228e-09
0.003115535384887388
-1.177306119565589e-09
0.003115530971994808
5.431433608826576e-10
0.003115532455009761
1.44689945700089e-09
0.003115533315117055
1.111606905153097e-09
0.00311553159148085
5.47080827794793e-09
0.003115530651742629
4.022520543411621e-09
0.003115529498150969
2.097877286079307e-09
0.003115531302955534
3.251336885598629e-09
0.003115536485660852
-6.011209421361097e-09
0.003115537799329095
-1.111414582002437e-08
0.003115536609926905
-9.290254657917159e-10
0.003115536813340289
1.707316434656738e-09
0.003115535259525187
-4.631061499234507e-10
0.003115534435086362
5.109584163286524e-10
0.003115535176178322
-6.809678133881672e-09
0.003115532152651688
-1.71020728844081e-09
0.003115532279904404
1.257141891341918e-08
0.003115532421832132
5.844415210438923e-09
0.003115531369597651
1.409944142143147e-09
0.003115531754996942
4.294401761630533e-09
0.003115531739325493
3.512775421303394e-10
0.003115532710257792
-1.02576510517094e-08
0.003115533457841056
-7.094160526417532e-09
0.003115533726325156
-2.567877192220827e-09
0.003115534459937721
-2.359636578147526e-09
0.003115535368167934
7.925650223976595e-09
0.003115537141250195
4.296737004463152e-09
0.003115535909886945
1.450937240037619e-09
0.003115535388597739
3.66434441359217e-09
0.003115537706103672
-7.578286993230379e-09
0.003115536728682364
-6.966776903765665e-09
0.003115536157702571
2.482991128905108e-09
0.003115536863464076
-8.704901774245291e-11
0.003115533882705015
-6.244625463452938e-09
0.003115531388919433
-1.719608919309254e-09
0.003115533735535604
8.435486897660486e-09
0.003115537704272801
1.251115879662984e-08
0.003115540008170454
-3.453399752717814e-09
0.003115542342259982
-9.095933048363044e-09
0.003115541625464082
-3.870079720795216e-09
0.003115538171388085
-7.361745704326739e-09
0.003115536217412625
-1.907715359855359e-09
0.003115535375915694
5.029517597109684e-09
0.003115536710967725
5.806308453493117e-09
0.0031155381338297
8.365060816653269e-09
0.003115537014119158
1.084597556400811e-08
0.003115536718558523
-2.321588004400822e-09
0.003115538711887259
-2.51778814822524e-09
0.003115539474743671
4.067054100219494e-09
0.003115542153520374
5.834364623567348e-09
0.003115537769947276
-8.552103206718446e-09
0.003115532249032055
-1.114328748890902e-08
0.003115531133617677
8.38678520084012e-09
0.003115532353506323
2.972072040152555e-09
0.003115533360342274
-5.089106138625452e-09
0.003115530522347677
1.690774522861067e-09
0.003115529554233924
6.688891492583057e-09
0.003115530230563343
6.606543072209196e-10
0.003115530215993561
-6.150345319552117e-09
0.003115529116383478
8.021219626638104e-10
0.003115529215908015
-2.214820759470483e-09
-1.138183813985685e-08
0.004497722661655571
-1.57423323940939e-09
0.004497722967930777
-3.401194325243125e-09
0.00449772408636453
7.62675825323464e-10
0.004497725837603252
4.734440303637127e-09
0.004497724121021403
-3.316281604875519e-10
0.004497722669960994
7.333093602735136e-10
0.004497723603547985
3.41964830974289e-10
0.004497723461645836
1.330812138681055e-09
0.004497723276759885
5.822613252110346e-09
0.004497723311809526
4.054910673773205e-09
0.004497722782388264
2.719432183977037e-09
0.004497724584272539
1.386578761755904e-09
0.004497726444550812
-7.95224930905383e-09
0.004497725855577532
-1.061320420132565e-08
0.004497725545663186
-4.794889411695834e-10
0.0044977261059089
1.238561324721134e-09
0.004497725633652719
-1.038192663066675e-10
0.004497725129280623
9.508347670981814e-10
0.004497724053720307
-5.744201060972546e-09
0.004497722176840155
8.728429797462077e-11
0.004497723913078002
1.095025727048322e-08
0.004497723523340664
6.218490578811233e-09
0.004497722364933686
2.568612768859593e-09
0.004497723274181702
3.367381750622491e-09
0.004497723405631576
3.097432439854656e-10
0.004497723081246846
-9.97159890618606e-09
0.004497723121265684
-7.156526190227156e-09
0.004497723292488432
-2.677071675930228e-09
0.004497723905276587
-3.048492838807153e-09
0.004497725448759837
6.275455380778522e-09
0.00449772742726009
2.3743883848883e-09
0.004497727553290869
1.169851822389229e-09
0.00449772845922249
2.941246205884279e-09
0.004497728862395697
-7.890735989331218e-09
0.00449772777927537
-5.94848724678484e-09
0.004497728885902772
1.16786710350513e-09
0.004497729344778982
-5.080281448321284e-10
0.004497727208786992
-4.095256454383047e-09
0.00449772557214542
-1.664958843083479e-10
0.004497726647447078
7.281515216536993e-09
0.004497728949076809
1.048597538887037e-08
0.004497728467301822
-2.385810611816264e-09
0.004497727904055222
-7.771852314148414e-09
0.004497727849900761
-3.827066881595787e-09
0.004497725722621142
-5.584809244553896e-09
0.004497724618312157
-8.991481096655794e-10
0.004497724932335205
4.788856530155162e-09
0.004497725205933933
6.109975678050813e-09
0.004497725770189253
7.740470630111988e-09
0.004497726697480155
9.993571946708418e-09
0.004497725786905688
-1.567692066003527e-09
0.004497725098988921
-1.428830857300376e-09
0.004497725441387259
3.598648915271286e-09
0.004497727428026675
4.079569394624722e-09
0.0044977240792959
-6.144167517630508e-09
0.004497721042782727
-8.972321302039674e-09
0.004497722482418563
7.012344295205291e-09
0.004497722829922533
2.543797730258269e-09
0.004497721854493666
-4.008619065576122e-09
0.004497721197908785
2.202755989765183e-09
0.004497722400655453
5.645122254907453e-09
0.004497722898236528
1.351998579995414e-10
0.004497722440419751
-5.605682763809528e-09
0.004497722856714377
2.502349760174163e-10
0.004497723398902082
-2.686389151344848e-09
-1.094970672227788e-08
0.005383592286784939
-1.812265163036915e-09
0.005383592125586622
-2.557897438799122e-09
0.005383593086288633
6.414445415266216e-10
0.005383594392985985
3.919609100440453e-09
0.005383593061871124
2.615941396114029e-10
0.005383592123385319
6.205486706991014e-10
0.005383592364728366
-9.617038226357011e-11
0.00538359190891371
1.824928788809188e-09
0.00538359250507425
5.364658233817429e-09
0.005383593080973966
3.548237808153793e-09
0.005383593098900517
2.784878025893913e-09
0.005383594256242821
1.689435387427083e-10
0.005383593775091389
-7.528002578062039e-09
0.005383591997297107
-8.917026689444752e-09
0.005383592327752432
-6.860878365634802e-10
0.005383592964569575
6.843051740174328e-10
0.005383592904020751
-1.27903659380856e-10
0.005383593122121247
6.774611587746989e-10
0.005383591621415711
-4.261358764746789e-09
0.005383590433819144
1.202449220734015e-09
0.005383592550644231
8.952188690164254e-09
0.005383592642479137
6.106459345806884e-09
0.005383592128666907
3.0766088029622e-09
0.005383592940570748
2.522329749133029e-09
0.005383593180637089
1.534266360504354e-10
0.005383591992722983
-8.809785036704408e-09
0.005383591572042812
-6.752065637400624e-09
0.005383591862683169
-2.92876467412892e-09
0.005383592390874265
-3.649028846217445e-09
0.005383594227806912
4.336783578044774e-09
0.005383595493046441
1.161224399658685e-09
0.005383595960349934
5.496028449858178e-10
0.005383597220733721
1.847284836116767e-09
0.005383596469405736
-7.059996957266494e-09
0.005383595397909637
-4.906951203245753e-09
0.005383596498264418
-1.11257260673596e-10
0.005383596559786863
-5.404433080806882e-10
0.005383595140819652
-2.666858999902114e-09
0.00538359421258535
6.899939234534403e-10
0.005383595045937362
6.367763599061544e-09
0.005383596838812164
8.932988940536151e-09
0.005383595667700965
-7.590870530211577e-10
0.005383594392543005
-5.917167463887796e-09
0.005383594020555321
-3.408345510361618e-09
0.005383592500241774
-4.358232814534203e-09
0.005383592025608251
-4.909679816723616e-10
0.005383592781574063
4.09216132087711e-09
0.005383593536659782
5.796169024265089e-09
0.005383594213900615
6.991282980646994e-09
0.005383595685750453
8.611690893664019e-09
0.005383594809930901
-8.355526189230544e-10
0.00538359385179073
-8.039294955256197e-11
0.005383594194338036
3.106101740957821e-09
0.005383595656412062
2.818778715490244e-09
0.005383592748494545
-4.030643602905157e-09
0.005383590204447826
-7.099004491408479e-09
0.005383591937846304
5.345831083923944e-09
0.005383592143410551
2.238120905072511e-09
0.005383590840591025
-2.594170963346384e-09
0.005383590803753532
2.103840623118303e-09
0.005383592423252124
4.178091910100653e-09
0.005383592731991801
-2.1247603508868e-10
0.005383591843147142
-4.63476530402886e-09
0.005383592661036173
-6.952916229996803e-10
0.005383592971060915
-2.924129618908948e-09
-1.012420753434847e-08
0.005828329955822334
-2.057565421854122e-09
0.005828329820542469
-1.880430954227706e-09
0.005828330726016526
4.205897427428322e-10
0.005828331897249743
3.161560193284437e-09
0.005828331028102395
5.607997631332095e-10
0.00582833030954009
5.285641965468214e-10
0.005828330211859941
-1.802515211654087e-10
0.005828329933103641
2.113458900096948e-09
0.005828330691240408
4.716507608514362e-09
0.005828331304503539
3.001879651117073e-09
0.005828331655445386
2.505864308369178e-09
0.005828332283850391
-5.135267585056356e-10
0.005828331112246967
-6.384591779108288e-09
0.0058283292371203
-7.114054189940287e-09
0.005828329596994474
-9.442974037722473e-10
0.005828330197340039
1.499667948789026e-10
0.00582833020687927
-1.899313985875325e-10
0.005828330536287414
3.118310828479864e-10
0.005828329309995973
-3.052748651378289e-09
0.005828328641438151
1.810375957807494e-09
0.005828330517053908
7.194698701763547e-09
0.00582833096677858
5.634995996991715e-09
0.005828330987107506
3.045944942821984e-09
0.005828331639867136
1.819581922316192e-09
0.005828331923544571
-5.943370168100886e-11
0.005828330634284931
-7.540897899026574e-09
0.005828330024496296
-6.157555514768243e-09
0.005828330204361561
-3.091272193472942e-09
0.005828330424248815
-3.930761927853999e-09
0.005828332008020871
2.662371802358878e-09
0.005828332792656701
4.26253292860962e-10
0.005828333187999584
1.164190821092052e-11
0.005828334280310281
8.979988548251098e-10
0.005828333255944975
-5.976011147661705e-09
0.005828332302534522
-3.950698650876122e-09
0.005828332921891108
-8.773927084205496e-10
0.005828332790560244
-3.930692756929897e-10
0.005828331774411171
-1.651783955558689e-09
0.005828331192707732
1.208767019711884e-09
0.005828331904858681
5.573213884131764e-09
0.005828333459377296
7.547690144851107e-09
0.005828332534925575
4.572252278746239e-10
0.005828331293250434
-4.291211756679992e-09
0.005828330773241638
-2.812013801561795e-09
0.0058283295936827
-3.41502909837718e-09
0.005828329367049538
-3.091185170950412e-10
0.00582833008031136
3.400068827368686e-09
0.005828330985435434
5.187717561901518e-09
0.005828331780216933
6.103646761156804e-09
0.005828333215033201
7.271313315210075e-09
0.005828332462167509
-2.164420225112941e-10
0.005828331952471975
7.894943776875889e-10
0.005828332263007799
2.629035631015737e-09
0.00582833332140516
1.954268013965587e-09
0.005828331236827028
-2.54548710620246e-09
0.005828329112526355
-5.419743145664981e-09
0.005828330488439102
4.060481073705934e-09
0.005828330661096523
1.967454750240672e-09
0.005828329647635213
-1.457501890129e-09
0.005828329791483977
1.843415826596313e-09
0.005828331039346249
3.075156458994303e-09
0.005828331209237016
-4.320643956124342e-10
0.005828330325715171
-3.67661268006228e-09
0.005828330928593397
-1.414447258326934e-09
0.00582833101578398
-2.937132380993359e-09
-8.903005151674944e-09
0.006083006662714724
-2.177575237305671e-09
0.006083006580528478
-1.382798569786047e-09
0.006083007336843419
2.087563510335099e-10
0.006083008360866123
2.480073074468017e-09
0.006083007849630964
6.448469576349364e-10
0.00608300732451394
4.508768899906853e-10
0.006083007118753628
-1.315024875914854e-10
0.006083007050193177
2.172480583347591e-09
0.006083007779421437
4.069631523430626e-09
0.006083008304047007