/*--------------------------------*- C++ -*----------------------------------*\
| =========                 |                                                 |
| \\      /  F ield         | OpenFOAM: The Open Source CFD Toolbox           |
|  \\    /   O peration     | Version:  v1812                                 |
|   \\  /    A nd           | Web:      www.OpenFOAM.com                      |
|    \\/     M anipulation  |                                                 |
\*---------------------------------------------------------------------------*/
FoamFile
{
    version     2.0;
    format      ascii;
    class       volVectorField;
    location    "3000";
    object      U;
}
// * * * * * * * * * * * * * * * * * * * * * * * * * * * * * * * * * * * * * //

dimensions      [0 1 -1 0 0 0 0];


internalField   nonuniform List<vector> 
2838
(
(0.06911436501359838 9.765182059868419e-08 2.41082787506933e-05)
(0.06911562289513391 -3.814399196730036e-07 2.414857821273839e-05)
(0.06907981670693165 -4.852077232349452e-07 2.418264038513126e-05)
(0.06907605796475014 -8.164406280127971e-08 2.42321782994557e-05)
(0.06907450368333627 4.178734322401486e-07 2.428789999258573e-05)
(0.06911126436393276 4.838317458522629e-07 2.436010184165449e-05)
(0.06911613695256924 8.082717460666502e-08 2.442528134507401e-05)
(0.06911527070783598 1.69344344614828e-08 2.449150332065404e-05)
(0.0691148096189845 -3.506906588029215e-08 2.456112402510456e-05)
(0.06911404151701171 -6.549178829934242e-08 2.463217495721054e-05)
(0.06911351353414237 -4.94927526836273e-08 2.470497749649164e-05)
(0.06911478753672051 4.722887543782587e-08 2.477891787060703e-05)
(0.06911272737190977 8.970010405812525e-08 2.485168645498209e-05)
(0.06911298001469217 -3.184021496575217e-09 2.492463671649355e-05)
(0.06911419044246685 -7.119887605205245e-08 2.49966506415016e-05)
(0.06911430864210379 1.544190564657396e-08 2.506616356685916e-05)
(0.06911447906907899 8.089157345809436e-08 2.513295850855356e-05)
(0.06911464883434459 -1.085977111555444e-08 2.51968830557952e-05)
(0.06911496024696852 3.266446720093304e-08 2.525676625039275e-05)
(0.06911622183324954 4.279282714411479e-08 2.531299224095623e-05)
(0.06911520861597044 -3.337517822678705e-08 2.536268819494685e-05)
(0.06911386251025911 4.435959775681404e-09 2.540799293401619e-05)
(0.06911512433309781 -5.800426393962448e-08 2.544805371677418e-05)
(0.06911499884451332 -7.175652099730261e-08 2.548217726422675e-05)
(0.06911335097540403 3.443329641632429e-08 2.550818433712339e-05)
(0.06911287575095616 6.043381286310222e-08 2.552975989255375e-05)
(0.0691148045732469 4.42781847386684e-08 2.554368037726087e-05)
(0.06911339082994794 -5.909267688077793e-08 2.555096950443544e-05)
(0.06911459856661539 -2.61060783796801e-08 2.555065349681293e-05)
(0.06911599242951708 5.539850043197625e-08 2.554462410571292e-05)
(0.06911431553624348 1.979860484597616e-08 2.55290414584709e-05)
(0.06911313312631068 -9.735044369013811e-08 2.550896484451137e-05)
(0.06911278037956295 -1.095243640051424e-07 2.548079394378629e-05)
(0.06911289651828154 6.611430463793413e-08 2.544824588931075e-05)
(0.06911339419522104 1.054563746323558e-07 2.540802350428008e-05)
(0.06911574288862544 -2.820664403456739e-08 2.536380743897697e-05)
(0.06911414490795809 -8.603989703113515e-09 2.531194839221641e-05)
(0.06911383157485247 6.123806872045527e-08 2.52569939627312e-05)
(0.06911595487103593 -2.411537502852845e-08 2.519778189772273e-05)
(0.06911565253257645 -6.234113608670362e-08 2.513350067530368e-05)
(0.06911283671019702 -6.743426602413862e-09 2.506559040840786e-05)
(0.06911293067510661 -3.720472135683955e-07 2.499544590085057e-05)
(0.06907821409040886 -4.720152933018744e-07 2.491370957567748e-05)
(0.06907390867362337 3.395204322339016e-07 2.483874389145798e-05)
(0.06911095829319708 7.884558836914786e-08 2.477956285706084e-05)
(0.06907917634857495 7.92269284581009e-09 2.469289947374941e-05)
(0.06911238416541256 -3.154249094648426e-09 2.463397304043477e-05)
(0.0690799486927343 -4.252256079389842e-07 2.45478154604719e-05)
(0.0690764632225882 -4.782464705647078e-08 2.448110086186959e-05)
(0.06907571017158227 -8.196831810858291e-09 2.440934783665487e-05)
(0.06907580223263089 2.339114374497143e-08 2.435095324677732e-05)
(0.06907481848520243 2.332389785480822e-08 2.42850814513449e-05)
(0.06907519493919563 -1.404702168112017e-08 2.423554529973966e-05)
(0.06907487082974365 2.346789401513588e-08 2.417767365645957e-05)
(0.06907307161252142 3.944049903369911e-07 2.413906956354216e-05)
(0.06911114726439978 4.214506043594866e-07 2.410453352944195e-05)
(0.06911477363122857 3.010984083000441e-08 2.407902386559169e-05)
(0.0691141055424376 5.071291999473505e-08 2.404276041981235e-05)
(0.06911292386233937 2.76634340662381e-08 2.403007776092383e-05)
(0.06911439352649426 -4.603725664481004e-08 2.400759613719419e-05)
(0.06911527433752615 -2.691258848955918e-08 2.400908621220202e-05)
(0.06911468992325033 6.510193459378871e-10 2.399988087821338e-05)
(0.06911397728003155 2.548321836892322e-08 2.401494233025012e-05)
(0.06911449435643006 -6.927224086101635e-09 2.402016719385028e-05)
(0.06911489241033136 -4.963979331629726e-08 2.404878817832155e-05)
(0.06911634101971928 -1.014696801407006e-08 2.406883256521666e-05)
(0.2042011866488884 2.469984916679134e-07 7.173738319653023e-05)
(0.2042040328325196 -2.155439161031072e-06 7.185138750181652e-05)
(0.2041552727461086 -2.739035336718674e-06 7.196450474215762e-05)
(0.204141340879187 -4.821780164439276e-07 7.210413096622402e-05)
(0.2041366613951395 2.078169702246431e-06 7.226345428740757e-05)
(0.2041932423008942 2.80611345431368e-06 7.245621442782677e-05)
(0.2042017126329485 6.602674602278381e-07 7.264471103485209e-05)
(0.2042005883427686 6.759380382550549e-08 7.283880171942941e-05)
(0.2041989904069912 -8.631798143853441e-08 7.304278346123099e-05)
(0.204197641521638 -1.193443299472455e-07 7.325249123502925e-05)
(0.2041972860058481 -1.972394578141977e-07 7.346802510888834e-05)
(0.2042004398820111 1.991686215162435e-07 7.368729364290291e-05)
(0.2041937236601809 3.279309886563654e-07 7.390396211758237e-05)
(0.2041951674120321 -9.465204330779619e-08 7.412204711098547e-05)
(0.2041984989910221 -2.639156035578511e-07 7.433797231186828e-05)
(0.204198924593769 4.377661141612712e-08 7.45476451172464e-05)
(0.2041977417815013 2.842278565997562e-07 7.474913034236511e-05)
(0.2041980053034708 -2.004250267588049e-08 7.494336500721345e-05)
(0.2041988807826174 -1.388612172992676e-08 7.512631388820289e-05)
(0.2042039319943156 4.843960573354944e-08 7.529965119375556e-05)
(0.2042015991543643 4.122786635340286e-08 7.545404329021682e-05)
(0.2041959342458215 7.216507583119125e-08 7.55946326365356e-05)
(0.2041989775927733 -2.055842541e-07 7.572021410311764e-05)
(0.2041999354002146 -1.653827155572243e-07 7.582989458863507e-05)
(0.2041965616429956 1.231513247627928e-07 7.591555341058669e-05)
(0.2041946478481999 9.579447354554364e-08 7.598719678679792e-05)
(0.2042006515319468 6.871174963056398e-08 7.603708150097587e-05)
(0.2041970612803552 -2.143271057918586e-07 7.606744949839463e-05)
(0.2041992964485681 -7.023544390629948e-08 7.607461582725799e-05)
(0.204200767091823 2.647698426116401e-07 7.606458706167278e-05)
(0.2041974328486134 1.646206167951035e-07 7.602725647608152e-05)
(0.2041948423649464 -2.303269994830138e-07 7.597560240517466e-05)
(0.2041943094871931 -3.838998141621924e-07 7.589962819049566e-05)
(0.2041955253284703 7.161335811918643e-08 7.581044695269978e-05)
(0.2041965516011335 2.218782390098881e-07 7.569811157348228e-05)
(0.2042033014356448 -2.343980547936432e-08 7.557349125694267e-05)
(0.2041989100188548 -3.726050287894653e-09 7.542559115623155e-05)
(0.204198434288121 1.071512565469685e-07 7.526738245174684e-05)
(0.2042036399638621 -9.540134762006043e-08 7.509639146405135e-05)
(0.2042023986087039 -8.050993170310458e-08 7.490963796818473e-05)
(0.204193709098255 2.809675550350703e-07 7.47115875955981e-05)
(0.2041962379994289 -2.247777536760875e-06 7.450632931541272e-05)
(0.204151078434914 -3.02608002191894e-06 7.428438006674116e-05)
(0.204135029016234 1.805677582788703e-06 7.405979240295356e-05)
(0.2041949015299467 2.214346227000713e-07 7.386879533251418e-05)
(0.2041528591658505 8.140262509390278e-09 7.362788676888797e-05)
(0.2041986543345072 1.470881587313264e-07 7.343465207717217e-05)
(0.204154698511612 -2.244088032462053e-06 7.319388401571456e-05)
(0.204142140768033 -1.812098085578639e-07 7.299179317227183e-05)
(0.2041407204225278 1.659977373026817e-08 7.277473625125872e-05)
(0.2041411581452367 1.121654199786471e-07 7.259692364091602e-05)
(0.2041397738911663 3.162959972143247e-08 7.239636262790201e-05)
(0.2041385077036119 6.19486367705684e-09 7.22430310136551e-05)
(0.2041365520940622 5.819052987043055e-08 7.206451208850222e-05)
(0.2041321080708536 1.974283613370732e-06 7.194261575523415e-05)
(0.2041930025683766 2.499526604928292e-06 7.181593733721726e-05)
(0.2041996114875404 4.147066051578435e-07 7.17323018491968e-05)
(0.2041984714187453 2.059320957193123e-07 7.161705337442108e-05)
(0.2041943669713719 1.337658720176261e-07 7.15707499612512e-05)
(0.2041988807963388 -1.299424542853506e-07 7.149624686336766e-05)
(0.2041999582263002 -2.888362503671865e-08 7.149132601778384e-05)
(0.2041994818528479 1.707014402436936e-08 7.145637949663857e-05)
(0.2041985673455451 1.969361970519904e-08 7.149253386305915e-05)
(0.2041996712595257 -8.964714811055179e-09 7.150052981384999e-05)
(0.2042006650668538 -1.541084640612673e-07 7.15764479569549e-05)
(0.2042041078736338 -2.331804173973389e-07 7.162859836596771e-05)
(0.3349756143131171 2.253371684357719e-07 0.0001182810134343578)
(0.3349771229645134 -2.71561559925344e-06 0.0001184535289341641)
(0.3349714727326918 -3.780711740764394e-06 0.000118649552588564)
(0.3349602932975869 -8.31598191858169e-07 0.0001188691535958108)
(0.334955875331551 2.606193370246299e-06 0.0001191189801115303)
(0.3349693187907639 3.93812781908394e-06 0.0001193976014669647)
(0.3349718801265525 1.324600663621157e-06 0.0001196949194932006)
(0.3349711594685519 6.548278241316764e-09 0.0001200069516479158)
(0.3349724036654874 -2.227538090778963e-07 0.000120337280403282)
(0.3349721122868192 1.120633315333196e-08 0.0001206784716612826)
(0.3349709967770054 -2.811641820666621e-07 0.0001210296592530541)
(0.3349719887736023 3.557509243913371e-07 0.0001213876292899525)
(0.3349649629990965 5.493072588440624e-07 0.0001217463168917351)
(0.3349683455254235 -2.401620416092721e-07 0.00012210785038343)
(0.3349700400254926 -4.540222994216545e-07 0.0001224655331731747)
(0.3349708342336165 1.111119374608239e-08 0.0001228166238366254)
(0.3349694513576146 4.449477539978564e-07 0.0001231558710866629)
(0.3349696680618667 7.261007412915392e-08 0.0001234845160764277)
(0.3349708159561828 -1.227313049853944e-07 0.0001237959753041027)
(0.334976685606998 -1.141258758586967e-07 0.0001240925281477221)
(0.3349769541137624 2.570326062426585e-07 0.0001243617859365428)
(0.3349678188268873 2.873232187630378e-07 0.0001246077860507183)
(0.3349705219615092 -2.832688236450287e-07 0.0001248286852365911)
(0.3349704968541874 -2.187988771067083e-07 0.0001250253501102821)
(0.3349689707761191 9.798345390784139e-08 0.0001251852896410822)
(0.3349672139743325 -1.656722013930871e-08 0.0001253212471438657)
(0.3349738229325475 3.768404178092324e-08 0.000125420493308498)
(0.3349703192264801 -2.917401896746006e-07 0.0001254898930291407)
(0.3349727077432135 -5.905835272282764e-08 0.0001255201531764953)
(0.3349701128712034 4.336319269982842e-07 0.000125520956263118)
(0.3349691210471604 3.178298524891548e-07 0.0001254800999070649)
(0.334969084839174 -2.195270324929464e-07 0.0001254145741943282)
(0.3349679918778798 -6.044442120698375e-07 0.0001253071352380214)
(0.3349688785817156 -1.363773128486976e-08 0.0001251762327320347)
(0.3349682369884598 2.942998495816862e-07 0.0001250068153104672)
(0.3349759176770872 7.564360361081068e-08 0.0001248155808629045)
(0.3349721540114471 -1.4719703676871e-07 0.0001245878919245605)
(0.3349742652762281 -5.915335678848804e-08 0.0001243402807790827)
(0.3349788856537946 -8.584561867476285e-09 0.0001240693633915432)
(0.3349772280617025 1.423972748528458e-07 0.0001237720172402082)
(0.3349665183245603 6.035846949575216e-07 0.0001234565655419297)
(0.3349679409460937 -3.048473231303371e-06 0.0001231238987686362)
(0.334966503679083 -4.495954714757904e-06 0.0001227893125590467)
(0.3349545815641376 2.016981388566597e-06 0.0001224258706131528)
(0.3349712171560223 3.732277358203693e-07 0.0001220854308538216)
(0.334968788930767 -8.282271645436007e-09 0.0001217110941631472)
(0.3349749499941957 2.246371480777593e-07 0.0001213678780264965)
(0.3349703001305183 -2.923933943058414e-06 0.0001209909716045994)
(0.3349608983475472 -2.972449159613303e-07 0.0001206569519021185)
(0.3349583600367304 1.06987378593518e-07 0.000120291481964929)
(0.3349598022778698 2.473933909470923e-07 0.0001199902972336129)
(0.3349578678007087 -5.979765397145055e-09 0.0001196492514840054)
(0.334953369086301 3.177286795520364e-08 0.0001193843033576182)
(0.3349520887013293 2.691943224379849e-07 0.0001190779090143691)
(0.3349499534103003 2.413316689344854e-06 0.0001188636846859764)
(0.3349688801749782 3.302609964980205e-06 0.000118611775583718)
(0.3349721423102017 7.852066926438392e-07 0.0001184558171181266)
(0.3349709699148531 3.428457585951478e-07 0.0001182497639939137)
(0.3349668161359468 2.471146225668359e-07 0.0001181554617182382)
(0.3349730321380012 -1.76450074049248e-07 0.0001180152884461308)
(0.3349724988851462 -3.586575045709342e-08 0.0001179867343684148)
(0.3349727171879638 6.209226819803574e-08 0.0001179121336051795)
(0.3349706480066745 -6.86193394397407e-08 0.0001179507476549122)
(0.3349742315720591 -2.786609992851919e-08 0.000117948114517805)
(0.3349760675314857 -1.9421637914242e-07 0.0001180526655585405)
(0.3349783070060344 -5.768878725056091e-07 0.0001181218299095582)
(0.4565053066827972 4.53081245872172e-08 0.0001618774693736099)
(0.4565043202308037 -1.749901991320748e-06 0.0001620842505123539)
(0.4565285566987371 -2.59887172793222e-06 0.0001623347972595489)
(0.4565293306664632 -5.526684913916745e-07 0.000162614702797686)
(0.4565287956800481 1.495030758570008e-06 0.0001629337460326972)
(0.4565045809969144 2.796809684457473e-06 0.000163277850964991)
(0.4565011611489073 1.470841357338724e-06 0.000163662990497486)
(0.4564997204474841 1.662039662205576e-08 0.0001640735219426636)
(0.4565021337164887 -2.145164859821308e-07 0.0001645113812110272)
(0.456503350620296 1.700362740939816e-07 0.000164968005908961)
(0.4565021412192825 -4.089512980816683e-07 0.0001654405767401824)
(0.456499944960261 3.749105689032905e-07 0.000165924081068545)
(0.4564978134322059 7.409501223124846e-07 0.0001664158675460266)
(0.4565012560321573 -3.695338751703092e-07 0.0001669118670859755)
(0.4565004535615419 -5.976566256865268e-07 0.0001674043554491216)
(0.4565000679307279 -3.21511131692606e-08 0.0001678921274287988)
(0.4565010611399434 4.501165645012684e-07 0.0001683681687665468)
(0.456501205488928 2.738562319934971e-07 0.0001688315607574746)
(0.4565005682113126 -2.25163753280405e-07 0.0001692733875011025)
(0.4565042085790551 -3.385103352377837e-07 0.0001696970670157813)
(0.4565053167888116 5.594939491693126e-07 0.0001700878160243266)
(0.4565002496989162 4.805508098546957e-07 0.0001704515554246474)
(0.456500504836612 -3.012543773737824e-07 0.0001707782936820043)
(0.4564978455502249 -2.742770908367601e-07 0.0001710744599117984)
(0.4565004535248643 5.791751658298323e-08 0.0001713249923354623)
(0.4565008914254572 -1.555921642437284e-07 0.000171542771877455)
(0.4565029224840768 -1.463995281749548e-07 0.0001717081786716246)
(0.4565016882562403 -2.897181782551684e-07 0.0001718369036753116)
(0.4565030753403899 -3.230046412697322e-08 0.0001719110996677415)
(0.456499579516296 5.13890589985205e-07 0.0001719459055068555)
(0.4564990131248916 5.115300985420466e-07 0.0001719242568303523)
(0.4565022237225419 1.374836552415979e-08 0.0001718681573516448)
(0.4565024351873814 -5.69275333986192e-07 0.000171754478423814)
(0.4565011264825284 -2.532635370337888e-07 0.0001716046926814572)
(0.4565000646791637 9.435888844357191e-08 0.0001714032348322179)
(0.4565023020720051 2.520535324825552e-07 0.0001711662537254635)
(0.4565012487659666 -1.629269278858631e-07 0.0001708837286177893)
(0.4565042772827025 -3.581531368101572e-07 0.0001705679495454653)
(0.4565064612593388 1.02303799460583e-07 0.0001702185799671861)
(0.4565056210322945 5.567472648770339e-07 0.0001698314086005112)
(0.4565001868794785 7.66231369018862e-07 0.0001694216882917137)
(0.4564985871572077 -2.324140803157276e-06 0.0001689781913363962)
(0.4565250308068228 -3.588813476896909e-06 0.0001685424874413591)
(0.4565282452624159 8.591613541952084e-07 0.0001680587273452109)
(0.4565055168686574 4.253509985410484e-08 0.000167582620208821)
(0.4565275920840459 -7.45667800256916e-08 0.0001670803207761066)
(0.4565064004000521 2.116850045704553e-07 0.0001665999106457619)
(0.4565276702386322 -1.755903275378376e-06 0.000166089018024778)
(0.456530089327976 -4.035509177226943e-08 0.0001656306202926046)
(0.4565272393828803 2.641441053664377e-07 0.0001651194911533249)
(0.4565283529168581 3.039046188736714e-07 0.0001646934183486368)
(0.4565284133047478 -2.053507227289196e-07 0.0001642111833344712)
(0.4565243766277519 1.756879213029323e-08 0.0001638299941817296)
(0.4565231343905298 6.961967755396902e-07 0.0001633897875768043)
(0.4565240598231625 1.289330024419552e-06 0.0001630727276658634)
(0.4565046080128261 1.989908751075579e-06 0.0001626865565554222)
(0.456502276632209 8.565341000948483e-07 0.0001624420713181002)
(0.4565002785090651 3.996164761362781e-07 0.0001621324012161242)
(0.4564998351699545 2.908185591156356e-07 0.0001619716581898384)
(0.4565033207521961 -1.82068267001832e-07 0.0001617487339316216)
(0.456501835838902 -7.537538798126101e-09 0.0001616739286050231)
(0.456501379928945 1.435523011257192e-08 0.0001615417598349777)
(0.4565003392745918 -2.598334210557122e-07 0.0001615577089349626)
(0.4565034183001436 8.585785412578863e-08 0.0001615245171411007)
(0.4565036967304827 -1.340236749316294e-07 0.000161628773135535)
(0.4565060174216088 -9.108929596192083e-07 0.0001616960500187528)
(0.5705612756939274 -1.04483197500189e-07 0.0002030937238133032)
(0.570560291483447 -7.102412048969804e-07 0.000203311601667641)
(0.5705805342698559 -1.025876900307885e-06 0.0002035794611404771)
(0.5705848542286921 -1.014944061915051e-07 0.0002038919104918683)
(0.5705866300905466 4.081826964710778e-07 0.0002042554859140399)
(0.5705638178792584 1.243688035219126e-06 0.0002046549432256043)
(0.5705594320150186 1.107292598058602e-06 0.0002051067082032612)
(0.5705604450779348 -7.055814032102821e-09 0.000205596266881208)
(0.5705596033917075 -1.562433081891211e-07 0.0002061207658017483)
(0.5705590391352888 2.722411813651661e-07 0.0002066741987234506)
(0.5705606744652322 -3.045903395297612e-07 0.0002072536271911671)
(0.5705581174572659 3.538853690342464e-07 0.0002078502256469391)
(0.5705602889065783 6.485167791052875e-07 0.0002084634415655564)
(0.5705619474855794 -4.391069640104806e-07 0.0002090846462391162)
(0.5705615831719967 -5.694279397383058e-07 0.0002097064490735908)
(0.5705592693159347 -7.927507393733754e-08 0.0002103265436938427)
(0.5705600794764348 2.521294589408028e-07 0.0002109368392826133)
(0.570561737650034 3.362857626605875e-07 0.0002115364338067507)
(0.5705601105373456 -2.450483342441889e-07 0.0002121121640105612)
(0.5705616482161504 -4.923083539084735e-07 0.0002126688478929014)
(0.5705592349151565 7.18363448233273e-07 0.0002131878411374527)
(0.5705601398738793 5.688698093832744e-07 0.0002136806711430892)
(0.5705610773877918 -1.915964436996771e-07 0.0002141273553005874)
(0.5705584225886919 -1.238885988930244e-07 0.0002145386426364196)
(0.5705592288340678 3.196864917813787e-08 0.0002148946611269539)
(0.5705617520648464 -3.456064057993411e-07 0.0002152126996282899)
(0.5705599020956243 -3.712120720055745e-07 0.0002154653637575804)
(0.5705609803471716 -2.462117486984104e-07 0.0002156749155818388)
(0.5705617175604738 4.332904521059956e-08 0.0002158166165315497)
(0.5705614561823455 5.181034299960732e-07 0.0002159108112434582)
(0.570559086485616 4.749339786510932e-07 0.0002159333363646482)
(0.5705615271107981 2.984301723113526e-07 0.000215910269130713)
(0.5705618454493412 -1.875873025664834e-07 0.0002158166989193861)
(0.5705598649908467 -4.46355228597495e-07 0.0002156741790396724)
(0.5705625097665117 -2.474992927249978e-07 0.0002154691524942448)
(0.5705585160836083 2.974360343167693e-07 0.0002152112360959973)
(0.5705586101452997 -1.466809441609616e-07 0.0002148994483353877)
(0.5705592733273573 -6.541062647691066e-07 0.0002145381509446157)
(0.5705601094248045 7.096973474733335e-08 0.0002141347532148879)
(0.5705596663707785 8.761981692965455e-07 0.0002136792324203987)
(0.5705621064015577 8.654866665196934e-07 0.0002131979814428213)
(0.5705603565626809 -1.178907822095832e-06 0.0002126633719984951)
(0.5705805486440626 -2.005157556147734e-06 0.0002121323236761278)
(0.5705867843777164 -1.730628581350773e-07 0.0002115398521270565)
(0.5705655701710106 -3.081173969548184e-07 0.0002109559314523276)
(0.5705812814008679 -1.441715492979279e-07 0.0002103262059776727)
(0.5705644901603097 1.523245992900772e-07 0.0002097284457896808)
(0.5705802435580553 -5.135472272410571e-07 0.0002090795052085138)
(0.5705858681115932 2.601300821077623e-07 0.0002084975052503528)
(0.5705839089498619 3.973232074215043e-07 0.0002078440600346853)
(0.5705826278892774 2.115191211943914e-07 0.0002072902088697189)
(0.5705865530352913 -2.576362265568486e-07 0.0002066657557599382)
(0.5705859723019855 -3.242531404972589e-08 0.0002061621695310825)
(0.5705848974397276 8.379302755891294e-07 0.0002055821854180991)
(0.570585067286588 2.386673867256484e-07 0.0002051483510923215)
(0.5705653290506851 4.199730628483107e-07 0.0002046306761134928)
(0.5705607524622117 6.785022352588744e-07 0.0002042806520871631)
(0.5705584145871925 3.38740951318959e-07 0.0002038540614434128)
(0.570561788915103 1.529359256172882e-07 0.0002036046753664006)
(0.570560541669179 -1.315822852374356e-07 0.0002032816104551769)
(0.5705593591699516 6.213428496896907e-08 0.0002031350985222779)
(0.5705573325179012 1.701120919279539e-08 0.0002029263538996733)
(0.5705594703895964 -4.200835026407572e-07 0.0002028914727390064)
(0.5705600408265211 6.807365764383393e-08 0.0002028071590995611)
(0.5705562702280499 -1.403682363472081e-08 0.0002028788757686247)
(0.5705596209915638 -8.80358461632336e-07 0.0002029238731538665)
(0.6819291747934201 -1.199488500836748e-07 0.0002437218447265284)
(0.6819299998157031 -3.02643955126675e-07 0.0002439318124017263)
(0.6819364132217238 -1.350296645480695e-07 0.0002441908648091817)
(0.6819386272389966 2.111691445620211e-07 0.0002445119164542165)
(0.6819404474519679 -2.093483677441648e-08 0.0002448982685326639)
(0.6819323011632384 2.59306358013178e-07 0.0002453382555430197)
(0.6819298253246662 5.863048745152206e-07 0.000245838661229832)
(0.6819323797016604 1.265578649554192e-07 0.0002463899619334515)
(0.6819311752371485 -8.059714723485677e-08 0.0002469867521248243)
(0.6819292411210961 1.936650020113589e-07 0.000247623442629867)
(0.6819308920068624 6.041063410385363e-09 0.0002482968914474405)
(0.6819290961041475 3.332380972420641e-07 0.0002489973639686683)
(0.6819314382244581 2.235667339645471e-07 0.0002497224482887047)
(0.6819334455309609 -4.557158920961441e-07 0.0002504642662231296)
(0.6819331918327812 -3.156003524679067e-07 0.0002512121238741449)
(0.6819317806199293 -1.615973402945298e-07 0.0002519645613698587)
(0.6819314798237904 6.056247275908099e-09 0.0002527100196237045)
(0.6819317448534957 2.874576076113871e-07 0.0002534482398333424)
(0.6819320379792888 -2.371716291534396e-07 0.0002541646478332894)
(0.6819329037616538 -3.846315367795547e-07 0.0002548626629303637)
(0.6819292696960756 6.130658826549754e-07 0.0002555209534909773)
(0.6819310435036318 4.792652032161447e-07 0.0002561527874542285)
(0.6819317168314298 1.386630343511779e-07 0.000256733413083442)
(0.6819314559433811 3.857580331456494e-08 0.0002572761116753905)
(0.681930036895517 -1.060370224600777e-07 0.000257755143123223)
(0.6819318926874718 -4.574075239021709e-07 0.0002581906133886548)
(0.681931055171323 -4.450075426127594e-07 0.0002585530416871357)
(0.6819316257882845 -1.770058337470764e-07 0.0002588632161487654)
(0.6819320499712698 7.313253834677824e-08 0.0002590952247711434)
(0.6819331069716691 5.535667332669905e-07 0.0002592702400488644)
(0.6819318621203985 2.991948867094407e-07 0.0002593623536104153)
(0.6819327746009249 2.309133987165214e-07 0.000259395166978593)
(0.6819312941831004 1.56447252374578e-07 0.0002593455961299495)
(0.6819311424954745 -3.845981590753286e-07 0.0002592342003661308)
(0.681933953813823 -4.219850767415451e-07 0.000259048361247499)
(0.6819303452031146 1.814099546541486e-07 0.000258794236381068)
(0.6819305847432684 -6.499412399805442e-08 0.000258475571450101)
(0.6819304914610762 -6.37065796100598e-07 0.0002580901265223703)
(0.6819295833586683 -1.361693000604089e-07 0.0002576529565851258)
(0.6819291480931783 8.122110446496326e-07 0.0002571470935740316)
(0.6819328199379511 8.77524688214597e-07 0.0002566094769844203)
(0.681933110072396 -4.466743289155018e-07 0.0002560001818060151)
(0.6819391619273941 -8.943427320028463e-07 0.000255384222762357)
(0.6819415210372722 -5.28254103148659e-07 0.0002546929073283675)
(0.681934353213681 -4.846732163113424e-07 0.0002540151023468591)
(0.6819380400382377 -1.678453776481323e-07 0.0002532644695859742)
(0.6819329676376071 1.327023514705845e-07 0.0002525566354446675)
(0.681936648521546 1.316098527213795e-07 0.000251771756456419)
(0.6819396112724617 4.285653255417444e-07 0.000251063445597817)
(0.6819391200218323 4.633206625248546e-07 0.0002502688925671051)
(0.6819368667033782 2.381627773122955e-08 0.0002495820289149573)
(0.6819406941049045 -1.336385320187592e-07 0.0002488106479552009)
(0.681941036604941 5.223824272605173e-08 0.0002481732567874375)
(0.6819411561195207 6.198212302486138e-07 0.0002474470555077206)
(0.6819414562685774 -2.527490637686145e-07 0.0002468816592716668)
(0.6819343023889886 -4.204825124820878e-07 0.0002462270177123158)
(0.6819315401771823 5.346567195151147e-07 0.0002457532536345453)
(0.6819296354351725 2.661497857823074e-07 0.0002451969156502451)
(0.6819333762912392 -1.031133771860039e-07 0.0002448345763434452)
(0.6819313634429102 -2.486126852495996e-08 0.0002443972383434141)
(0.6819299810626849 1.804780005494194e-07 0.0002441528248005864)
(0.6819288024664912 4.47865719852953e-08 0.0002438512556746645)
(0.6819305050087031 -3.646208781745497e-07 0.0002437360519778001)
(0.681930238244069 -3.504580484415337e-08 0.0002435834185745432)
(0.6819272972858668 -7.860450993269707e-08 0.0002435944741321771)
(0.6819290256618077 -6.103088192514998e-07 0.0002435973957570332)
(0.7807657028425082 -6.169027337122187e-08 0.0002803433559395552)
(0.7807667235911391 -2.969505168406451e-07 0.0002805311142759089)
(0.7807673500765625 5.246721494784411e-09 0.0002807733684547422)
(0.7807678292861433 2.654089026457864e-07 0.0002810915783474484)
(0.7807685869312551 -7.871174334769418e-09 0.0002814875254889252)
(0.7807672061489291 5.495056933192184e-08 0.0002819525381316532)
(0.7807664873972641 1.693874351931055e-07 0.0002824875468788507)
(0.7807676665497699 1.618044913946245e-07 0.0002830848777134836)
(0.7807674305775129 2.498873443985214e-07 0.0002837395695713296)
(0.7807666348171511 1.582977334861348e-07 0.0002844452760682493)
(0.7807668576620854 6.293377723053662e-08 0.0002851967762541784)
(0.7807662617303293 1.89473187552878e-07 0.0002859861470895937)
(0.7807672650179084 -2.081619118848372e-07 0.0002868072564866202)
(0.7807690121330271 -5.129254186358974e-07 0.0002876542151091224)
(0.7807684401682939 -7.021395931417535e-08 0.0002885137025506415)
(0.7807680042237886 -3.342741527304157e-08 0.0002893844228021218)
(0.7807683866162872 -1.065896982252869e-07 0.0002902526367570587)
(0.7807671603066267 1.769339833054425e-07 0.0002911168337352699)
(0.7807677446392666 -2.315979923188752e-07 0.0002919620530895608)
(0.7807683148216378 -1.483724335448293e-07 0.0002927904744497579)
(0.7807664761959581 5.616450681386337e-07 0.0002935802560117966)
(0.7807674671058554 2.751204423629387e-07 0.000294341698271477)
(0.780766682527448 2.056770815897533e-07 0.0002950495440257658)
(0.7807672239314268 2.652346140919524e-07 0.0002957168061480739)
(0.7807668794872831 -1.044193194321225e-07 0.0002963166578232647)
(0.7807672153616576 -6.095138409596194e-07 0.0002968656887946367)
(0.7807674295135196 -4.081082810314045e-07 0.0002973371601497127)
(0.7807671708344447 -1.048903802316589e-07 0.0002977473855067724)
(0.7807675216892503 5.917176562091397e-09 0.0002980721907000933)
(0.7807678281281801 5.365140332449463e-07 0.0002983293527890943)
(0.7807680143852036 2.495461998778942e-07 0.0002984962537999221)
(0.7807689500447683 9.146637970280788e-08 0.0002985907984538444)
(0.7807673970018933 2.012721157511916e-07 0.000298593751156993)
(0.7807683628712382 -4.44423451462737e-07 0.0002985212680717747)
(0.7807687836215038 -4.072977753277469e-07 0.0002983634295136949)
(0.7807678735547664 1.581231973255634e-07 0.0002981246061921749)
(0.7807681413199894 -1.61719446949369e-08 0.0002978106371813145)
(0.7807683011914658 -4.324639308990406e-07 0.0002974144892579164)
(0.7807670065767952 -1.891977108535759e-07 0.0002969570486880287)
(0.7807668039292013 5.485265791482201e-07 0.0002964157745442186)
(0.7807680032774803 6.877336722635474e-07 0.0002958336349741269)
(0.7807687712826139 -2.435637047164788e-07 0.0002951657055409576)
(0.7807697384441065 -5.355885484023515e-07 0.0002944813974394886)
(0.7807698404375781 -4.386922517784785e-07 0.0002937093088836728)
(0.7807686651113686 -4.441545104725766e-07 0.0002929476531497687)
(0.7807684966408489 -1.256768304780953e-07 0.0002920972390493769)
(0.7807678059195619 1.553453046971701e-07 0.0002912883158966821)
(0.7807678189828795 2.842364407778551e-07 0.0002903887689884569)
(0.7807683938605068 4.667763177559899e-07 0.0002895637817146414)
(0.7807687158856517 5.042398413039881e-07 0.0002886457691677878)