/*--------------------------------*- C++ -*----------------------------------*\
| =========                 |                                                 |
| \\      /  F ield         | OpenFOAM: The Open Source CFD Toolbox           |
|  \\    /   O peration     | Version:  v1812                                 |
|   \\  /    A nd           | Web:      www.OpenFOAM.com                      |
|    \\/     M anipulation  |                                                 |
\*---------------------------------------------------------------------------*/
FoamFile
{
    version     2.0;
    format      ascii;
    class       volScalarField;
    location    "0";
    object      p;
}
// * * * * * * * * * * * * * * * * * * * * * * * * * * * * * * * * * * * * * //

dimensions      [0 2 -2 0 0 0 0];


internalField   nonuniform List<scalar> 
3770
(
0.0002711743634983309
0.005795196825342032
0.0004268311816347243
0.01490023336180554
0.007750328018180026
0.006342235369732839
-0.002639164830976394
0.005369784464355441
0.003979451099070202
0.0002305979078174408
0.009184982263565171
0.009172432922364427
0.003118177603238991
0.0032289363088075
0.02390460277228352
0.01025558085803207
0.01152219518019652
0.001565798225206107
0.01705917210497436
0.01248212109659162
0.0004940832354347058
0.007081182175620443
0.004113021585398207
0.02384551547480602
-0.007926076201800877
0.01515605170779113
0.00972912222945181
-0.004013434102183901
0.02143062335460144
0.01199380647081801
0.04818971194776633
-0.002822889763950451
0.02742549113361988
0.0243088659939652
0.02712481305595463
0.01133211383086203
0.01617688551849647
0.02747153956992363
0.02170704993725923
0.02034116293375954
0.01677102434021844
0.01917224948333748
0.01800890026953898
0.01819164236669063
0.0161547403051395
0.01101937974950548
0.01619377928384837
0.009294036757183433
0.005823910262986377
0.0186878090113911
0.006039712092759358
0.01240032170920963
0.02088547686927072
0.02362722043253047
0.01741873942245711
0.0195095568618601
0.0053422266040348
0.001121874805144309
0.0002238059556648775
0.005759997010915853
0.0003228661982978991
0.01489953572352381
0.007655601632679402
0.006296548558890488
-0.002791671562873511
0.005249644958048963
0.003979985778310011
0.0001126533936266658
0.00937521929202465
0.009077113411587796
0.003061751130940697
0.003081795924369188
0.02390971607894125
0.01014550812055479
0.01139145242466533
0.00150474863187464
0.01696239045915727
0.01245503412134696
0.0004542986742204282
0.007114031424589851
0.004002239445081464
0.0237556825818192
-0.008001374330513567
0.0151877920172444
0.009721933447445619
-0.004220249573026516
0.02160879961264043
0.01197563886240987
0.04855853772183914
-0.003028649685850478
0.02748764675074857
0.02414855969806266
0.02723953374114938
0.01136918492543472
0.01617528759999121
0.02743373993061005
0.02170142595468353
0.02037380997657336
0.01675850832288404
0.01916137627091295
0.01798424060966742
0.0181926838758394
0.01613249903145217
0.01110790682007795
0.01641323016052172
0.009310414836473506
0.005778815877177542
0.01877856702920942
0.006009474283892897
0.01233703250085011
0.02083399572677141
0.02360580293224553
0.01749666202078207
0.0194536067055931
0.005298108664241111
0.001233462549203159
0.0004915086318565854
0.003411948627352053
-0.0007575780021228416
0.01444722078501894
0.006943552982874709
0.005286299973361686
-0.003994319056262321
0.005496564694199364
0.003485163139250311
-0.003492256475971219
0.01040216219642981
0.007659048132791333
0.003049844170431863
0.0008317473802184622
0.02444493767974647
0.008486732389665288
0.0103673908178345
0.001569175501521861
0.01657673236058132
0.01275434810490384
0.0007047925265359933
0.007476555790398649
0.002740109012036993
0.02149722120914693
-0.008063060201378144
0.01517393022149104
0.01010527177055935
-0.006971374341741148
0.02225359146191855
0.01180946206070605
0.05053298572926113
-0.006493115330496789
0.02889266174558413
0.02326824092767871
0.02763155549389369
0.01167286760576259
0.01591787161765324
0.02698763000522284
0.02156176385264131
0.02072269277274098
0.01681603317307539
0.01910056179418088
0.01740272679556503
0.01768573831089689
0.01599182347548808
0.01173869385484208
0.01814018100361117
0.010128524552892
0.005416659296123501
0.01908454585303076
0.006512897746331269
0.01106286007140429
0.01959902872404998
0.02250168622398305
0.01815220801882298
0.01869297429200291
0.004533713131872538
0.002862096857649151
0.000476807348040909
0.003143482150492282
-0.0007935367979537122
0.01438557555729352
0.006845076857652894
0.005240335005578656
-0.004118118047349338
0.005501831576085157
0.0035599919238227
-0.004107356090773419
0.01036707828963148
0.00762585726351377
0.003075775338535631
0.0005741875091896853
0.02446189712184618
0.008287615676126308
0.01027480139006512
0.00160642244724341
0.01655688840662973
0.01273323794161248
0.0007619309926661173
0.007452086277694357
0.002680260873581974
0.02124470680677698
-0.008184269107194065
0.01523875809784182
0.0100955257991377
-0.006978856333153532
0.02252716651876142
0.01170722749217377
0.05056072694470486
-0.00648472240880511
0.02901002569006194
0.02342941056059672
0.02754587376129742
0.01167322745584572
0.01590356142661113
0.02695627355198725
0.02138199021246392
0.02076554095438622
0.01683729863357272
0.01910978123346532
0.0173733745832528
0.01762500859021236
0.01601649281603976
0.01162466112763822
0.01812874655711627
0.01030189860920054
0.005317222487919241
0.01891678981386789
0.006615034565775195
0.01089218391924708
0.01934888405215625
0.02222434636472926
0.01827417696614241
0.01864048975922279
0.004397294107570714
0.00303706816662723
0.0007678052811060319
0.002256751240244373
-0.0001970725202506262
0.01409360879634827
0.006838761156588812
0.005775174584747939
-0.003471313489431962
0.004844546291425915
0.003802449584122454
-0.00964450627992694
0.007785476481667249
0.009000115647493423
0.004376887406631664
-0.0009921802806823761
0.02424934863805099
0.008833998351576881
0.010614014865956
0.003128157207755172
0.01597859224760412
0.01238516300355213
0.001490310956618117
0.007312924782673953
0.002331550737475332
0.01988913542916908
-0.007336772467554003
0.01461113486958261
0.01096096211986658
-0.003252014018043549
0.01816514792988222
0.009910561686416373
0.04635722893575116
-0.005176406366485825
0.02867568691117969
0.02153261693217133
0.02640531624271717
0.01184279451529534
0.01524022584875819
0.02589087886155476
0.02130477201937207
0.02075374582687683
0.01698037535566443
0.01906464618453079
0.01783770722377009
0.01604609847344283
0.01410263493305657
0.009756676004335746
0.0156625641334326
0.01108256272422764
0.003541607635735655
0.01597781023864294
0.007986275649752052
0.008633884203470716
0.01802346120398123
0.0211426423905422
0.01819730835213527
0.01993470913175811
0.003133416396542308
0.001925378267605818
0.0008144807811366454
0.002062350062316405
-8.699804424669162e-05
0.01408607038583878
0.006911051473199889
0.005763809452714713
-0.003395460196777127
0.004987043241101569
0.003900406049152643
-0.01067618439128641
0.007222515064070852
0.009141370045573921
0.004513735262066467
-0.001142447090352425
0.02415979132173236
0.008801162978732553
0.01079005164544374
0.003259773149739546
0.01605954395606981
0.01238699675559767
0.001580862496586382
0.007231353241908533
0.002393169570566303
0.01982846557129353
-0.007140714486482094
0.01464840299866669
0.01092020245725451
-0.002772137321448858
0.01781065065510596
0.009680299919539712
0.04568961974681128
-0.005072741080581739
0.02863649966588298
0.02201179563488285
0.02625431643094623
0.01181014650438826
0.01518938436879857
0.02578517964965641
0.02108109027701731
0.02075143194671728
0.01700720436732606
0.01907877934400447
0.01787386766513386
0.01589311104108829
0.01404306777683125
0.009553485484908092
0.01530861116296553
0.01115174311278414
0.003369657984645176
0.01560704495039295
0.008110911063428993
0.008430786042423942
0.01790645818347784
0.02085896908191748
0.01815942391001873
0.02007434905550334
0.003062360202593184
0.001696552118453522
0.001048028612208068
0.002005486849002233
-6.844771543295495e-05
0.01403133214452876
0.006939790460358823
0.005734772108863519
-0.003391912664451778
0.004959069917723591
0.003819853718719602
-0.01086125541357627
0.007054974798985049
0.009242618666244488
0.004595001680596296
-0.001066038416730049
0.02415643150430785
0.008960355552183517
0.0109053127625419
0.003418330040608965
0.01602914117714316
0.01232995103253336
0.001665410424061752
0.007231684360724511
0.002502937284607687
0.01963955134268046
-0.007093955247401276
0.01443280978408894
0.01092517961384127
-0.002471493786835048
0.01700577836953843
0.009267164673356096
0.04527225470793344
-0.005179173867003409
0.02844550950762457
0.021584735136639
0.02630661768252346
0.01183287578343805
0.01508869000854064
0.02571545067681453
0.02122259813176343
0.02070418849929118
0.0170077329172958
0.0190511066318598
0.01790707124534729
0.01573661131293538
0.01386558510611525
0.009434722689155696
0.01509516005261458
0.01116728893738402
0.003190197621479587
0.0154346380520009
0.008273448915575818
0.00831574568967693
0.01777623859856286
0.02071797742514252
0.01808668784178919
0.02023996193450302
0.003125312282159982
0.001542155855451461
0.002393617019994019
0.001692169782316747
-0.0005571590062463253
0.01355127483835419
0.006993071574997251
0.005849631758276753
-0.003758153108204446
0.004405408761172022
0.00426202910446933
-0.01582069985794868
0.004824344212962117
0.009579927164384652
0.004702567457253442
0.0007945864055383164
0.02360921830603858
0.00959666930667448
0.01238678516582071
0.004903089390626371
0.01554689597071377
0.01189635685231457
0.002633971553316304
0.006769183726519256
0.004205452269496946
0.01867338283058467
-0.00534599738111394
0.01193775349820741
0.009669775585680607
0.0006748251615116064
0.01533864160542958
0.006744921959831982
0.0415795830566472
-0.007393782108467218
0.02821962708377159
0.02087365763653401
0.02716805847398187
0.01120980156925794
0.01339213812822976
0.0249222304432769
0.02159393543928322
0.02032966816266142
0.01709390614898117
0.01875978273572359
0.01792160381095605
0.01479595106308387
0.01184674078607421
0.008127804666996523
0.01313167777313308
0.01117751328920782
0.002185592910826508
0.01459141204189527
0.009778210826391544
0.007037531214862021
0.01719782491111334
0.01967754249249424
0.01767186897567464
0.02187240204674915
0.003284955128114501
-0.001141232561078408
0.002682934749812585
0.001672691134565061
-0.0006593602858109248
0.01342387572109351
0.006974388441922713
0.00589780034372628
-0.003820228153553747
0.004304457192650754
0.004134947921764205
-0.01559003114042317
0.004669830311409122
0.009574302232467221
0.004708085452163648
0.001367546813765483
0.02349999224723781
0.009733264130824549
0.01248136417043936
0.00502965110994319
0.01547654696309641
0.01178101390503597
0.002799884881962085
0.006767542555666453
0.004423615617297669
0.01844066795614247
-0.005428487356043921
0.01172871111389112
0.009628938758042997
0.0009452908659596726
0.01505533479224596
0.006641926334394608
0.04132023155239534
-0.007754465944197946
0.02830031435570241
0.02014923116373592
0.02744115688014918
0.01112697961257398
0.01319794293343109
0.02491501898065864
0.02183597843964125
0.0203006060262361
0.0170473483459568
0.01873476648076959
0.01795451355910571
0.01462931110536423
0.01172147507587071
0.008079848839756884
0.01297929064311186
0.01116398595924838
0.002348521188050502
0.0145875037751261
0.009941924435556693
0.007004367802840167
0.01710044659130265
0.01965698085197415
0.01758384020583442
0.02192363223100669
0.003339112966822645
-0.001230927220381674
0.004129762966444057
0.00139567741063113
-0.001698242297757108
0.01236491623522401
0.0065393641779913
0.007050579152587971
-0.003411668453341816
0.003303155128712853
0.003790342012122861
-0.0168338822743682
0.002448407287089791
0.008543019019383221
0.004893343783934524
0.006189431929580247
0.0225454344820106
0.01071510220258327
0.01312018092140334
0.006463919790528419
0.01474081992216117
0.01089458447528662
0.003939091556496998
0.006722983552107243
0.006479152330729779
0.01746675249606457
-0.00550946337317131
0.01033811442526213
0.008910439323249811
0.003265542552327137
0.0146038277792923
0.006447495874760336
0.03889042357153762
-0.01135224053438306
0.02971964569410802
0.0163929493549356
0.02924251581388334
0.009293693420878912
0.01074658203226662
0.02476546234269736
0.02309218868674106
0.02040644229037468
0.01655554334289082
0.01860326825426953
0.01802731148291153
0.01367634452683145
0.01097791529323656
0.007529215018937467
0.0110981900523258
0.01095018605008656
0.004103512616366401
0.0140851776174987
0.01223406244714652
0.006888619021213839
0.01632225627429807
0.01921860014435946
0.01648968105510884
0.02115676103527821
0.003595184073807714
-0.002440853300814352
0.005161259597482083
0.0009039896385377339
-0.002227931363598775
0.01113019175767696
0.005937388901276344
0.008476171469185261
-0.001909648799539763
0.001743216311432378
0.003048492623078853
-0.01589173321678408
7.940551458412106e-05
0.006425424917522132
0.006370406311706212
0.009089428508000819
0.02190210008953013
0.01129034931822068
0.01290890625704004
0.007713425867997861
0.01402454427797375
0.00945750142160565
0.0044362490779965
0.006676382532708369
0.008090576644611568
0.01649058855667476
-0.004990287821160516
0.009603514357383979
0.008389401598172586
0.004353742843640315
0.01382906103432187
0.008497476479063865
0.03756051540886143
-0.01358039570142127
0.03210652313234705
0.01430054004298378
0.03097623720187976
0.006943272810654458
0.008533742538838405
0.02493369052741219
0.02515333994263416
0.02066679906865237
0.01556461449657545
0.01863948529584033
0.0173037031085845
0.01267488148327927
0.0104025707485847
0.007359749271066307
0.009166413873865287
0.01067886650914777
0.005864761684094987
0.01279691572729848
0.01253894742336771
0.008072209761753272
0.01560690609799033
0.01824212243422798
0.01498219919992464
0.01958579707825797
0.00280855375949679
-0.0002897942746978458
0.00533129427760479
0.0008483226892946844
-0.002268312718675176
0.01094813512717907
0.005841374697400066
0.008812947543551677
-0.001638623488370645
0.001672035231480788
0.002989436267570719
-0.01596579434171707
-0.0002957124627165024
0.006167874346588236
0.006588421124271498
0.009364100835959868
0.021811333504204
0.01134719650341479
0.01288307964162605
0.0078557247393335
0.01392966412043601
0.009192959451532709
0.004478607654988359
0.006660290316431935
0.008265080555906598
0.01643516886589411
-0.00495997954823785
0.009524207061075804
0.00834947672812655
0.004467549264213728
0.01380399899618865
0.008884589229168257
0.03727044055432532
-0.01371886627621083
0.03240338480775881
0.01419503644146855
0.03130790018551947
0.006672339390772802
0.008402807785818076
0.02497210696907895
0.02557275471913368
0.02074477775815002
0.01543802316129662
0.0186516604889884
0.01716293901732482
0.01253807329848553
0.01031392521847269
0.007328700895784529
0.008912805211867362
0.0106520413125966
0.006154500902791699
0.01263547197484156
0.0125523815648368
0.008284305674321889
0.01550394533780803
0.01803546755854055
0.01478533804249342
0.01943150591662203
0.002671259106265495
0.0002319460704726379
0.006961679014673183
0.0006262578796700762
-0.002795884071050225
0.009701513472139378
0.005466588129741691
0.01127266457298651
0.0002484140716184463
0.001817928484349938
0.002904903431452195
-0.01469089638966161
-0.002697575061716135
0.004540505322127508
0.007871721273576089
0.01056217127593577
0.02114346443442603
0.0117036471878998
0.01223332577302398
0.008987534482246906
0.01331064746542608
0.007792567004842703
0.004605388227353469
0.006533387035389375
0.00932909629755576
0.01626811969175601
-0.005320967427493069
0.009023198250218469
0.007321033838143406
0.005651946941648683
0.01276671716014656
0.01060125333850548
0.03429682955401446
-0.01326261751611256
0.03310326401802483
0.0137365976957457
0.03349679139565365
0.005054458300117273
0.008271950388349996
0.02533694475130891
0.02755097659426927
0.02142328272602803
0.01516688176650277
0.01867421336264965
0.01643221317320127
0.01174833280394121
0.01032385827783588
0.00718894612566273
0.007396480354480697
0.01047420166238079
0.007422834658633379
0.01138318563034815
0.01266917467711332
0.0102486548247623
0.01461489526215709
0.01703994312410318
0.01427558236915372
0.01841405069496818
0.001468755681497474
0.004276281775746044
0.0100902657311773
0.0006373004476608155
-0.003126045122101837
0.008591730734154628
0.005497871365096127
0.01455276757871386
0.001975934089651053
0.003839234719877893
0.002706317284143337
-0.01214664437834214
-0.004575689214534238
0.003635664513219589
0.007852377949583655
0.01120652678211381
0.02035536227881268
0.01210437309606855
0.01106784262890338
0.00983031617162667
0.01275328927265446
0.006707680306897477
0.004597470240560023
0.006345215587586821
0.009982294134071435
0.01587350732266531
-0.007647239878781539
0.008492371442915371
0.006356110987340171
0.005824173077822961
0.01151877790234229
0.01171646512561055
0.03099428758467953
-0.008136131961127025
0.03292407278570294
0.0129319650863008
0.03359940869026564
0.004541144683277208
0.008777553035823452
0.02552610842529088
0.02819474232230211
0.02233623466271488
0.01532416407695591
0.01855335660459859
0.01587219821963421
0.01108997393202476
0.01030983773133344
0.007455244460663062
0.006918582594921267
0.009739258825008139
0.008270313346773311
0.009936870392354908
0.01317535081151819
0.01191182540773191
0.01410782360971524
0.0167899801414646
0.0148591408558015
0.01794698768765169
0.0003138657705175302
0.00400960848381539
0.01266336504936579
0.0008040842748242192
-0.003273278362974206
0.007532725092960175
0.005298460459196572
0.01724861330244938
0.003750326626886418
0.006457451136520754
0.002549513570959401
-0.008756071032957544
-0.0055890522578584
0.002784284596876866
0.00648625969632793
0.01148675627347617
0.01950626734268377
0.01293265228909127
0.009854699206805172
0.01033333629982806
0.01229196749619589
0.0061192652343036
0.00450983949974321
0.006401480275456934
0.01025750353047217
0.01512157602401081
-0.008599880451722197
0.007932213384504241
0.00564956235588709
0.006154818042331096
0.0103755107782882
0.01247605454857993
0.02771859641246691
0.0007933081232497479
0.03018782574256559
0.01159721439997627
0.02959374436233073
0.004538635915517652
0.009810195691150195
0.02550639579901246
0.02699687859577882
0.0234310188843167
0.01535984308732157
0.01829409002604761
0.01525785657694539
0.01075628872818525
0.01003454411203642
0.007988773809228095
0.007071603955098747
0.008806225004220979
0.008632434067269157
0.009155650990093779
0.01361422001951103
0.01270600673394614
0.01475724361352575
0.01688288469903803
0.01527992987606995
0.01765859462570008
-0.0008481993369677913
0.001447227561779577
0.01385093214686226
0.0004784514021324069
-0.003192532368332656
0.005748078036237762
0.004827109433587121
0.01715468456727431
0.006592938177698572
0.008575398721917772
0.003595212851452432
-0.003004222507995442
-0.004212392453135982
0.003280936013117919
0.003196391515384324
0.01061058544138231
0.01761359297538298
0.01612270643970549
0.01037734143607761
0.0110960186422847
0.01144466378718925
0.006821123485913155
0.004391866583427695
0.006576382536343908
0.01001246057506946
0.01260993815142157
-0.003058442520252546
0.006682046525780079
0.006615453718534493
0.006992381166596268
0.009190620980069158
0.01357947780682859
0.02366843411794697
0.01229048884606847
0.02309124316866036
0.01065749025322451
0.02094671924806599
0.006950262907965445
0.01304108296341453
0.02482335012497755
0.02523082694837171
0.02331935261459707
0.01436030786904348
0.01783774445903655
0.01466640746655999
0.01071403749441045
0.009408948125890233
0.008998325658667865
0.006656893847669949
0.008336375044884031
0.009660452574992821
0.009831858128258838
0.01353725288475509
0.01228586780535292
0.01654139741276927
0.0150298589750946
0.01494613826651105
0.0168355109558054
0.00150043317285645
-0.001195168964159935
0.01273899297316607
0.001152088861325947
-0.002272576178006721
0.005136273846235536
0.004983697516436414
0.01521670495442674
0.008437875926159844
0.008086322282012847
0.004570672048072421
-0.0007393403000161153
-0.001580630289820251
0.004242271967561336
0.00267794744349608
0.009763606341868099
0.01640775885990614
0.01617744528683126
0.01037788075961865
0.01147926153946031
0.01106325223432621
0.007664507744292599
0.004343243392805556
0.00649077215106746
0.009699975496418984
0.01087154079527704
0.002048049255632174
0.006832433195439278
0.007022375365930167
0.007055463679418225
0.009155137568542753
0.01406647499998591
0.02183616154050026
0.01573998048145703
0.02091419118564834
0.01327203672265014
0.01699556768649253
0.01076765575607362
0.01450847690836766
0.02440299309556096
0.0255777458726381
0.02553172935058643
0.01308596074226314
0.01728284065607053
0.01447115842800245
0.01045698007453505
0.008755871176887444
0.009387962495613402
0.006013758595951523
0.009327591787663686
0.01075105640122166
0.0103757400958683
0.01352693858975302
0.01145486414636076
0.01762213746284783
0.01274163642184011
0.01517118561205617
0.01610725208228427
0.003050677214771686
-0.0009858392663805459
0.01223429071188977
0.001717602954212184
-0.0003257493118319813
0.004831057064220138
0.005068386524730485
0.01228222901912839
0.009513426863827867
0.007212478957052171
0.005229253793608575
0.001841281403675039
0.0001624350036447228
0.004899193969611206
0.003240662013920999
0.009195399093336262
0.01501126016511185
0.01508509626300041
0.01163540361982823
0.01130356129568886
0.01090683421671034
0.007786611989823691
0.004498134625024396
0.006748757178437276
0.009310214099025419
0.009577616791397849
0.004665860430582125
0.007276079854148422
0.00726322059534423
0.006985544517509559
0.009160537839868838
0.01425539025204652
0.02013710895504831
0.01815829139314533
0.02212819568127662
0.01445193380228456
0.01772253815407181
0.01367754968432943
0.01519982134094634
0.02309599509279833
0.02732583702921248
0.0228972885561138
0.01263907160104838
0.01610508241193713
0.01411391828715119
0.009814977543186058
0.007421044219338338
0.009704438148341843
0.005644434120248037
0.009403511932082925
0.01081369535594607
0.0103260442921027
0.01404540769819772
0.01239974055700192
0.01831314423725554
0.01386720603817056
0.01536714430148131
0.01468369266127391
0.004627321918347346
6.313965087011364e-05
0.008400831925135858
0.003910351968866487
0.001472262177273363
0.005109583753705734
0.004808121504305949
0.01039545734065187
0.009747178514685911
0.006527890604595524
0.006299600227516775
0.003753090213547982
0.001088844791295303
0.00535074986826758
0.004182695014272962
0.008780299836424966
0.01350062217389969
0.01346294308377716
0.01244099731384467
0.01126486704285759
0.01038907796728348
0.007367273061054894
0.004751728339353936
0.006842706981714285
0.008759433028572529
0.009025035424110303
0.005705026038455538
0.007667415232450777
0.007509136927268359
0.007197410244677963
0.00956579066258053
0.0138955831345224
0.01863788614809114
0.01823958931826811
0.02318712531248862
0.01216586954945944
0.01711216516619509
0.01506451264725646
0.01526355336365561
0.0218647497554263
0.02815719881640595
0.02055364424661071
0.01408231707361495
0.01578675281866653
0.01427962055545993
0.009271234770512924
0.005202845253763937
0.007241525286855338
0.003632011411738034
0.009494699150171065
0.01045030376850881
0.01036848967364407
0.01345765724693573
0.01338180739360242
0.01768227482104778
0.01926716897133512
0.01555088405879707
0.01301056882831671
0.006310263329280533
0.001734656371281865
0.005399061967014985
0.00457317348533401
0.0008900159864598985
0.004787280960621511
0.005325073579496705
0.009527170985268946
0.01157914372861067
0.00558930923559157
0.005323014721199645
0.003399050554838628
0.002795233405180574
0.006088490907276431
0.004672659078249618
0.008724076110471277
0.01291715712018584
0.01364416890457136
0.01163586765727434
0.01176639273024071
0.00924497155638614
0.007089587165459319
0.005321238705794719
0.006641887583750296
0.008036484779496689
0.008935779842669613
0.006666767840623327
0.00846585098454488
0.007735845073191751
0.007721402742332578
0.01043161146255204
0.01229193971152525
0.01604765069586491
0.01596841674175251
0.02778100175495273
0.006458204622461858
0.01393261143750433
0.0156264349352465
0.01538364925608759
0.02091489531757878
0.03255587159785974
0.01892042492110261
0.01266455717858571
0.01576021522964052
0.01322227867346895
0.008545585290685756
0.004113324733902748
0.004559785539894618
0.002688296288999055
0.008889307906900762
0.007326264549658269
0.01090389533505493
0.01600008459733236
0.01310627504107482
0.0196809252923387
0.02113915233173964
0.01433229073462175
0.01285236545483581
0.006749861544975941
0.003583067176067494
0.004297574129602411
0.004766739891087771
0.002545209687421347
0.003120931680398817
0.006206740606774994
0.007531812833150183
0.008887014501713458
0.005327696361623632
0.004730474499868353
0.001857140298231812
0.004619868441008513
0.008274463565960585
0.006042098082958766
0.009038504023735036
0.01224051752565685
0.0144652598152779
0.01133420742421794
0.01298604570851176
0.009341711087524185
0.007438078896348586
0.00508317105703998
0.006957810446157841
0.007390337177624078
0.009016480458309089
0.007944209924019511
0.009282495632777197
0.007906185498524348
0.008607212254678177
0.009835983361141835
0.008637848882635928
0.01179979000931007
0.01284777476154791
0.02613408162110792
0.007393368706788995
0.01445284562011695
0.01616654133052848
0.01215864305076245
0.01951972297738852
0.03689422170602717
0.02019848077209852
0.01414420412228928
0.01507865841395792
0.01178559393126962
0.009299580935156992
-0.001892363476068499
0.003944882157187507
0.002800902077667996
0.006894873443455568
0.006297241372900924
0.01083945435528009
0.01916379507409974
0.01617100647884645
0.02023736090293103
0.02155360138064452
0.01450729270917692
0.01215255338329197
0.006687503996973343
0.004356519954524051
0.004139787244296378
0.004818087920584697
0.002785925034250616
0.002896879996057549
0.006375170394550892
0.007231260521380448
0.00829596325773542
0.005312711843956445
0.004649456987436284
0.00158825381270796
0.004965728033508123
0.008631020650424454
0.006218529655951719
0.009081838222340086
0.01210379679308423
0.01460081212239737
0.01137644336837026
0.01322330519103814
0.009512270473714233
0.007510240386183367
0.005012235997003329
0.006962100598099407
0.007354426345863155
0.00904058601863037
0.008161603051582946
0.009433489404713075
0.007925125710450166
0.008705037545768067
0.009655221152042176
0.007874588348381048
0.01101761737136671
0.01248603927738335
0.02568833764387544
0.007719569102281722
0.01477081618172045
0.01614179874992674
0.01152398133448733
0.01932978149774212
0.03763768156999717
0.02043500126628436
0.01438808711566392
0.01493650089893993
0.01152968119382772
0.009340790273629569
-0.002786141583690476
0.003972807766957691
0.002975469030139824
0.006608355248218019
0.006190691507295315
0.01063867918490746
0.01960661043516012
0.01673925957087751
0.02036279004980809
0.02173949368707506
0.0146418827953567
0.01207541013178551
0.006674575885044552
0.004464549728573998
0.004967644692497919
0.005300240948878938
0.004686475025215993
0.003978340543136628
0.007229745992403638
0.009273001379809288
0.005445867258004337
0.004599593932849134
0.003421749697291564
0.0007098676137290656
0.005110779365643689
0.01097931725465564
0.007652450494924437
0.007916788890336882
0.01058584155984026
0.01525341349122579
0.01337395639260095
0.0148406027349141
0.008379479067135742
0.007081757891408427
0.004330123044179771
0.005724916682688916
0.008078027837231602
0.01089147193162078
0.009835641553445344
0.01046577914155351
0.007545827470819179
0.008364587329320078
0.006737502233180777
0.003535024307121919
0.008458649790824587
0.01099856973684966
0.02048411250423013
0.01154322682705096
0.0170421035597604
0.01191859208864224
0.004673254798661908
0.01848980181088698
0.03857911610056339
0.02263757121592503
0.01430462922541886
0.0134913297344553
0.01183574225425152
0.01069572180511506
0.002404223769581831
0.00551760664007937
0.002994486908803333
0.001691422370688074
0.005947766020596238
0.003516652343312098
0.02187254864826443
0.02181930595968598
0.0222697024039698
0.02212401152523306
0.01386913219750499
0.01234083681115601
0.007715003195447667
0.004475905903392143
0.005074412485654316
0.005066588605076802
0.0044887568400217
0.004198613275792344
0.006985880730403651
0.009165735209599749
0.005464799825627155
0.004495650971025715
0.003402547063076247
0.0007789016877794471
0.00490187987238918
0.01116053891439763
0.008207401638941795
0.007911963372270805
0.01035414222011364
0.01545862531629638
0.01349686553584732
0.01481902815504002
0.00873274529694941
0.006825637359754274
0.004414521981590674
0.005738423651634963
0.008231227809949731
0.01125899599084317
0.01004393540960113
0.01032228224638613
0.007600866137907734
0.008332587758306861
0.006621075203078198
0.003854644581003449
0.008686782554238983
0.01099006929675053
0.0198040799238978
0.01167581102002812
0.01620253696999626
0.01167350557622972
0.00441275917993538
0.01831013608426206
0.03951965524276572
0.02267080128574607
0.0143258659686852
0.01338123793247403
0.01178085927816207
0.01085380177739721
0.003433024431533651
0.005163224650552853
0.002690525974601833
0.001448206954207368
0.004896586916763409
0.004093152290349239
0.02210262159228749
0.02272513366144998
0.02236146995226502
0.0217869827389473
0.01353795802135171
0.01218845690890498
0.007661228325534708
0.004300714228991824
0.005676898965674387
0.003251095312703394
0.002816763513218689
0.003888035065634485
0.005850229741825258
0.008928887810960266
0.005657117199698252
0.0036977523327519
0.003370004884136598
0.0008171138096416216
0.003561033658533851
0.01242119156396128
0.01170681082103741
0.008000540409290026
0.008536727330986262
0.01583432587495053
0.0148311975188079
0.01460726516832707
0.01109143511388271
0.003445996621699681
0.004893090117319114
0.005917790796368143
0.009963528359491594
0.0140332960943338
0.0114237543604115
0.009367032077168313
0.007899121116682555
0.007911549323276772
0.005227848489163271