/*--------------------------------*- C++ -*----------------------------------*\
| =========                 |                                                 |
| \\      /  F ield         | OpenFOAM: The Open Source CFD Toolbox           |
|  \\    /   O peration     | Version:  v1812                                 |
|   \\  /    A nd           | Web:      www.OpenFOAM.com                      |
|    \\/     M anipulation  |                                                 |
\*---------------------------------------------------------------------------*/
FoamFile
{
    version     2.0;
    format      ascii;
    class       volScalarField;
    location    "20000";
    object      nut;
}
// * * * * * * * * * * * * * * * * * * * * * * * * * * * * * * * * * * * * * //

dimensions      [0 2 -1 0 0 0 0];


internalField   nonuniform List<scalar> 
3770
(
0.0001428550742913956
0.0001428550742909326
0.0001428550742913164
0.0001428550742911963
0.0001428550742911479
0.0001428550742911314
0.0001428550742909093
0.0001428550742912505
0.0001428550742910278
0.0001428550742909989
0.0001428550742912644
0.0001428550742910253
0.0001428550742909826
0.0001428550742912411
0.0001428550742910443
0.0001428550742909418
0.0001428550742912823
0.0001428550742910023
0.0001428550742909846
0.0001428550742912138
0.000142855074291044
0.0001428550742909164
0.0001428550742912786
0.0001428550742909863
0.0001428550742909767
0.0001428550742911952
0.0001428550742910338
0.0001428550742908905
0.0001428550742912625
0.000142855074291068
0.0001428550742911068
0.0001428550742908932
0.0001428550742911484
0.0001428550742909625
0.0001428550742910049
0.0001428550742909247
0.0001428550742912106
0.0001428550742908963
0.0001428550742908949
0.0001428550742911358
0.0001428550742910729
0.0001428550742909662
0.0001428550742908539
0.0001428550742908568
0.0001428550742908417
0.0001428550742910556
0.0001428550742908789
0.0001428550742907525
0.0001428550742910945
0.0001428550742908721
0.0001428550742909001
0.0001428550742907101
0.0001428550742909111
0.0001428550742907214
0.0001428550742905338
0.0001428550742904949
0.0001428550742904422
0.0001428550742907715
1.152791293935358e-05
1.152791293917841e-05
1.152791293927267e-05
1.152791293875209e-05
1.152791293957592e-05
1.152791293908291e-05
1.152791293910725e-05
1.15279129389992e-05
1.152791293846271e-05
1.152791293915246e-05
1.152791293894135e-05
1.152791293842917e-05
1.152791293907092e-05
1.152791293875888e-05
1.152791293842342e-05
1.152791293903683e-05
1.152791293902587e-05
1.152791293832413e-05
1.152791293897068e-05
1.152791293862484e-05
1.152791293834143e-05
1.152791293893551e-05
1.152791293898198e-05
1.152791293822341e-05
1.152791293887088e-05
1.152791293852153e-05
1.152791293825161e-05
1.15279129388437e-05
1.152791293894728e-05
1.152791293870654e-05
1.152791293931191e-05
1.152791293789613e-05
1.152791293876538e-05
1.152791293939793e-05
1.152791293843565e-05
1.152791293906592e-05
1.152791293878113e-05
1.152791293815311e-05
1.15279129388651e-05
1.152791293875783e-05
1.152791293881797e-05
1.152791293917023e-05
1.152791293800808e-05
1.152791293835666e-05
1.15279129388789e-05
1.152791293849326e-05
1.152791293824643e-05
1.152791293893094e-05
1.152791293893168e-05
1.152791293841902e-05
1.152791293901966e-05
1.152791293777894e-05
1.15279129387445e-05
1.152791293917624e-05
1.152791293794764e-05
1.152791293826017e-05
1.152791293881891e-05
1.15279129390231e-05
4.401034297294449e-06
4.401034301159812e-06
4.401034298344721e-06
4.401034296314384e-06
4.401034299905256e-06
4.401034299706654e-06
4.401034301239619e-06
4.401034298427921e-06
4.401034297001709e-06
4.401034300949478e-06
4.401034298443954e-06
4.40103429667894e-06
4.401034301025683e-06
4.401034298129184e-06
4.401034296676746e-06
4.40103430070909e-06
4.401034298278672e-06
4.401034296297432e-06
4.401034300721263e-06
4.401034297865907e-06
4.401034296399205e-06
4.401034300433446e-06
4.401034297976537e-06
4.401034295988131e-06
4.401034300376312e-06
4.401034297530402e-06
4.401034296076102e-06
4.401034300167945e-06
4.401034297771706e-06
4.401034296087082e-06
4.401034301027742e-06
4.401034295628296e-06
4.401034297511624e-06
4.401034301647132e-06
4.401034296367736e-06
4.401034300059953e-06
4.401034297625512e-06
4.401034295786281e-06
4.401034300189548e-06
4.401034297508549e-06
4.401034296293286e-06
4.401034300960498e-06
4.401034296008966e-06
4.40103429708014e-06
4.401034300717891e-06
4.401034298148512e-06
4.401034296762142e-06
4.40103430090405e-06
4.401034298415709e-06
4.401034296993853e-06
4.401034301786556e-06
4.401034296562222e-06
4.401034297871073e-06
4.40103430167883e-06
4.401034296433183e-06
4.401034297106808e-06
4.401034299954282e-06
4.401034299369803e-06
7.087233666035838e-06
7.08723368101293e-06
7.087233670491205e-06
7.087233665600045e-06
7.087233678666335e-06
7.087233678016609e-06
7.087233681215655e-06
7.08723367118838e-06
7.087233667415611e-06
7.087233680078856e-06
7.087233670991214e-06
7.087233666166342e-06
7.087233680663467e-06
7.087233670455638e-06
7.087233666001593e-06
7.087233679362528e-06
7.087233670922787e-06
7.087233664678006e-06
7.087233679567545e-06
7.087233669588506e-06
7.087233664964326e-06
7.087233678401547e-06
7.087233669767553e-06
7.087233663597004e-06
7.087233678296616e-06
7.087233668387477e-06
7.08723366375208e-06
7.08723367748224e-06
7.087233669075782e-06
7.087233663435053e-06
7.087233679510157e-06
7.08723366195537e-06
7.087233668450399e-06
7.087233680552497e-06
7.087233664936854e-06
7.087233677088823e-06
7.08723366853708e-06
7.087233662878409e-06
7.08723367762031e-06
7.087233668273666e-06
7.087233663971939e-06
7.087233679285289e-06
7.087233663654218e-06
7.087233668083844e-06
7.087233679591299e-06
7.087233670890555e-06
7.087233666462471e-06
7.087233680402541e-06
7.087233671166786e-06
7.087233667343646e-06
7.087233682646582e-06
7.087233665914764e-06
7.087233670763097e-06
7.087233682185027e-06
7.087233665715507e-06
7.087233669310314e-06
7.087233679631924e-06
7.087233670631348e-06
1.893736179871496e-05
1.893736183090983e-05
1.893736179898193e-05
1.893736180615152e-05
1.893736182570715e-05
1.893736182540083e-05
1.893736182987494e-05
1.893736180539801e-05
1.893736180887289e-05
1.893736182828739e-05
1.89373617995772e-05
1.89373618055196e-05
1.893736182673149e-05
1.893736180576117e-05
1.893736179965952e-05
1.893736182354593e-05
1.89373618055097e-05
1.893736179675524e-05
1.893736182293899e-05
1.893736180261694e-05
1.893736179594448e-05
1.893736181999732e-05
1.89373618013321e-05
1.893736179276263e-05
1.893736181843049e-05
1.893736179818392e-05
1.893736179146355e-05
1.893736181638637e-05
1.893736179915693e-05
1.893736179163086e-05
1.893736181848742e-05
1.893736178697932e-05
1.893736179864638e-05
1.893736182023432e-05
1.893736179384636e-05
1.893736181486694e-05
1.893736179673619e-05
1.893736178953186e-05
1.893736181565084e-05
1.893736179711077e-05
1.89373617912372e-05
1.893736181680457e-05
1.893736179775285e-05
1.893736179618437e-05
1.893736182185337e-05
1.893736180600599e-05
1.893736180076388e-05
1.893736182794039e-05
1.893736179973415e-05
1.893736180714577e-05
1.893736182691538e-05
1.893736180558891e-05
1.893736180327875e-05
1.893736182576636e-05
1.893736180469786e-05
1.893736180097967e-05
1.893736182314012e-05
1.893736180302211e-05
4.929946408354284e-05
4.929946413282496e-05
4.929946408818288e-05
4.929946410278922e-05
4.929946412774261e-05
4.929946412538049e-05
4.929946413353173e-05
4.929946409042174e-05
4.929946410449358e-05
4.929946412815609e-05
4.929946408854527e-05
4.929946409653819e-05
4.929946412473395e-05
4.929946409355532e-05
4.929946408675694e-05
4.929946411693544e-05
4.929946409125484e-05
4.929946408003092e-05
4.929946411426791e-05
4.929946408435487e-05
4.929946407616776e-05
4.929946410658847e-05
4.929946407916427e-05
4.929946406846177e-05
4.929946410170433e-05
4.929946407168166e-05
4.929946406298291e-05
4.929946409537087e-05
4.929946407318438e-05
4.929946406615926e-05
4.929946409597911e-05
4.929946405709302e-05
4.929946407041245e-05
4.929946409714224e-05
4.929946406588005e-05
4.929946409132989e-05
4.929946406542852e-05
4.929946405786714e-05
4.92994640926721e-05
4.92994640671043e-05
4.92994640617233e-05
4.929946409696191e-05
4.929946407259427e-05
4.929946407002325e-05
4.929946410751899e-05
4.929946409106447e-05
4.929946408708605e-05
4.929946412341511e-05
4.929946408461742e-05
4.929946409687207e-05
4.929946412185474e-05
4.929946409535969e-05
4.929946409015198e-05
4.929946411961347e-05
4.929946409394045e-05
4.929946408698994e-05
4.92994641146395e-05
4.92994640852319e-05
0.000110322182754336
0.0001103221828068979
0.0001103221827674466
0.000110322182788454
0.0001103221828083701
0.0001103221827987167
0.0001103221828117702
0.0001103221827697383
0.0001103221827824506
0.0001103221828035594
0.0001103221827692926
0.0001103221827687688
0.0001103221827978615
0.0001103221827655473
0.0001103221827574613
0.0001103221827827056
0.0001103221827581582
0.0001103221827443176
0.0001103221827751311
0.0001103221827442239
0.0001103221827339056
0.0001103221827591424
0.0001103221827309109
0.0001103221827180694
0.0001103221827480043
0.0001103221827161585
0.0001103221827047083
0.0001103221827314097
0.0001103221827159864
0.0001103221827184694
0.0001103221827268941
0.0001103221827059023
0.000110322182703374
0.0001103221827252681
0.000110322182709185
0.0001103221827239971
0.0001103221826987694
0.0001103221826916505
0.0001103221827256057
0.0001103221827021349
0.0001103221826986266
0.0001103221827355257
0.0001103221827131427
0.0001103221827111854
0.0001103221827529856
0.0001103221827524679
0.0001103221827525609
0.0001103221827836228
0.0001103221827534631
0.000110322182760753
0.0001103221827830476
0.0001103221827596306
0.000110322182757059
0.0001103221827795769
0.0001103221827595843
0.0001103221827569107
0.000110322182773595
0.0001103221827485558
0.0002114456108216946
0.0002114456108571358
0.0002114456108298848
0.000211445610867094
0.0002114456108732995
0.0002114456108469363
0.0002114456108687094
0.0002114456108463139
0.0002114456108416458
0.0002114456108633988
0.0002114456108457771
0.0002114456108241292
0.0002114456108514164
0.0002114456108313085
0.0002114456108130514
0.0002114456108287567
0.0002114456108150997
0.0002114456107909427
0.0002114456108121496
0.0002114456107919979
0.0002114456107708429
0.0002114456107859201
0.0002114456107661666
0.0002114456107433741
0.0002114456107649732
0.0002114456107426297
0.0002114456107215599
0.0002114456107376016
0.0002114456107201615
0.0002114456107377324
0.0002114456107332455
0.0002114456107040085
0.0002114456107234482
0.0002114456107252237
0.000211445610700619
0.0002114456107227728
0.0002114456107060811
0.0002114456106912729
0.0002114456107224613
0.0002114456107106471
0.000211445610701018
0.0002114456107385706
0.0002114456107269694
0.0002114456107150357
0.000211445610772023
0.0002114456107758928
0.0002114456107993891
0.000211445610809932
0.0002114456108064184
0.0002114456107963001
0.000211445610809121
0.0002114456107972893
0.0002114456107997464
0.0002114456108059454
0.0002114456108034358
0.0002114456108150952
0.0002114456108083458
0.000211445610787816
0.0003555727207457112
0.0003555727207717523
0.000355572720733032
0.0003555727208056025
0.0003555727208087112
0.0003555727207472887
0.0003555727207846294
0.0003555727207841584
0.0003555727207423748
0.0003555727207978621
0.0003555727207846105
0.000355572720724524
0.000355572720770409
0.0003555727207686861
0.0003555727207118202
0.0003555727207464613
0.0003555727207417074
0.0003555727206773223
0.0003555727207166432
0.0003555727207099018
0.000355572720650471
0.0003555727206755062
0.0003555727206691516
0.0003555727206078608
0.0003555727206414457
0.0003555727206376915
0.0003555727205818012
0.0003555727206005128
0.0003555727205680246
0.0003555727206150259
0.0003555727206046779
0.0003555727205446211
0.0003555727205941258
0.000355572720586237
0.0003555727205297762
0.0003555727205884753
0.0003555727205734399
0.0003555727205223234
0.000355572720581912
0.0003555727205790217
0.0003555727205346732
0.0003555727205985862
0.0003555727206012448
0.0003555727205553323
0.0003555727206594817
0.000355572720650174
0.0003555727206901705
0.0003555727206869019
0.0003555727207050169
0.0003555727206687731
0.0003555727206836748
0.0003555727206777991
0.0003555727206846196
0.0003555727206769292
0.0003555727207032273
0.000355572720729513
0.0003555727207022393
0.0003555727206921508
0.0005408291469722107
0.0005408291469990293
0.0005408291469444324
0.000540829147044056
0.0005408291470397491
0.000540829146954579
0.000540829147017797
0.0005408291470167921
0.0005408291469546028
0.0005408291470232272
0.0005408291470223612
0.0005408291469353911
0.0005408291469888839
0.0005408291469924161
0.0005408291469178292
0.0005408291469780127
0.0005408291469640763
0.0005408291468713481
0.0005408291469373198
0.0005408291469238967
0.0005408291468423879
0.0005408291468780623
0.0005408291468688833
0.0005408291467809303
0.0005408291468448513
0.0005408291468312479
0.0005408291467551995
0.0005408291467713066
0.0005408291467313938
0.0005408291467988851
0.0005408291467853249
0.0005408291467008075
0.0005408291467696596
0.0005408291467549481
0.0005408291466783021
0.0005408291467548988
0.0005408291467452839
0.000540829146666736
0.0005408291467552999
0.0005408291467440516
0.0005408291466788136
0.0005408291467720547
0.0005408291467730974
0.0005408291467141979
0.0005408291468525374
0.000540829146829376
0.0005408291468695321
0.0005408291468714929
0.000540829146881607
0.0005408291468397379
0.0005408291468657774
0.0005408291468614506
0.0005408291468773208
0.0005408291468689915
0.0005408291469234482
0.0005408291469464819
0.0005408291469111118
0.0005408291469456062
0.0007660726185443915
0.0007660726186083494
0.0007660726185308803
0.00076607261862722
0.0007660726186242973
0.0007660726185375243
0.000766072618596317
0.000766072618602487
0.0007660726185417633
0.0007660726185960166
0.0007660726186159622
0.0007660726185178672
0.0007660726185816411
0.0007660726185795031
0.0007660726185020924
0.000766072618549112
0.000766072618546544
0.0007660726184410557
0.0007660726185201744
0.0007660726184926874
0.0007660726184112538
0.0007660726184392204
0.000766072618431441
0.0007660726183307114
0.0007660726184123651
0.0007660726183829418
0.0007660726183065313
0.0007660726183113608
0.0007660726182778854
0.0007660726183320927
0.0007660726183323366
0.000766072618238404
0.0007660726183006729
0.000766072618288279
0.0007660726182100618
0.0007660726182743491
0.0007660726182815855
0.0007660726181930009
0.0007660726182857408
0.0007660726182662104
0.0007660726182041076
0.0007660726183031506
0.0007660726183023765
0.0007660726182572062
0.0007660726183838774
0.0007660726183672697
0.000766072618407641
0.0007660726183917634
0.0007660726183987532
0.0007660726183660095
0.0007660726184288304
0.0007660726184311817
0.0007660726183883828
0.0007660726184469042
0.0007660726185169146
0.0007660726185105876
0.0007660726185089505
0.0007660726185722078
0.001035031941960515
0.001035031942015846
0.001035031941944313
0.001035031942006359
0.001035031942020644
0.001035031941948499
0.001035031941980426
0.001035031941996076
0.001035031941957974
0.001035031941977843
0.001035031942017104
0.001035031941931568
0.001035031941976517
0.001035031941981203
0.001035031941910032
0.001035031941926989
0.001035031941938458
0.001035031941841692
0.001035031941900705
0.001035031941879548
0.001035031941809389
0.001035031941802036
0.001035031941804267
0.001035031941716093
0.001035031941773785
0.0010350319417539
0.001035031941685852
0.001035031941677725
0.001035031941653831
0.001035031941677378
0.001035031941692145
0.001035031941608449
0.00103503194163648
0.001035031941635166
0.001035031941571574
0.001035031941605371
0.001035031941629949
0.001035031941554766
0.001035031941613946
0.001035031941604774
0.00103503194156124
0.001035031941636365
0.001035031941643748
0.001035031941629336
0.001035031941715371
0.001035031941728602
0.001035031941723824
0.001035031941744743
0.001035031941755488
0.001035031941726155
0.001035031941771318
0.001035031941788992
0.001035031941741082
0.001035031941823579
0.001035031941889638
0.001035031941911943
0.001035031941950007
0.001035031941987089
0.001357381947624778
0.001357381947683941
0.001357381947585598
0.001357381947603886
0.00135738194766686
0.001357381947592663
0.001357381947597237
0.001357381947635743
0.001357381947613786
0.001357381947594605
0.001357381947658927
0.001357381947582556
0.001357381947594404
0.001357381947637051
0.001357381947529867
0.001357381947542544
0.001357381947577611
0.001357381947468028
0.001357381947498173
0.00135738194752215
0.001357381947424994
0.001357381947418816
0.001357381947416657
0.00135738194733828
0.001357381947348059
0.001357381947380995
0.001357381947307585
0.001357381947256419
0.001357381947246321
0.001357381947252585
0.001357381947289526
0.001357381947200996
0.001357381947203771
0.001357381947221903
0.001357381947149702
0.001357381947167626
0.001357381947213341
0.001357381947142522
0.001357381947149443
0.001357381947182864
0.00135738194714659
0.00135738194716335
0.001357381947247535
0.001357381947220783
0.001357381947245908
0.00135738194732645
0.001357381947280548
0.001357381947300361
0.001357381947356211
0.001357381947307561
0.00135738194730773
0.001357381947357164
0.001357381947312564
0.001357381947369536
0.001357381947483766
0.001357381947499692
0.001357381947537904
0.001357381947649715
0.001748707919301495
0.001748707919391665
0.001748707919221535
0.001748707919194454
0.001748707919356136
0.001748707919214653
0.001748707919228423
0.001748707919318521
0.001748707919285853
0.001748707919179374
0.001748707919347618
0.001748707919218753
0.001748707919227649
0.001748707919338708
0.001748707919097375
0.00174870791917263
0.001748707919285256
0.001748707919024585
0.001748707919113574
0.001748707919212098
0.001748707918951216
0.001748707919029873
0.001748707919110795
0.001748707918952819
0.001748707918926267
0.001748707919012434
0.00174870791894163
0.001748707918795115
0.001748707918798046
0.001748707918813578
0.001748707918921451
0.001748707918765392
0.001748707918760066
0.001748707918850829
0.001748707918659323
0.001748707918727169
0.001748707918822916
0.001748707918673138
0.001748707918704946
0.001748707918768807
0.001748707918711187
0.001748707918665045
0.00174870791885992
0.001748707918763141
0.001748707918755897
0.001748707918933832
0.001748707918794826
0.00174870791883578
0.001748707918960661
0.00174870791885124
0.001748707918795612
0.001748707918934459
0.001748707918818098
0.001748707918855909
0.001748707919069609
0.001748707919097986
0.001748707919072966
0.001748707919341513
0.002226901551606336
0.002226901551761084
0.002226901551479882
0.002226901551408017
0.002226901551685064
0.002226901551448137
0.002226901551405462
0.002226901551651975
0.00222690155156704
0.002226901551380688
0.002226901551681419
0.002226901551478914
0.002226901551394774
0.002226901551677686
0.002226901551275977
0.002226901551432109
0.002226901551664772
0.002226901551142948
0.002226901551359262
0.002226901551537831
0.002226901551065106
0.002226901551269218
0.002226901551445959
0.002226901551209931
0.002226901551254638
0.002226901551238892
0.002226901551194321
0.002226901550953723
0.002226901551045437
0.002226901550902073
0.002226901551173696
0.002226901550961713
0.002226901550840869
0.002226901551103151
0.002226901550756181
0.002226901550901
0.002226901551097022
0.002226901550705484
0.00222690155082895
0.00222690155097159
0.002226901550843317
0.002226901550892725
0.002226901551138475
0.002226901550758194
0.002226901550923332
0.002226901551119975
0.002226901551000229
0.002226901550918097
0.002226901551177459
0.002226901550943717
0.002226901550849394
0.002226901551099947
0.002226901550890949
0.002226901550890299
0.00222690155124862
0.002226901551268364
0.00222690155118212
0.002226901551676287
0.002807240305975324
0.002807240306277218
0.002807240305807791
0.00280724030571162
0.002807240306135088
0.002807240305785983
0.002807240305687604
0.002807240306103596
0.002807240305918945
0.002807240305657826
0.002807240306151245
0.002807240305818835
0.002807240305656335
0.002807240306063968
0.002807240305740281
0.00280724030564658
0.002807240306197899
0.002807240305345305
0.002807240305705518
0.002807240305980228
0.002807240305213839
0.002807240305574097
0.002807240305908345
0.002807240305652736
0.002807240305690158
0.002807240305453886
0.002807240305395067
0.002807240305503732
0.002807240305279063
0.002807240305060545
0.002807240305534256
0.002807240305319377
0.002807240305008785
0.002807240305458516
0.002807240304910248
0.002807240305114322
0.00280724030545824
0.002807240304841061
0.002807240305056352
0.002807240305301447
0.002807240305032735
0.002807240305140226
0.002807240305515331
0.002807240304821556
0.002807240305156034
0.002807240305477218
0.00280724030502228
0.002807240305200899
0.002807240305492042
0.002807240305063982
0.002807240304952099
0.002807240305332287
0.002807240304943991
0.002807240304940427
0.002807240305476816
0.002807240305467596
0.002807240305315187
0.002807240306124901
0.003497423771551783
0.003497423772074976
0.003497423771157488
0.003497423771188597
0.003497423771776865
0.00349742377126336
0.003497423771073716
0.003497423771774653
0.003497423771411128
0.003497423771018147
0.003497423771832342
0.003497423771352174
0.003497423771032688
0.003497423771685413
0.003497423771248833
0.003497423771038803
0.003497423772013594
0.003497423770595168
0.003497423771220853
0.003497423771644147
0.003497423770422406
0.003497423770962634
0.003497423771560097
0.003497423771333701
0.003497423771338239
0.003497423770920912
0.003497423770427014
0.003497423771103268
0.003497423770610433
0.003497423770282589
0.003497423771108855
0.003497423770865121
0.003497423770282257
0.003497423770909707
0.003497423770464889
0.003497423770199541
0.003497423771041933
0.003497423770059494
0.003497423770444011
0.003497423770872695
0.003497423770143931
0.003497423770494913
0.003497423771108926
0.003497423769930188
0.003497423770515027
0.003497423771073454
0.003497423769956857
0.003497423770545423
0.003497423771148921
0.003497423769914292
0.003497423770382005
0.003497423770867338
0.003497423769679721
0.003497423770237419
0.003497423770837348
0.003497423770680302
0.003497423770482972
0.003497423771687641
0.004289453218723083
0.004289453219875149
0.004289453217282672
0.004289453218451402
0.004289453219040673
0.004289453218108117
0.004289453217866799
0.004289453219121508
0.004289453218411835
0.004289453217734062
0.004289453219139046
0.004289453218278855
0.004289453217821276
0.004289453218948813
0.00428945321825327
0.004289453217852675
0.004289453219573803
0.00428945321709641
0.004289453218246974
0.00428945321899944
0.004289453216960597
0.004289453217797201
0.004289453218753169
0.004289453218566932
0.004289453218670834
0.004289453217670916
0.004289453217180988
0.004289453218309441
0.004289453217524007
0.00428945321685996
0.004289453218327413
0.004289453217934543
0.004289453216948987
0.004289453218079812
0.004289453217191024
0.004289453216813015
0.004289453218463451
0.004289453216218789
0.004289453217314563
0.004289453218199658
0.004289453216362079
0.004289453217356043
0.004289453218465182
0.004289453216143853
0.004289453217357052
0.004289453218331777
0.004289453216346415
0.004289453217370221
0.004289453218409316
0.004289453216169336
0.004289453217221408
0.00428945321803769
0.004289453215822998
0.004289453216939621
0.004289453217901382
0.004289453217058186
0.004289453217445375
0.0042894532187661
0.005147337620321069
0.005147337621934801
0.005147337617683873
0.005147337619782031
0.005147337621175238
0.005147337617985846
0.005147337619457919
0.005147337620903527
0.005147337619752702
0.005147337618584385
0.005147337621134233
0.005147337618365355
0.005147337619387605
0.005147337620676324
0.005147337619491095
0.005147337618855313
0.005147337621708797
0.005147337617638859
0.005147337619426949
0.005147337620812165
0.005147337617553178
0.005147337618936352
0.005147337620083268
0.005147337620049354
0.005147337620398578
0.005147337618699385
0.005147337618027006
0.005147337620005501
0.005147337618486863
0.005147337617662838
0.005147337619972264
0.005147337619260982
0.005147337617673995
0.005147337619729317
0.005147337618211572
0.005147337617544047
0.005147337620339995
0.005147337616735585
0.005147337618349744
0.005147337619935887
0.005147337617237673
0.00514733761840381
0.005147337620329568
0.005147337616536598
0.005147337618501558
0.005147337620197237
0.005147337616799354
0.005147337618556068
0.005147337620240631
0.005147337616514449
0.005147337618425812
0.00514733761987009
0.005147337616130239
0.005147337618119753
0.005147337619870385
0.005147337616718923
0.005147337618489492
0.005147337620440296
0.006020800156505954
0.006020800158251146
0.006020800152464307
0.006020800155296047
0.006020800157643697
0.006020800152648434
0.006020800155065475
0.006020800157109388
0.006020800155194412
0.006020800153847124
0.006020800157579962
0.00602080015264027
0.006020800154892559
0.006020800156839486
0.006020800155018611
0.006020800154226189
0.006020800158460552
0.006020800152547427
0.006020800154727245
0.006020800156778739
0.006020800152701929
0.006020800154808552
0.006020800155258863
0.006020800155657202
0.006020800157209259
0.006020800152324784
0.006020800154345161
0.00602080015683587
0.006020800151712988
0.006020800153842497
0.006020800156056857
0.006020800154876217
0.006020800152685344
0.006020800155882038
0.006020800153575622
0.006020800152577892
0.006020800156736815
0.006020800151597003
0.006020800153629512
0.006020800155665789
0.006020800154530439
0.006020800152663478
0.00602080015673964
0.006020800151260278
0.006020800154053069
0.006020800156664508
0.006020800151610569
0.006020800154192241
0.006020800156683001
0.006020800151273059
0.006020800154117133
0.006020800156369376
0.006020800150954836
0.006020800153817293
0.00602080015635391
0.006020800151277841
0.006020800154054652
0.006020800156805213
0.006870589258649534
0.006870589262579958
0.006870589254865355
0.006870589258588989
0.006870589261979556
0.006870589255379453
0.006870589258626311
0.006870589261986429
0.006870589255495762
0.00687058925838032
0.006870589261753061
0.00687058925532564
0.006870589258184435
0.006870589260854754
0.006870589258371355
0.006870589257515607
0.006870589263254236
0.006870589255493883
0.006870589257612852
0.006870589259486141
0.006870589257507507
0.006870589259589539
0.00687058925718889
0.006870589258564756
0.006870589261513553
0.006870589254819088
0.006870589257822959
0.006870589261148067
0.006870589254260828
0.006870589257267141
0.006870589260050313
0.006870589258445024
0.006870589255624413
0.006870589259961928
0.006870589256839297
0.0068705892555351
0.006870589261058727
0.006870589254436696
0.006870589256909779
0.006870589259686388
0.006870589258037711
0.00687058925556405
0.006870589261092658
0.006870589253956509
0.006870589257514473
0.006870589261086518
0.006870589254456917
0.006870589257736833
0.006870589261039207
0.006870589254311241
0.006870589257756545
0.006870589260854834
0.006870589253974607
0.006870589257505469
0.006870589260834157
0.00687058925397059
0.006870589257791177
0.006870589261970362
0.007674360303451282
0.007674360308092473
0.007674360298947611
0.007674360303160712
0.007674360307543178
0.007674360299582513
0.007674360303342035
0.007674360307517521
0.007674360299231788
0.007674360303213351
0.007674360307072314
0.007674360299795194
0.007674360302771684
0.007674360306132136
0.00767436030303045
0.007674360302061923
0.007674360309274958
0.007674360300217236
0.007674360301824162
0.007674360303540713
0.007674360302508032
0.007674360306325317
0.007674360298954613
0.00767436030287815
0.007674360306998138
0.007674360298856725
0.007674360302378166
0.007674360306448229
0.00767436029904347
0.007674360301715993
0.007674360305340039
0.007674360303442701
0.007674360299963175
0.00767436030533408
0.007674360301454673
0.007674360299884088
0.007674360306645168
0.007674360298740293
0.007674360301541226
0.007674360305010901
0.007674360302849942
0.007674360299953353
0.0076743603067084
0.007674360298105269
0.007674360302289656
0.007674360306777985
0.007674360298817957
0.007674360302602292
0.007674360306735327
0.007674360298728689
0.007674360302713404
0.007674360306671053
0.007674360298430579
0.00767436030248812
0.007674360306587941
0.007674360298408109
0.00767436030267468
0.007674360307168813
0.008422320382357228
0.008422320385625282
0.008422320375322064
0.008422320379847839
0.008422320385109939
0.008422320376035719
0.008422320380100745
0.008422320385010212
0.008422320375596776
0.00842232037999981
0.008422320384454087
0.008422320376478856
0.008422320379500149
0.008422320383488852
0.008422320379998183
0.008422320378350022
0.008422320386059204
0.008422320381505966
0.008422320377305358
0.008422320380009498
0.008422320377209276
0.00842232038403406
0.008422320374761908
0.008422320379505646
0.008422320384499441
0.008422320375067256
0.008422320378911108
0.008422320382806612
0.008422320379109748
0.008422320376542156
0.00842232038269981
0.008422320380636044
0.008422320376510297
0.008422320382773001
0.008422320378233183
0.008422320376436256
0.008422320384261007
0.008422320375308946
0.008422320378310137
0.008422320382413461
0.008422320379898684
0.008422320376538431
0.008422320384332797
0.008422320374500986
0.008422320379173535
0.008422320384490206
0.008422320375485702
0.008422320379586026
0.008422320384538088
0.008422320375199473
0.008422320379770181
0.008422320384611617
0.008422320374789172
0.008422320379456286
0.008422320384113273
0.008422320376008973
0.008422320379738552
0.008422320382620477
0.009111672314272632
0.009111672318969852
0.009111672307779581
0.009111672312503517
0.009111672318522222
0.009111672308560633
0.009111672312807901
0.009111672318504984
0.009111672307775789
0.009111672312719928
0.009111672317815298
0.009111672308923752
0.009111672312244841
0.009111672316834411
0.009111672313078314
0.00911167231070441
0.009111672318355071
0.009111672314278944
0.009111672313824055
0.00911167231206117
0.009111672309618735
0.009111672317218605
0.009111672307794565
0.009111672312203622
0.009111672317836954
0.009111672307320495
0.00911167231164867
0.009111672316038856
0.009111672311734037