/*--------------------------------*- C++ -*----------------------------------*\
| =========                 |                                                 |
| \\      /  F ield         | OpenFOAM: The Open Source CFD Toolbox           |
|  \\    /   O peration     | Version:  v1812                                 |
|   \\  /    A nd           | Web:      www.OpenFOAM.com                      |
|    \\/     M anipulation  |                                                 |
\*---------------------------------------------------------------------------*/
FoamFile
{
    version     2.0;
    format      ascii;
    class       volScalarField;
    location    "20000";
    object      nuTilda_0;
}
// * * * * * * * * * * * * * * * * * * * * * * * * * * * * * * * * * * * * * //

dimensions      [0 2 -1 0 0 0 0];


internalField   nonuniform List<scalar> 
3770
(
0.0004779739943623078
0.0004779739943617189
0.0004779739943624753
0.000477973994362101
0.0004779739943621367
0.0004779739943619646
0.0004779739943615728
0.0004779739943623284
0.0004779739943616941
0.0004779739943616806
0.0004779739943623746
0.0004779739943616969
0.0004779739943616439
0.0004779739943623233
0.0004779739943617132
0.0004779739943616018
0.0004779739943624148
0.0004779739943616959
0.0004779739943616481
0.0004779739943622876
0.0004779739943617093
0.0004779739943615755
0.0004779739943624179
0.0004779739943616825
0.000477973994361641
0.000477973994362268
0.0004779739943616979
0.0004779739943615445
0.0004779739943624097
0.0004779739943620095
0.0004779739943620947
0.0004779739943614185
0.0004779739943620974
0.0004779739943619311
0.0004779739943617283
0.0004779739943616832
0.0004779739943623287
0.0004779739943615604
0.0004779739943615401
0.0004779739943622684
0.0004779739943620139
0.0004779739943619225
0.0004779739943613501
0.0004779739943615632
0.0004779739943614837
0.0004779739943621055
0.0004779739943615229
0.0004779739943614095
0.0004779739943622302
0.0004779739943617325
0.0004779739943618227
0.0004779739943612772
0.0004779739943619013
0.0004779739943616583
0.0004779739943609988
0.0004779739943611919
0.0004779739943611109
0.0004779739943617352
0.0002360494209388379
0.0002360494209380278
0.0002360494209410331
0.000236049420936237
0.0002360494209413085
0.0002360494209373452
0.0002360494209372435
0.0002360494209390835
0.0002360494209325433
0.0002360494209367832
0.0002360494209387926
0.0002360494209324576
0.000236049420936105
0.0002360494209377585
0.0002360494209323499
0.0002360494209359377
0.0002360494209395433
0.0002360494209321193
0.0002360494209356547
0.0002360494209370014
0.0002360494209318987
0.0002360494209354173
0.0002360494209393728
0.0002360494209316112
0.0002360494209351309
0.0002360494209364606
0.0002360494209314213
0.000236049420934903
0.000236049420939301
0.0002360494209363948
0.0002360494209397651
0.0002360494209285123
0.0002360494209368564
0.0002360494209409104
0.0002360494209329574
0.0002360494209366853
0.0002360494209381752
0.0002360494209310286
0.0002360494209349825
0.000236049420938288
0.0002360494209371132
0.0002360494209388253
0.0002360494209291436
0.0002360494209325878
0.000236049420935075
0.0002360494209361878
0.0002360494209312998
0.0002360494209355871
0.0002360494209391
0.0002360494209344104
0.000236049420937713
0.0002360494209286294
0.0002360494209372784
0.0002360494209388424
0.0002360494209288002
0.0002360494209321808
0.0002360494209352265
0.000236049420938466
0.0001843491617150223
0.0001843491617568022
0.0001843491617411223
0.0001843491617056214
0.0001843491617476026
0.0001843491617432651
0.0001843491617575121
0.0001843491617409385
0.0001843491617112108
0.0001843491617544466
0.0001843491617413042
0.0001843491617073053
0.000184349161754595
0.0001843491617387995
0.0001843491617071757
0.000184349161751338
0.0001843491617404032
0.000184349161703004
0.0001843491617513664
0.0001843491617360095
0.0001843491617042698
0.0001843491617484656
0.0001843491617372741
0.0001843491616997812
0.0001843491617477383
0.0001843491617324338
0.0001843491617007967
0.0001843491617455412
0.0001843491617355992
0.0001843491617036616
0.0001843491617638637
0.0001843491616911065
0.0001843491617283025
0.0001843491617730005
0.0001843491617045931
0.0001843491617444876
0.0001843491617334434
0.0001843491616975982
0.0001843491617456677
0.0001843491617328546
0.0001843491617056853
0.0001843491617627586
0.0001843491616957356
0.000184349161719877
0.0001843491617513304
0.0001843491617386805
0.0001843491617084398
0.000184349161753896
0.0001843491617417228
0.0001843491617132634
0.0001843491617716105
0.0001843491617024546
0.0001843491617309065
0.0001843491617704642
0.000184349161700224
0.0001843491617208138
0.0001843491617476187
0.0001843491617489449
0.0002082131893775324
0.0002082131894988361
0.0002082131894467002
0.0002082131893772845
0.0002082131894874433
0.0002082131894798069
0.0002082131894999389
0.0002082131894509732
0.000208213189389682
0.00020821318949188
0.0002082131894491663
0.0002082131893790046
0.000208213189494472
0.000208213189450171
0.0002082131893753668
0.0002082131894849199
0.0002082131894535775
0.000208213189365048
0.0002082131894862526
0.0002082131894437121
0.0002082131893676856
0.0002082131894778206
0.0002082131894450857
0.0002082131893571013
0.0002082131894767906
0.000208213189434669
0.0002082131893584774
0.0002082131894709508
0.0002082131894405296
0.0002082131893597161
0.0002082131895015101
0.0002082131893366399
0.0002082131894279067
0.0002082131895125064
0.0002082131893694011
0.0002082131894679104
0.0002082131894356498
0.0002082131893516841
0.0002082131894717535
0.0002082131894343632
0.000208213189362995
0.0002082131894985002
0.0002082131893536662
0.0002082131894178692
0.0002082131894864669
0.0002082131894530538
0.000208213189379869
0.000208213189494385
0.0002082131894513577
0.0002082131893910502
0.0002082131895242153
0.0002082131893719378
0.0002082131894410474
0.0002082131895204553
0.0002082131893694092
0.0002082131894274661
0.00020821318948782
0.0002082131894513402
0.000268776682267271
0.0002687766824044723
0.0002687766822673022
0.0002687766823154583
0.0002687766823801803
0.0002687766823790588
0.0002687766823989212
0.0002687766822952219
0.0002687766823265296
0.0002687766823943151
0.0002687766822685212
0.0002687766823114324
0.0002687766823776494
0.0002687766823268766
0.0002687766822676047
0.0002687766823658928
0.000268776682325764
0.0002687766822564546
0.0002687766823635527
0.0002687766823152651
0.0002687766822539243
0.0002687766823528315
0.0002687766823104783
0.0002687766822417914
0.0002687766823468054
0.0002687766822986914
0.0002687766822371776
0.0002687766823394397
0.0002687766823026045
0.0002687766822408466
0.0002687766823592862
0.000268776682213621
0.0002687766822943437
0.0002687766823679202
0.0002687766822482067
0.0002687766823335571
0.0002687766822930588
0.0002687766822297143
0.0002687766823364598
0.0002687766822946683
0.0002687766822371046
0.0002687766823430117
0.0002687766822864661
0.0002687766822598403
0.0002687766823594339
0.0002687766823272615
0.0002687766822741743
0.0002687766823932053
0.0002687766822702531
0.0002687766823186831
0.0002687766823809067
0.0002687766823186474
0.000268776682287452
0.00026877668237619
0.0002687766823146763
0.0002687766822776138
0.0002687766823648358
0.0002687766823170367
0.00034826647473005
0.0003482664748402265
0.0003482664747347091
0.0003482664747853373
0.0003482664748259539
0.000348266474821893
0.0003482664748413107
0.0003482664747393729
0.0003482664747897326
0.0003482664748306822
0.0003482664747343439
0.0003482664747722883
0.0003482664748155435
0.0003482664747737599
0.0003482664747339363
0.000348266474800181
0.0003482664747690299
0.000348266474720491
0.0003482664747951348
0.0003482664747557803
0.0003482664747133042
0.0003482664747801462
0.0003482664747455583
0.0003482664746978971
0.0003482664747704705
0.0003482664747308945
0.000348266474687312
0.0003482664747584275
0.0003482664747326849
0.0003482664746968877
0.0003482664747671953
0.0003482664746712292
0.0003482664747243387
0.0003482664747707304
0.0003482664746947574
0.0003482664747498934
0.0003482664747182491
0.0003482664746770497
0.0003482664747526427
0.000348266474721358
0.0003482664746848759
0.0003482664747614054
0.0003482664747299795
0.0003482664747020852
0.0003482664747814862
0.0003482664747673521
0.0003482664747366205
0.0003482664748217556
0.0003482664747275787
0.0003482664747736172
0.0003482664748112798
0.0003482664747762249
0.0003482664747425591
0.0003482664748062489
0.0003482664747726481
0.0003482664747353464
0.0003482664747966758
0.0003482664747567348
0.0004406388694447941
0.0004406388695165561
0.0004406388694588875
0.0004406388694964102
0.0004406388695160455
0.0004406388695046257
0.0004406388695230039
0.0004406388694606505
0.0004406388694900273
0.000440638869512408
0.000440638869459552
0.0004406388694726006
0.0004406388695006088
0.0004406388694723843
0.0004406388694470649
0.0004406388694817658
0.0004406388694630745
0.0004406388694312136
0.0004406388694728964
0.0004406388694462077
0.0004406388694186429
0.0004406388694534124
0.0004406388694299374
0.0004406388693990026
0.0004406388694400915
0.0004406388694118575
0.0004406388693827742
0.0004406388694215817
0.0004406388694045605
0.0004406388694092095
0.0004406388694165553
0.0004406388693858204
0.000440638869392336
0.0004406388694153054
0.0004406388693921595
0.0004406388694102161
0.0004406388693902388
0.0004406388693667321
0.0004406388694121484
0.000440638869393939
0.0004406388693752188
0.000440638869424689
0.0004406388694070648
0.000440638869390112
0.000440638869445493
0.0004406388694510769
0.0004406388694421222
0.00044063886948872
0.000440638869441417
0.0004406388694636324
0.0004406388694844724
0.0004406388694651618
0.0004406388694481934
0.0004406388694791587
0.0004406388694635744
0.0004406388694466469
0.0004406388694740543
0.0004406388694458495
0.0005453680708008408
0.0005453680708351575
0.0005453680708094
0.0005453680708428692
0.0005453680708498473
0.0005453680708253956
0.0005453680708474635
0.0005453680708224609
0.0005453680708215954
0.0005453680708424038
0.0005453680708220407
0.0005453680708063055
0.0005453680708279356
0.0005453680708142735
0.0005453680707930398
0.0005453680708068534
0.0005453680707994023
0.0005453680707742886
0.0005453680707913637
0.0005453680707786095
0.0005453680707552093
0.0005453680707696287
0.0005453680707551806
0.0005453680707304798
0.0005453680707512819
0.0005453680707334164
0.0005453680707099817
0.0005453680707273608
0.0005453680707106475
0.0005453680707291458
0.0005453680707215427
0.0005453680706943074
0.0005453680707173976
0.0005453680707144748
0.0005453680706917259
0.0005453680707132928
0.0005453680706993555
0.0005453680706835282
0.000545368070710093
0.0005453680707041645
0.0005453680706919761
0.0005453680707262631
0.0005453680707185616
0.0005453680707009552
0.0005453680707550721
0.0005453680707615262
0.0005453680707807279
0.0005453680707945481
0.0005453680707888976
0.0005453680707827511
0.0005453680707929922
0.0005453680707838821
0.0005453680707824853
0.0005453680707894123
0.0005453680707844173
0.0005453680707952305
0.0005453680707911976
0.0005453680707725902
0.0006651252064575856
0.0006651252064861089
0.0006651252064596968
0.0006651252064990786
0.0006651252065204475
0.0006651252064651897
0.0006651252065016349
0.0006651252064876371
0.0006651252064593728
0.0006651252065169238
0.00066512520648874
0.0006651252064517533
0.000665125206476549
0.0006651252064894923
0.0006651252064400817
0.0006651252064596143
0.0006651252064683271
0.0006651252064168317
0.0006651252064295165
0.0006651252064450367
0.0006651252063924982
0.0006651252064083514
0.0006651252064134026
0.0006651252063595985
0.0006651252063828221
0.0006651252063878962
0.0006651252063360781
0.000665125206355845
0.0006651252063244495
0.0006651252063730065
0.0006651252063483737
0.0006651252063059122
0.0006651252063571634
0.0006651252063343672
0.000665125206293451
0.0006651252063528559
0.0006651252063262235
0.0006651252062952897
0.0006651252063250018
0.000665125206343004
0.0006651252063033782
0.0006651252063430537
0.0006651252063581946
0.0006651252063074426
0.0006651252063998602
0.0006651252063917018
0.0006651252064239752
0.0006651252064234865
0.0006651252064402709
0.0006651252064086672
0.0006651252064192236
0.0006651252064147018
0.0006651252064210323
0.0006651252064158429
0.0006651252064167521
0.0006651252064582134
0.0006651252064316151
0.0006651252064232413
0.0008057067274193645
0.0008057067274524451
0.0008057067274163196
0.0008057067274627695
0.0008057067274924484
0.0008057067274137526
0.0008057067274803517
0.0008057067274498607
0.0008057067274113262
0.0008057067274880605
0.0008057067274542612
0.0008057067274007136
0.0008057067274495822
0.0008057067274353087
0.0008057067273850944
0.0008057067274500457
0.0008057067274176733
0.0008057067273621496
0.0008057067273822303
0.0008057067274077313
0.0008057067273363834
0.0008057067273568795
0.0008057067273643866
0.0008057067272918674
0.0008057067273242325
0.0008057067273367887
0.0008057067272663451
0.0008057067272861281
0.0008057067272451539
0.0008057067273204094
0.0008057067272771621
0.0008057067272227813
0.0008057067272978056
0.0008057067272550837
0.0008057067272047701
0.0008057067272876806
0.0008057067272499202
0.0008057067272080425
0.0008057067272476999
0.0008057067272737993
0.0008057067272166457
0.0008057067272605224
0.0008057067272905165
0.00080570672722216
0.0008057067273515662
0.0008057067273341353
0.0008057067273412867
0.0008057067273730563
0.0008057067273570081
0.0008057067273364114
0.0008057067273500643
0.000805706727348091
0.0008057067273728673
0.0008057067273593844
0.0008057067273668408
0.0008057067274201939
0.0008057067273878092
0.0008057067273988431
0.0009766963572194305
0.0009766963572880928
0.0009766963572213881
0.0009766963572591595
0.0009766963573015187
0.0009766963572150789
0.0009766963572850132
0.0009766963572494321
0.0009766963572137707
0.000976696357288837
0.0009766963572592797
0.0009766963571981393
0.0009766963572718479
0.0009766963572326783
0.0009766963571857707
0.0009766963572539356
0.0009766963572123905
0.0009766963571520096
0.0009766963571779534
0.0009766963572015921
0.0009766963571194152
0.0009766963571633028
0.0009766963571286732
0.0009766963570659486
0.000976696357097704
0.0009766963571159035
0.0009766963570387698
0.000976696357051125
0.0009766963570123136
0.0009766963570859005
0.0009766963570412943
0.0009766963569827454
0.0009766963570627175
0.0009766963570084883
0.0009766963569588394
0.0009766963570420608
0.0009766963570050778
0.0009766963569590652
0.0009766963569980591
0.0009766963570285894
0.0009766963569672923
0.0009766963570087904
0.0009766963570481933
0.0009766963569829367
0.0009766963571143498
0.0009766963570906958
0.0009766963571316495
0.0009766963571148945
0.0009766963571170115
0.000976696357098159
0.000976696357115846
0.0009766963571519246
0.0009766963571087861
0.0009766963571656347
0.0009766963571737669
0.0009766963571987252
0.0009766963571845985
0.0009766963572554429
0.001191697039304403
0.001191697039366725
0.001191697039300613
0.00119169703932103
0.001191697039371765
0.001191697039298135
0.001191697039336582
0.001191697039320852
0.00119169703929657
0.001191697039339749
0.001191697039339121
0.00119169703927922
0.00119169703933791
0.001191697039308862
0.001191697039268809
0.001191697039302374
0.00119169703927902
0.001191697039217013
0.001191697039238682
0.001191697039256114
0.001191697039187261
0.001191697039189385
0.001191697039172281
0.001191697039109189
0.001191697039133029
0.001191697039152813
0.001191697039077076
0.001191697039086883
0.001191697039053501
0.001191697039092961
0.001191697039074242
0.001191697039018009
0.001191697039060193
0.001191697039025994
0.001191697038983528
0.001191697039035271
0.001191697039022105
0.001191697038977586
0.001191697039003531
0.001191697039031179
0.00119169703897962
0.001191697039020867
0.001191697039043443
0.001191697039017443
0.001191697039121771
0.001191697039122277
0.001191697039118474
0.00119169703914523
0.001191697039147041
0.001191697039118053
0.001191697039168583
0.001191697039167692
0.001191697039133106
0.001191697039199592
0.001191697039225104
0.001191697039261478
0.001191697039284976
0.00119169703933655
0.001467422472335891
0.001467422472409081
0.001467422472296198
0.00146742247232323
0.001467422472385297
0.001467422472317018
0.00146742247231734
0.001467422472343426
0.001467422472317644
0.001467422472314888
0.001467422472372649
0.001467422472300884
0.001467422472312304
0.001467422472343747
0.001467422472288556
0.001467422472266695
0.001467422472296582
0.001467422472219425
0.001467422472215276
0.001467422472257141
0.001467422472183495
0.001467422472174575
0.001467422472163072
0.001467422472074283
0.001467422472099364
0.001467422472138393
0.001467422472046632
0.00146742247202994
0.001467422472024442
0.001467422472011007
0.001467422472049042
0.001467422471975632
0.001467422471968469
0.001467422471981582
0.001467422471932993
0.001467422471931539
0.001467422471978231
0.001467422471919585
0.001467422471920431
0.00146742247196027
0.001467422471905343
0.001467422471934782
0.001467422472001165
0.001467422471976998
0.001467422472011757
0.001467422472071697
0.001467422472060587
0.001467422472055548
0.001467422472119254
0.001467422472063239
0.001467422472082997
0.001467422472122267
0.001467422472070882
0.001467422472117662
0.001467422472210522
0.001467422472208079
0.00146742247226024
0.001467422472361198
0.00182268519851421
0.001822685198652246
0.001822685198396757
0.001822685198474514
0.001822685198588743
0.001822685198454346
0.001822685198433183
0.001822685198541342
0.001822685198460943
0.001822685198475305
0.001822685198580677
0.001822685198442647
0.001822685198423602
0.001822685198546514
0.001822685198444223
0.001822685198361656
0.001822685198489108
0.001822685198357695
0.001822685198304146
0.001822685198427114
0.001822685198312371
0.001822685198252402
0.001822685198377506
0.001822685198136024
0.001822685198202746
0.001822685198284425
0.001822685198137364
0.001822685198134015
0.00182268519811552
0.001822685198055461
0.001822685198183173
0.001822685198032217
0.001822685197998122
0.0018226851980938
0.001822685197991569
0.001822685197952047
0.001822685198099651
0.001822685197966228
0.001822685197963582
0.001822685198049085
0.001822685197935606
0.001822685197945828
0.001822685198111964
0.001822685198030898
0.001822685198051761
0.001822685198165272
0.001822685198131641
0.001822685198077186
0.001822685198242273
0.0018226851980902
0.001822685198138627
0.001822685198236629
0.001822685198033854
0.001822685198159447
0.001822685198307627
0.001822685198295381
0.001822685198340196
0.00182268519856931
0.002275328255504151
0.002275328255732765
0.002275328255265318
0.002275328255439331
0.002275328255665327
0.002275328255239668
0.00227532825541826
0.002275328255571528
0.00227532825536669
0.002275328255434692
0.002275328255634691
0.00227532825527747
0.002275328255402635
0.002275328255562596
0.002275328255369767
0.002275328255251316
0.002275328255501714
0.002275328255284147
0.002275328255165872
0.002275328255403743
0.002275328255219174
0.002275328255118333
0.002275328255421148
0.00227532825496805
0.002275328255128796
0.002275328255168384
0.00227532825503206
0.002275328255001458
0.00227532825490642
0.002275328254963286
0.002275328255158813
0.002275328254730595
0.002275328254878442
0.002275328255002445
0.002275328254809425
0.002275328254734585
0.002275328255007895
0.002275328254779139
0.002275328254688796
0.002275328254923338
0.002275328254726373
0.002275328254718287
0.002275328255023348
0.002275328254843422
0.002275328254768664
0.002275328255038885
0.002275328254918186
0.002275328254959018
0.002275328255168267
0.002275328254776878
0.002275328254939143
0.002275328255109901
0.002275328254715443
0.002275328254937896
0.002275328255166496
0.002275328255074115
0.002275328255168612
0.002275328255595678
0.002838677759737944
0.002838677760243321
0.002838677759475914
0.002838677759797842
0.002838677760124072
0.0028386777594114
0.002838677759760944
0.002838677760024422
0.00283867775957628
0.002838677759767887
0.002838677760108887
0.002838677759428527
0.002838677759743312
0.002838677760057063
0.002838677759436121
0.002838677759643152
0.002838677759931466
0.002838677759623764
0.002838677759390171
0.002838677759763143
0.002838677759465973
0.002838677759312894
0.002838677759846509
0.00283867775939444
0.002838677759594936
0.002838677759141774
0.002838677759411663
0.002838677759491761
0.002838677758967894
0.002838677759176334
0.00283867775946002
0.002838677758938927
0.002838677759099185
0.002838677759299106
0.002838677758992013
0.002838677758859823
0.002838677759301483
0.00283867775892621
0.002838677758790918
0.002838677759173236
0.002838677758861964
0.002838677758820612
0.00283867775931873
0.002838677758997932
0.002838677758859656
0.00283867775930542
0.002838677759053154
0.002838677758974936
0.002838677759457793
0.002838677758842975
0.002838677759041772
0.002838677759316493
0.002838677758719529
0.002838677758993865
0.002838677759347739
0.002838677759152689
0.002838677759304812
0.00283867776009837
0.00351800051238644
0.003518000513238197
0.003518000512066004
0.003518000512524809
0.003518000513011526
0.00351800051192497
0.003518000512492433
0.003518000512959687
0.003518000512088895
0.003518000512455309
0.003518000513006651
0.003518000512067528
0.003518000512469626
0.003518000512967679
0.003518000511891915
0.003518000512336201
0.003518000512836327
0.003518000512372748
0.003518000511981271
0.00351800051254941
0.003518000512085352
0.003518000511772006
0.003518000512650218
0.003518000512378818
0.003518000512421613
0.003518000511804639
0.003518000511818975
0.00351800051238165
0.003518000511197565
0.003518000511722828
0.003518000512181629
0.003518000511601901
0.003518000511745698
0.003518000512118535
0.003518000511326651
0.003518000511522719
0.003518000512028853
0.003518000511416014
0.003518000511233522
0.003518000511853886
0.00351800051137145
0.003518000511226232
0.003518000512051084
0.003518000511490653
0.003518000511262954
0.003518000511960644
0.00351800051157309
0.003518000511325791
0.003518000512054769
0.003518000511661424
0.00351800051122521
0.003518000511797064
0.003518000511364466
0.003518000511109747
0.003518000511886396
0.003518000511508821
0.00351800051168083
0.003518000512997793
0.004303242146700896
0.004303242148007268
0.004303242147064961
0.004303242146593259
0.004303242147786815
0.004303242146182293
0.004303242146953161
0.004303242147917196
0.004303242146128801
0.004303242146926974
0.004303242147807305
0.004303242146643277
0.004303242146918775
0.004303242147872908
0.004303242145956531
0.004303242146833458
0.004303242147711387
0.004303242146862336
0.00430324214624348
0.004303242147299612
0.004303242146557042
0.004303242145861305
0.004303242147405909
0.004303242147144598
0.004303242147457189
0.004303242145527311
0.004303242146415045
0.004303242147171868
0.004303242145244068
0.0043032421460743
0.004303242146895701
0.004303242145947371
0.004303242146242987
0.004303242147055742
0.00430324214493277
0.004303242145831217
0.004303242146677539
0.004303242145767807
0.004303242145313114
0.004303242146466987
0.004303242145728626
0.004303242145280045
0.004303242146716624
0.004303242145784147
0.004303242145303173
0.004303242146537061
0.004303242145975657
0.00430324214535344
0.00430324214664508
0.004303242145939909
0.004303242145250696
0.004303242146309205
0.004303242145483985
0.004303242144986737
0.004303242146313908
0.004303242145704404
0.004303242145601431
0.004303242147702135
0.005156951951054495
0.005156951953073793
0.00515695195154787
0.005156951950554737
0.005156951952456067
0.005156951951376504
0.005156951950596855
0.005156951953062492
0.005156951950127921
0.005156951951401713
0.005156951952707314
0.005156951951117467
0.005156951950536803
0.005156951953068326
0.005156951949794973
0.005156951951392663
0.005156951952867467
0.005156951951336313
0.005156951950288514
0.005156951952269107
0.005156951951101033
0.005156951949861885
0.005156951952104409
0.005156951951779607
0.005156951952425088
0.005156951949792523
0.00515695195069359
0.00515695195205393
0.005156951949677915
0.005156951950384678
0.005156951951921069
0.00515695194998786
0.005156951950729567
0.00515695195224277
0.005156951948528665
0.005156951950136328
0.005156951951509845
0.005156951950381823
0.005156951949172926
0.005156951951310986
0.005156951950187842
0.005156951949302155
0.005156951951611698
0.005156951950172939
0.005156951949217128
0.005156951951408121
0.005156951950400043
0.005156951949338999
0.00515695195152493
0.005156951950186389
0.005156951949273945
0.005156951951195814
0.005156951949683576
0.005156951948879249
0.005156951951062577
0.005156951950255981
0.005156951949443898
0.005156951952655157
0.006027841959695872
0.006027841961164811
0.006027841958569093
0.006027841957380818
0.006027841960456184
0.006027841958904522
0.006027841957424795
0.006027841960982523
0.006027841958159791
0.006027841958683442
0.006027841960714733
0.006027841958427769
0.006027841957380456
0.006027841961361319
0.006027841956468146
0.006027841958960339
0.00602784196126978
0.006027841959063188
0.006027841957166684
0.006027841960187909
0.006027841958528942
0.006027841957296616
0.006027841959304246
0.006027841958651949
0.006027841960053903
0.006027841958507322
0.0060278419567384
0.006027841959860814
0.006027841957654413
0.006027841956536825
0.006027841960051454
0.006027841956671462
0.006027841958172892
0.006027841960583783
0.006027841955041257
0.006027841957421875
0.006027841959473573
0.006027841958109068
0.006027841955988177
0.006027841959515852
0.006027841957177995
0.006027841957420034
0.006027841959661593
0.006027841957598514
0.006027841956102185
0.006027841959463065
0.006027841957904364
0.00602784195635148
0.006027841959632938
0.006027841957496683
0.006027841956365558
0.00602784195937109
0.006027841957059694
0.006027841955923884
0.006027841959121409
0.006027841957652233
0.006027841956218866
0.00602784196027465
0.006876003038548243
0.006876003039461295
0.006876003036229068
0.006876003034395784
0.006876003038723843
0.006876003036664745
0.00687600303458588
0.006876003039018613
0.006876003036202199
0.006876003034786441
0.006876003038946088
0.006876003035899458
0.006876003034526447
0.006876003039838052
0.006876003033295615
0.006876003036773308
0.006876003040165809
0.006876003037414032
0.006876003034320831
0.006876003038290805
0.006876003034456774
0.006876003037636984
0.00687600303476749
0.006876003034763764
0.006876003038237631
0.006876003036243408
0.006876003033749884
0.006876003038150461
0.006876003035412888
0.006876003033611099
0.006876003038421894
0.006876003033787691
0.006876003035850701
0.006876003039200237
0.006876003031892344
0.006876003034961251
0.006876003037743483
0.006876003036063344
0.006876003033178231
0.00687600303812343
0.006876003033483396
0.006876003035152143
0.006876003038020088
0.006876003035306322
0.006876003033307806
0.006876003037830408
0.006876003035771554
0.006876003033687511
0.006876003038091516
0.006876003035177504
0.006876003033807908
0.006876003037922399
0.006876003034852136
0.006876003033396638
0.00687600303764525
0.006876003035142388
0.006876003033299887
0.00687600303835596
0.007678702332389781
0.007678702333485381
0.007678702329761367
0.007678702327260978
0.007678702332726359
0.007678702330293062
0.007678702327614235
0.007678702333031043
0.007678702329446903
0.007678702327711301
0.007678702332919471
0.007678702329131279
0.007678702327546832
0.00767870233395264
0.007678702325883273
0.007678702330376726
0.00767870233566445
0.007678702330146061
0.007678702327486056
0.007678702330185084
0.007678702327739245
0.007678702331898811
0.007678702328887978
0.007678702327115739
0.007678702332173913
0.007678702329724145
0.007678702326702035
0.007678702332191169
0.007678702328927312
0.00767870232684016
0.007678702332506395
0.007678702327024542
0.007678702329307822
0.007678702333545416
0.00767870232470133
0.007678702328298788
0.00767870233178396
0.007678702329805562
0.007678702326238475
0.007678702332351535
0.007678702326349819
0.0076787023285868
0.007678702332145525
0.007678702328822196
0.007678702326397634
0.007678702331965537
0.007678702329516976
0.007678702326887076
0.007678702332328089
0.007678702328756633
0.007678702327103607
0.007678702332249839
0.007678702328530578
0.007678702326796353
0.007678702332055313
0.007678702328630268
0.007678702326472706
0.007678702332149099
0.00842592692835107
0.008425926930297348
0.008425926926160884
0.008425926923116962
0.008425926929540974
0.008425926926794933
0.00842592692355862
0.00842592692983741
0.008425926925672705
0.008425926923712595
0.008425926929723408
0.008425926925273173
0.008425926923502957
0.008425926930744725
0.008425926921842474
0.008425926926604915
0.008425926932924344
0.008425926926726505
0.008425926925816136
0.008425926923031582
0.008425926925287607
0.008425926928867185
0.008425926924870689
0.008425926922875443
0.008425926928967081
0.008425926926019678
0.008425926922745471
0.00842592692964384
0.00842592692367556
0.008425926924868153
0.008425926929407086
0.008425926923387797
0.008425926925635445
0.008425926930673528
0.008425926920566096
0.008425926924531256
0.008425926928654992
0.008425926926419832
0.008425926922258561
0.008425926929339253
0.008425926922509909
0.008425926924892024
0.008425926929076431
0.008425926925206551
0.008425926922460403
0.00842592692892058
0.008425926926219912
0.008425926923039768
0.008425926929384932
0.00842592692524197
0.008425926923285533
0.008425926929390223
0.008425926925213215
0.008425926923102548
0.008425926929260507
0.008425926925370855
0.008425926923334765
0.008425926928511773
0.009114754611377871
0.009114754616737934
0.009114754612277651
0.009114754608825619
0.009114754616030651
0.009114754613010619
0.009114754609288995
0.009114754616297507
0.009114754611852811
0.009114754609516579
0.009114754616225984
0.009114754611229747
0.009114754609199473
0.0091147546167281
0.009114754609892278
0.009114754612211321
0.009114754619303432
0.009114754612982442
0.009114754613041086
0.009114754609237477
0.009114754611037791
0.009114754615383735
0.009114754610699886
0.009114754608655984
0.00911475461554135
0.009114754611700363
0.009114754608700011
0.00911475461682972
0.009114754607457405
0.009114754611148648