/*--------------------------------*- C++ -*----------------------------------*\
| =========                 |                                                 |
| \\      /  F ield         | OpenFOAM: The Open Source CFD Toolbox           |
|  \\    /   O peration     | Version:  v1812                                 |
|   \\  /    A nd           | Web:      www.OpenFOAM.com                      |
|    \\/     M anipulation  |                                                 |
\*---------------------------------------------------------------------------*/
FoamFile
{
    version     2.0;
    format      ascii;
    class       volScalarField;
    location    "20000";
    object      nuTilda;
}
// * * * * * * * * * * * * * * * * * * * * * * * * * * * * * * * * * * * * * //

dimensions      [0 2 -1 0 0 0 0];


internalField   nonuniform List<scalar> 
3770
(
0.0004779739943669115
0.0004779739943666011
0.0004779739943662944
0.00047797399436668
0.0004779739943664428
0.0004779739943667495
0.0004779739943668307
0.000477973994366383
0.0004779739943669719
0.0004779739943669037
0.0004779739943663322
0.0004779739943669578
0.0004779739943669262
0.000477973994366362
0.0004779739943669871
0.0004779739943668784
0.0004779739943663076
0.0004779739943668829
0.0004779739943669241
0.000477973994366346
0.0004779739943669941
0.0004779739943668489
0.0004779739943662886
0.0004779739943668573
0.0004779739943669127
0.0004779739943663248
0.0004779739943669841
0.0004779739943668272
0.0004779739943662522
0.000477973994366443
0.0004779739943663936
0.0004779739943671013
0.0004779739943665273
0.0004779739943662548
0.0004779739943668235
0.0004779739943666498
0.0004779739943662486
0.000477973994366813
0.000477973994366851
0.0004779739943661253
0.0004779739943664498
0.0004779739943662854
0.0004779739943671135
0.0004779739943666749
0.0004779739943667915
0.0004779739943661995
0.0004779739943668337
0.0004779739943666496
0.0004779739943660673
0.0004779739943663702
0.0004779739943662742
0.0004779739943667859
0.0004779739943661456
0.0004779739943660222
0.0004779739943667815
0.0004779739943662451
0.0004779739943662392
0.0004779739943660276
0.0002360494210267038
0.0002360494210254286
0.0002360494210187831
0.0002360494210218092
0.0002360494210242065
0.0002360494210254209
0.0002360494210262095
0.0002360494210187466
0.0002360494210264236
0.0002360494210284488
0.0002360494210183921
0.0002360494210259813
0.0002360494210287142
0.0002360494210176066
0.000236049421026171
0.0002360494210284936
0.0002360494210179807
0.0002360494210247957
0.0002360494210279467
0.0002360494210170225
0.0002360494210257794
0.000236049421027904
0.0002360494210175684
0.0002360494210241831
0.0002360494210273977
0.0002360494210164501
0.0002360494210253027
0.0002360494210274915
0.0002360494210170627
0.000236049421020426
0.0002360494210232046
0.0002360494210263245
0.0002360494210203139
0.0002360494210216981
0.0002360494210246878
0.0002360494210269559
0.000236049421016873
0.0002360494210244064
0.000236049421027703
0.0002360494210160742
0.0002360494210206578
0.0002360494210229853
0.0002360494210268154
0.0002360494210241252
0.0002360494210277215
0.0002360494210166498
0.0002360494210255434
0.000236049421027326
0.0002360494210173168
0.0002360494210202013
0.0002360494210230761
0.0002360494210235907
0.0002360494210186818
0.0002360494210230598
0.0002360494210265577
0.0002360494210233106
0.0002360494210260607
0.000236049421020998
0.0001843491621215367
0.0001843491621611004
0.0001843491620890995
0.0001843491621080133
0.0001843491621354898
0.0001843491621398727
0.0001843491621623642
0.0001843491620931225
0.0001843491621204359
0.0001843491621591881
0.0001843491620927235
0.0001843491621183528
0.0001843491621619455
0.0001843491620868732
0.0001843491621186404
0.0001843491621582219
0.0001843491620884384
0.000184349162114968
0.0001843491621586485
0.0001843491620840152
0.0001843491621155243
0.0001843491621550874
0.000184349162084946
0.0001843491621114496
0.0001843491621548237
0.0001843491620804328
0.0001843491621121607
0.0001843491621525298
0.0001843491620812707
0.0001843491621042312
0.0001843491621348896
0.00018434916212178
0.0001843491620917442
0.0001843491621340784
0.0001843491621132595
0.0001843491621510915
0.0001843491620814601
0.0001843491621093873
0.0001843491621530641
0.000184349162078285
0.0001843491621069423
0.000184349162135309
0.0001843491621241695
0.0001843491620983432
0.0001843491621586129
0.0001843491620880312
0.0001843491621185154
0.0001843491621588975
0.0001843491620903142
0.0001843491621140963
0.0001843491621439887
0.0001843491621276681
0.0001843491620991752
0.0001843491621428334
0.0001843491621287953
0.0001843491620967171
0.0001843491621374962
0.0001843491621091302
0.0002082131901918921
0.0002082131902803742
0.0002082131901223443
0.0002082131901798075
0.0002082131902444494
0.000208213190247491
0.0002082131902831341
0.0002082131901304436
0.0002082131901972196
0.0002082131902730904
0.0002082131901298872
0.0002082131901914597
0.0002082131902827543
0.0002082131901112414
0.0002082131901971617
0.0002082131902722151
0.000208213190115094
0.0002082131901881791
0.0002082131902743764
0.0002082131901044834
0.0002082131901889475
0.000208213190264556
0.0002082131901057631
0.0002082131901794492
0.000208213190264458
0.0002082131900954047
0.0002082131901800176
0.0002082131902574559
0.0002082131900986427
0.000208213190167114
0.000208213190228476
0.0002082131901905152
0.0002082131901168495
0.0002082131902272323
0.000208213190183169
0.0002082131902547085
0.0002082131900969574
0.0002082131901740365
0.000208213190259186
0.0002082131900929472
0.0002082131901733853
0.0002082131902305918
0.0002082131901910847
0.0002082131901351683
0.0002082131902744531
0.0002082131901156646
0.0002082131901976548
0.0002082131902753406
0.0002082131901286949
0.0002082131901911405
0.0002082131902548228
0.0002082131902045476
0.0002082131901467134
0.000208213190252159
0.0002082131902060211
0.0002082131901433896
0.0002082131902717256
0.0002082131901130152
0.0002687766828371142
0.0002687766829114507
0.0002687766828408164
0.0002687766828082846
0.0002687766829053508
0.0002687766829041305
0.0002687766829122424
0.0002687766828540218
0.0002687766828160351
0.0002687766829025551
0.0002687766828458657
0.0002687766828105425
0.000268776682926947
0.0002687766827709029
0.0002687766828495896
0.000268776682914519
0.0002687766827704364
0.000268776682839463
0.0002687766829124305
0.0002687766827586571
0.0002687766828350121
0.0002687766829005771
0.0002687766827537701
0.0002687766828236864
0.0002687766828951438
0.0002687766827419576
0.0002687766828181149
0.0002687766828866718
0.0002687766827448554
0.000268776682810258
0.0002687766828611473
0.000268776682820161
0.0002687766827606455
0.0002687766828618641
0.0002687766828211779
0.0002687766828815111
0.0002687766827371172
0.0002687766828115109
0.0002687766828845422
0.0002687766827379454
0.0002687766828151057
0.0002687766828826465
0.0002687766827699312
0.0002687766828219193
0.0002687766829085084
0.0002687766827733042
0.0002687766828469438
0.0002687766829007249
0.0002687766828432637
0.0002687766828134031
0.0002687766829204733
0.0002687766827914064
0.0002687766828456105
0.0002687766829173185
0.0002687766827898338
0.0002687766828404151
0.0002687766829117072
0.0002687766827594674
0.0003482664751063977
0.0003482664751708008
0.0003482664751271777
0.0003482664750999771
0.0003482664751716544
0.0003482664751654258
0.0003482664751730017
0.0003482664751309829
0.0003482664751006979
0.0003482664751623984
0.0003482664751306783
0.0003482664750894232
0.0003482664751772105
0.0003482664750645615
0.0003482664751190946
0.000348266475161683
0.0003482664750604917
0.0003482664751062063
0.0003482664751558344
0.0003482664750458702
0.0003482664750974241
0.0003482664751401849
0.0003482664750355272
0.000348266475082665
0.0003482664751306001
0.0003482664750204319
0.0003482664750712207
0.0003482664751168732
0.0003482664750264368
0.0003482664750689988
0.00034826647509859
0.0003482664750710311
0.0003482664750283491
0.0003482664750977026
0.0003482664750725126
0.0003482664751103047
0.000348266475008824
0.0003482664750615101
0.000348266475112706
0.0003482664750126557
0.0003482664750685959
0.0003482664751204438
0.0003482664750292355
0.00034826647508291
0.0003482664751433075
0.0003482664750634676
0.0003482664751145069
0.0003482664751518955
0.0003482664751203534
0.0003482664750883597
0.0003482664751678512
0.0003482664750709603
0.0003482664751208716
0.0003482664751649744
0.0003482664750701456
0.0003482664751171092
0.0003482664751544907
0.0003482664750496077
0.0004406388696298179
0.000440638869678371
0.0004406388696504886
0.00044063886965001
0.0004406388696853996
0.0004406388696725242
0.0004406388696833312
0.0004406388696556768
0.0004406388696403862
0.0004406388696743651
0.0004406388696563677
0.0004406388696249303
0.0004406388696781425
0.0004406388696125497
0.0004406388696371939
0.0004406388696599838
0.0004406388696039736
0.0004406388696203445
0.0004406388696496769
0.00044063886958625
0.0004406388696070279
0.0004406388696296337
0.0004406388695696667
0.0004406388695879455
0.0004406388696151044
0.000440638869551404
0.0004406388695710759
0.0004406388695904502
0.0004406388695671265
0.0004406388695665891
0.0004406388695837181
0.0004406388695689943
0.0004406388695442428
0.0004406388695800346
0.0004406388695678497
0.0004406388695864035
0.0004406388695305679
0.0004406388695549985
0.0004406388695884827
0.0004406388695356888
0.0004406388695637758
0.0004406388695999019
0.0004406388695501367
0.000440638869580444
0.0004406388696228524
0.0004406388696082271
0.0004406388696287371
0.000440638869648008
0.0004406388696339265
0.0004406388696130829
0.0004406388696552629
0.0004406388696051605
0.0004406388696330492
0.0004406388696533506
0.0004406388696085455
0.0004406388696359347
0.0004406388696409375
0.000440638869604358
0.0005453680707932318
0.0005453680708216078
0.0005453680707986343
0.000545368070833127
0.0005453680708363145
0.0005453680708132323
0.0005453680708288547
0.0005453680708170175
0.0005453680708065674
0.0005453680708244512
0.0005453680708164049
0.0005453680707894732
0.0005453680708201218
0.0005453680707933543
0.0005453680707852682
0.0005453680708004023
0.0005453680707788642
0.0005453680707626882
0.0005453680707860211
0.0005453680707574729
0.0005453680707458922
0.0005453680707582933
0.0005453680707338836
0.0005453680707204684
0.0005453680707379669
0.0005453680707131544
0.0005453680707018567
0.0005453680707113091
0.000545368070697027
0.0005453680707083676
0.0005453680707107604
0.0005453680706853792
0.0005453680706931049
0.0005453680707030531
0.0005453680706813786
0.0005453680706989029
0.0005453680706814521
0.0005453680706723309
0.0005453680707039772
0.0005453680706843955
0.0005453680706819483
0.0005453680707158246
0.0005453680707000489
0.0005453680707016098
0.0005453680707491879
0.0005453680707473138
0.0005453680707726453
0.0005453680707744521
0.0005453680707757689
0.0005453680707609618
0.0005453680707752182
0.0005453680707614355
0.0005453680707703389
0.0005453680707736037
0.0005453680707763058
0.0005453680707865158
0.0005453680707765151
0.0005453680707577434
0.000665125206275758
0.0006651252062846451
0.000665125206249093
0.000665125206329856
0.0006651252063058356
0.0006651252062680919
0.000665125206287055
0.000665125206305718
0.0006651252062670216
0.0006651252062904614
0.0006651252063050238
0.000665125206244269
0.0006651252062954803
0.0006651252062741858
0.0006651252062368016
0.0006651252062743288
0.0006651252062532712
0.0006651252062047327
0.0006651252062605745
0.0006651252062262949
0.0006651252061884801
0.0006651252062131757
0.0006651252061942365
0.0006651252061547095
0.0006651252061851076
0.0006651252061710005
0.0006651252061388027
0.0006651252061462054
0.0006651252061292685
0.0006651252061493923
0.000665125206164428
0.0006651252061113728
0.0006651252061324173
0.0006651252061494891
0.0006651252061010026
0.0006651252061278617
0.0006651252061369214
0.0006651252060844944
0.0006651252061544749
0.0006651252061239333
0.0006651252060963024
0.0006651252061604609
0.0006651252061442942
0.000665125206129272
0.0006651252061950564
0.0006651252061890366
0.0006651252062187925
0.0006651252062133605
0.0006651252062238113
0.0006651252062001402
0.000665125206213276
0.0006651252062085986
0.000665125206212518
0.000665125206205378
0.0006651252062533011
0.0006651252062445814
0.0006651252062307009
0.0006651252062235214
0.0008057067271669949
0.0008057067271743225
0.0008057067271286149
0.000805706727231219
0.0008057067271955318
0.0008057067271462629
0.000805706727174759
0.0008057067272033338
0.0008057067271486914
0.0008057067271752456
0.0008057067272072904
0.0008057067271305372
0.0008057067271620317
0.0008057067271813713
0.0008057067271197787
0.0008057067271453792
0.0008057067271565448
0.0008057067270731623
0.0008057067271516397
0.0008057067271064921
0.0008057067270554306
0.0008057067270883624
0.0008057067270672841
0.0008057067270077777
0.0008057067270710844
0.000805706727038435
0.0008057067269946163
0.000805706726999101
0.0008057067269800515
0.0008057067270063761
0.0008057067270288278
0.00080570672695655
0.0008057067269851303
0.0008057067270053483
0.0008057067269407863
0.000805706726973126
0.0008057067269960436
0.0008057067269203282
0.0008057067270131548
0.000805706726970657
0.0008057067269298359
0.000805706727025469
0.0008057067269974408
0.0008057067269771115
0.0008057067270555768
0.000805706727038263
0.0008057067270910331
0.0008057067270626213
0.0008057067270935164
0.000805706727051455
0.0008057067270767824
0.0008057067270722826
0.0008057067270714897
0.0008057067270723789
0.0008057067271461524
0.0008057067271278474
0.0008057067271070939
0.0008057067271476002
0.000976696356931979
0.0009766963569691003
0.0009766963569134866
0.0009766963570118777
0.0009766963569807475
0.0009766963569260391
0.0009766963569557523
0.0009766963569866377
0.0009766963569322897
0.0009766963569528954
0.000976696356997447
0.0009766963569119362
0.0009766963569455586
0.0009766963569681735
0.0009766963568998263
0.0009766963569156743
0.0009766963569392778
0.0009766963568438498
0.0009766963569279371
0.0009766963568775999
0.000976696356826941
0.0009766963568342039
0.0009766963568466891
0.0009766963567588445
0.0009766963568424037
0.000976696356793117
0.0009766963567455996
0.0009766963567437636
0.0009766963567261935
0.0009766963567476978
0.0009766963567768665
0.000976696356694986
0.0009766963567226375
0.0009766963567419194
0.0009766963566743177
0.0009766963567024401
0.000976696356735592
0.0009766963566524198
0.0009766963567454307
0.0009766963567007789
0.0009766963566612578
0.0009766963567606844
0.0009766963567342062
0.0009766963567188339
0.0009766963567953149
0.0009766963567894441
0.0009766963568144198
0.0009766963568050167
0.0009766963568125587
0.0009766963567830089
0.0009766963568516593
0.000976696356831316
0.0009766963568046585
0.0009766963568424915
0.0009766963569264894
0.0009766963569022764
0.0009766963569093283
0.000976696356944145
0.001191697039148495
0.001191697039187621
0.001191697039131334
0.00119169703919472
0.001191697039191157
0.001191697039137131
0.001191697039158728
0.00119169703918295
0.001191697039148658
0.001191697039154504
0.001191697039199956
0.001191697039125098
0.001191697039153704
0.001191697039170555
0.001191697039104408
0.001191697039110694
0.00119169703913311
0.001191697039046152
0.001191697039105552
0.001191697039074317
0.001191697039020693
0.00119169703901139
0.001191697039020704
0.001191697038944067
0.001191697039001089
0.001191697038970392
0.001191697038921914
0.001191697038908689
0.001191697038894343
0.001191697038905892
0.001191697038930276
0.00119169703885609
0.001191697038871727
0.001191697038883701
0.001191697038827232
0.001191697038845738
0.001191697038879229
0.001191697038810224
0.001191697038868129
0.001191697038846665
0.001191697038816875
0.001191697038887104
0.0011916970388867
0.001191697038880362
0.001191697038938274
0.001191697038953308
0.001191697038949306
0.001191697038962838
0.001191697038974496
0.001191697038952156
0.001191697038984226
0.001191697039004927
0.001191697038963406
0.001191697039032167
0.001191697039098164
0.001191697039109499
0.001191697039144057
0.001191697039166412
0.001467422472433489
0.001467422472480983
0.001467422472400063
0.001467422472413751
0.001467422472467868
0.001467422472403016
0.001467422472407889
0.001467422472443648
0.001467422472425711
0.001467422472405595
0.001467422472462137
0.001467422472395719
0.001467422472405959
0.001467422472444989
0.001467422472341533
0.001467422472360155
0.001467422472391341
0.001467422472290233
0.001467422472323754
0.001467422472340257
0.001467422472251793
0.001467422472247121
0.001467422472247375
0.001467422472182618
0.001467422472187547
0.001467422472214373
0.001467422472155655
0.001467422472104096
0.001467422472094417
0.001467422472104211
0.00146742247213559
0.001467422472056398
0.001467422472061009
0.001467422472077662
0.001467422472010538
0.001467422472030242
0.001467422472069159
0.001467422472005793
0.001467422472013084
0.001467422472040252
0.001467422472013395
0.00146742247202489
0.001467422472100966
0.001467422472077482
0.001467422472096824
0.001467422472170411
0.001467422472123287
0.00146742247214584
0.001467422472191886
0.001467422472151894
0.001467422472147631
0.001467422472192238
0.001467422472155583
0.00146742247220665
0.001467422472309249
0.001467422472327016
0.001467422472356591
0.001467422472454754
0.001822685198981796
0.001822685199058973
0.001822685198912754
0.00182268519887506
0.001822685199029673
0.001822685198898569
0.001822685198915499
0.001822685198996239
0.001822685198971978
0.001822685198859246
0.001822685199021777
0.001822685198904267
0.001822685198915858
0.00182268519901665
0.001822685198777562
0.001822685198866055
0.001822685198967927
0.001822685198712229
0.001822685198811503
0.001822685198899222
0.001822685198641275
0.001822685198730561
0.001822685198799674
0.001822685198664418
0.001822685198628619
0.001822685198708486
0.001822685198652593
0.001822685198500287
0.001822685198505594
0.001822685198529096
0.001822685198625982
0.001822685198481702
0.001822685198480302
0.001822685198563255
0.001822685198376095
0.001822685198451624
0.001822685198533448
0.001822685198393579
0.001822685198427055
0.001822685198483207
0.001822685198436967
0.001822685198387628
0.001822685198570518
0.001822685198479517
0.001822685198469426
0.001822685198641067
0.001822685198500275
0.001822685198549592
0.001822685198659654
0.001822685198564121
0.001822685198500243
0.001822685198633031
0.001822685198536437
0.001822685198560556
0.001822685198765254
0.001822685198796323
0.001822685198764788
0.001822685199016798
0.002275328256435072
0.002275328256578589
0.002275328256321118
0.00227532825623658
0.002275328256505222
0.002275328256290321
0.002275328256235315
0.002275328256477403
0.0022753282564037
0.002275328256208953
0.002275328256503453
0.002275328256319353
0.002275328256225392
0.002275328256504243
0.002275328256106109
0.002275328256273201
0.002275328256494935
0.002275328255975655
0.002275328256204225
0.002275328256371489
0.002275328255900269
0.002275328256115258
0.002275328256276508
0.002275328256064278
0.002275328256099694
0.002275328256081077
0.002275328256044241
0.002275328255800365
0.002275328255900141
0.00227532825575003
0.002275328256015074
0.002275328255825823
0.002275328255692911
0.00227532825595298
0.002275328255610788
0.002275328255763535
0.002275328255946369
0.002275328255560923
0.002275328255692842
0.002275328255823608
0.002275328255705123
0.002275328255756121
0.002275328255987737
0.002275328255610674
0.002275328255784176
0.002275328255967842
0.0022753282558532
0.002275328255766674
0.002275328256018316
0.002275328255804481
0.002275328255697746
0.002275328255942845
0.002275328255754488
0.00227532825573962
0.002275328256091138
0.002275328256117209
0.002275328256023056
0.002275328256500701
0.002838677761360277
0.002838677761648761
0.002838677761199573
0.00283867776109163
0.002838677761509001
0.002838677761179664
0.00283867776106857
0.002838677761480468
0.002838677761308638
0.002838677761038228
0.002838677761525844
0.002838677761212315
0.002838677761037537
0.002838677761439311
0.002838677761132629
0.002838677761031001
0.002838677761578914
0.002838677760726995
0.002838677761099003
0.002838677761364398
0.0028386777605993
0.002838677760968679
0.00283867776128894
0.002838677761045489
0.002838677761076668
0.002838677760852806
0.002838677760784362
0.002838677760891583
0.002838677760681802
0.002838677760453913
0.002838677760923503
0.002838677760723531
0.002838677760404136
0.002838677760852261
0.002838677760308056
0.002838677760518808
0.002838677760851903
0.002838677760240281
0.002838677760462478
0.002838677760697615
0.002838677760436236
0.002838677760546304
0.002838677760909061
0.002838677760218175
0.002838677760560992
0.002838677760870963
0.002838677760419312
0.00283867776060253
0.00283867776088089
0.002838677760468463
0.002838677760348723
0.002838677760724041
0.002838677760351229
0.002838677760338512
0.00283867776086915
0.002838677760866308
0.002838677760707137
0.002838677761499554
0.003518000515023308
0.003518000515534634
0.003518000514632317
0.003518000514655558
0.003518000515238746
0.003518000514741285
0.003518000514540569
0.00351800051523743
0.003518000514887046
0.003518000514485324
0.003518000515294635
0.003518000514828121
0.0035180005144997
0.003518000515147525
0.003518000514727253
0.003518000514508192
0.003518000515479942
0.003518000514061306
0.003518000514697541
0.003518000515113356
0.00351800051389257
0.003518000514441474
0.003518000515027043
0.003518000514804077
0.003518000514807891
0.003518000514398934
0.003518000513901879
0.003518000514572238
0.003518000514097281
0.003518000513758291
0.003518000514581368
0.003518000514346373
0.003518000513757556
0.003518000514382155
0.003518000513948616
0.003518000513678266
0.003518000514516733
0.003518000513539267
0.003518000513929249
0.00351800051434957
0.003518000513624983
0.003518000513980578
0.00351800051458373
0.003518000513407891
0.003518000514000166
0.003518000514549636
0.003518000513433271
0.003518000514029639
0.003518000514623895
0.003518000513388905
0.003518000513867023
0.003518000514345178
0.003518000513158164
0.003518000513723613
0.003518000514313445
0.003518000514162099
0.00351800051396059
0.003518000515149238
0.00430324215174401
0.004303242152887221
0.004303242150295468
0.00430324215147249
0.004303242152052182
0.004303242151132052
0.004303242150882547
0.004303242152132023
0.004303242151437261
0.004303242150749636
0.004303242152150674
0.004303242151298908
0.00430324215083721
0.004303242151959199
0.004303242151279842
0.004303242150869529
0.004303242152587751
0.004303242150110556
0.004303242151270767
0.004303242152015501
0.00430324214997724
0.004303242150823222
0.004303242151767415
0.004303242151583092
0.004303242151684322
0.004303242150699742
0.004303242150199705
0.004303242151324511
0.004303242150555084
0.004303242149880921
0.004303242151345195
0.004303242150960179
0.004303242149968613
0.00430324215109526
0.004303242150224023
0.004303242149836161
0.004303242151483767
0.004303242149240635
0.004303242150344302
0.004303242151221151
0.004303242149384762
0.004303242150386234
0.004303242151485128
0.004303242149165301
0.004303242150387024
0.004303242151353021
0.004303242149366673
0.004303242150399751
0.00430324215142977
0.004303242149189369
0.004303242150251448
0.004303242151060179
0.0043032421488463
0.004303242149971293
0.004303242150923387
0.00430324215008334
0.004303242150472762
0.00430324215177754
0.00515695196042476
0.005156951962030213
0.00515695195777988
0.005156951959887511
0.005156951961272685
0.005156951958083374
0.005156951959562558
0.005156951960997075
0.005156951959860514
0.005156951958682891
0.005156951961230199
0.005156951958465041
0.005156951959492448
0.005156951960769415
0.00515695195960028
0.005156951958954375
0.00515695196180494
0.005156951957735964
0.005156951959533255
0.00515695196090998
0.00515695195765144
0.005156951959044127
0.005156951960180643
0.005156951960148482
0.005156951960494749
0.005156951958807106
0.005156951958128432
0.005156951960103013
0.005156951958594828
0.00515695195776531
0.005156951960070457
0.005156951959368659
0.00515695195777456
0.005156951959825256
0.005156951958325451
0.005156951957647687
0.005156951960441174
0.005156951956836342
0.005156951958460277
0.005156951960037424
0.005156951957340452
0.005156951958513721
0.005156951960430159
0.005156951956638151
0.005156951958612128
0.005156951960298719
0.005156951956900128
0.005156951958666057
0.005156951960341541
0.005156951956615885
0.005156951958535922
0.005156951959972149
0.00515695195623377
0.005156951958231499
0.005156951959973189
0.005156951956820353
0.005156951958598771
0.005156951960535258
0.006027841973289601
0.006027841975031686
0.006027841969247176
0.006027841972086392
0.00602784197442601
0.006027841969430343
0.006027841971855396
0.006027841973889231
0.006027841971981908
0.00602784197063121
0.006027841974361294
0.00602784196942384
0.006027841971682433
0.006027841973617686
0.006027841971811831
0.006027841971009746
0.006027841975240969
0.006027841969328661
0.006027841971517674
0.00602784197356098
0.006027841969485217
0.006027841971598622
0.006027841972042423
0.006027841972443515
0.006027841973992473
0.006027841969107706
0.006027841971136646
0.006027841973619324
0.006027841968498183
0.0060278419706341
0.006027841972838733
0.006027841971668557
0.006027841969469859
0.006027841972661842
0.006027841970372155
0.006027841969364915
0.006027841973521512
0.006027841968380469
0.006027841970422788
0.006027841972449084
0.006027841971320599
0.006027841969450607
0.00602784197352368
0.00602784196804514
0.006027841970846441
0.006027841973449156
0.00602784196839477
0.006027841970984904
0.006027841973467075
0.006027841968058292
0.006027841970909657
0.006027841973154002
0.006027841967741229
0.006027841970611014
0.006027841973139393
0.006027841968062535
0.006027841970847618
0.00602784197358718
0.006876003054653068
0.006876003058584432
0.006876003050871386
0.006876003054602283
0.006876003057985299
0.006876003051384858
0.006876003054639186
0.006876003057991482
0.006876003051502352
0.006876003054392526
0.006876003057758101
0.006876003051332811
0.006876003054197102
0.00687600305685698
0.006876003054387076
0.006876003053522439
0.006876003059257577
0.006876003051497609
0.006876003053625555
0.006876003055490942
0.006876003053519804
0.006876003055595966
0.006876003053200203
0.006876003054577163
0.006876003057520078
0.006876003050825048
0.006876003053837175
0.006876003057154509
0.006876003050268309
0.006876003053281247
0.006876003056055249
0.006876003054459641
0.006876003051631935
0.006876003055964956
0.006876003052857126
0.006876003051544653
0.00687600305706606
0.00687600305044278
0.006876003052924626
0.006876003055691742
0.006876003054052726
0.006876003051573175
0.006876003057099365
0.006876003049964003
0.006876003053529491
0.006876003057093668
0.006876003050463706
0.00687600305375113
0.006876003057045703
0.006876003050319318
0.006876003053770573
0.006876003056861584
0.006876003049983187
0.00687600305352027
0.006876003056841546
0.006876003049978482
0.006876003053806431
0.006876003057976966
0.007678702352938475
0.007678702357580433
0.007678702348436714
0.00767870235265644
0.007678702357032115
0.007678702349071074
0.007678702352837267
0.007678702357005926
0.007678702348721585
0.007678702352708345
0.007678702356560657
0.007678702349285845
0.007678702352266708
0.007678702355618195
0.007678702352528443
0.007678702351551744
0.00767870235875989
0.007678702349706405
0.007678702351318753
0.007678702353031696
0.00767870235200258
0.007678702355814968
0.007678702348445201
0.007678702352373966
0.007678702356487703
0.00767870234834584
0.007678702351874399
0.007678702355937454
0.007678702348534042
0.007678702351211619
0.007678702354828103
0.00767870235293899
0.007678702349453622
0.007678702354820378
0.007678702350953778
0.007678702349376202
0.007678702356135196
0.007678702348229204
0.007678702351037773
0.007678702354499041
0.00767870235234704
0.007678702349445018
0.00767870235619785
0.007678702347595489
0.007678702351786356
0.00767870235626778
0.007678702348307402
0.007678702352098339
0.007678702356224483
0.007678702348219373
0.007678702352209146
0.007678702356160304
0.007678702347921477
0.007678702351984257
0.007678702356077476
0.007678702347898826
0.007678702352171472
0.007678702356658517
0.008425926955739986
0.00842592695900694
0.00842592694870462
0.008425926953236244
0.008425926958492348
0.008425926949417767
0.008425926953488691
0.008425926958392197
0.008425926948980079
0.008425926953387515
0.008425926957835981
0.008425926949863048
0.008425926952887908
0.008425926956869022
0.008425926953388289
0.008425926951733305
0.008425926959437674
0.008425926954890445
0.008425926950689206
0.008425926953398081
0.008425926950593764
0.008425926957416873
0.008425926948145883
0.008425926952894213
0.008425926957882326
0.008425926948449885
0.008425926952299588
0.008425926956187902
0.00842592695249712
0.008425926949926896
0.008425926956081358
0.008425926954024438
0.008425926949894039
0.008425926956152956
0.008425926951624172
0.008425926949821383
0.00842592695764419
0.008425926948691166
0.008425926951698985
0.008425926955794973
0.00842592695328789
0.008425926949923139
0.00842592695771547
0.008425926947884417
0.008425926952562494
0.008425926957873146
0.008425926948868253
0.008425926952974418
0.008425926957920452
0.008425926948583157
0.008425926953158335
0.008425926957994006
0.008425926948172719
0.008425926952844541
0.008425926957495614
0.008425926949392839
0.00842592695312663
0.008425926956003141
0.009114754644962959
0.00911475464965633
0.009114754638466798
0.009114754643195834
0.009114754649209265
0.00911475463924737
0.00911475464349985
0.00911475464919175
0.009114754638463436
0.009114754643411617
0.009114754648501904
0.00911475463961242
0.009114754642936691
0.009114754647520176
0.009114754643769743
0.009114754641392683
0.009114754649038739
0.009114754644967644
0.009114754644512542
0.00911475464275292
0.00911475464030783
0.009114754647905864
0.009114754638483389
0.009114754642896008
0.009114754648524263
0.009114754638008142
0.009114754642340826
0.00911475464672425
0.009114754642427482
0.009114754639581077
0.009114754646665734