/*--------------------------------*- C++ -*----------------------------------*\
| =========                 |                                                 |
| \\      /  F ield         | OpenFOAM: The Open Source CFD Toolbox           |
|  \\    /   O peration     | Version:  v1812                                 |
|   \\  /    A nd           | Web:      www.OpenFOAM.com                      |
|    \\/     M anipulation  |                                                 |
\*---------------------------------------------------------------------------*/
FoamFile
{
    version     2.0;
    format      ascii;
    class       volScalarField;
    location    "20000";
    object      p;
}
// * * * * * * * * * * * * * * * * * * * * * * * * * * * * * * * * * * * * * //

dimensions      [0 2 -2 0 0 0 0];


internalField   nonuniform List<scalar> 
3770
(
8.33631246946185e-15
4.553201295410338e-11
3.212755410892039e-11
3.572323217633457e-11
4.506413117579635e-11
4.099903245391854e-11
5.398025972729088e-11
4.966460309534917e-11
6.231170793458395e-11
5.737292773373303e-11
6.942107959206785e-11
6.581165103737241e-11
7.500865741379284e-11
7.343924088182378e-11
8.107763916358969e-11
7.995827335808617e-11
8.694114558394369e-11
8.674648720946844e-11
9.277914660100772e-11
9.311186200084046e-11
9.784305815411987e-11
9.923240748324101e-11
1.034624797411351e-10
1.045350918791109e-10
1.092970144612546e-10
1.105343354414362e-10
1.139521518860819e-10
1.164633596628171e-10
1.196633994408995e-10
1.211024881605402e-10
1.25294016048371e-10
1.268098562646974e-10
1.296626147116961e-10
1.324474599405304e-10
1.351307489722965e-10
1.365367841311033e-10
1.400940783169684e-10
1.415635324566062e-10
1.437177491819047e-10
1.461443485751931e-10
1.482005987773647e-10
1.493625582515551e-10
1.522975109978748e-10
1.535073468448643e-10
1.552490082624263e-10
1.572377915244016e-10
1.590594188599878e-10
1.60367994826393e-10
1.630520764929085e-10
1.646450420073069e-10
1.672397820781598e-10
1.701376068392183e-10
1.730964189841697e-10
1.763894950505612e-10
1.82806242181344e-10
1.891582311355038e-10
1.810135999321739e-10
1.143765156776993e-10
-8.276995888077409e-14
4.546527028651775e-11
3.216810844101556e-11
3.570100413657788e-11
4.507276989781498e-11
4.099539258269046e-11
5.398147556809556e-11
4.966451105764978e-11
6.231281125035092e-11
5.737293324466749e-11
6.942065440855841e-11
6.581384339346396e-11
7.500728065631996e-11
7.344019772042114e-11
8.107772216767619e-11
7.995884995368405e-11
8.694067531130946e-11
8.674737775528796e-11
9.277868475226452e-11
9.311270015428349e-11
9.784286183222044e-11
9.923291940672906e-11
1.034626022532786e-10
1.045347467707875e-10
1.092974052769301e-10
1.105353752926736e-10
1.139512541363345e-10
1.164638163866253e-10
1.196643661252745e-10
1.211018646163211e-10
1.252942935362242e-10
1.268109615840719e-10
1.296618043046179e-10
1.324478954302932e-10
1.351321118175385e-10
1.365361242068843e-10
1.400941880404858e-10
1.415650713664993e-10
1.437171619539534e-10
1.461445311078428e-10
1.482017152972049e-10
1.493621257877624e-10
1.522978743882261e-10
1.535084685580285e-10
1.552486004806101e-10
1.572381125081058e-10
1.59060389507697e-10
1.60367542236837e-10
1.63052112381648e-10
1.646454832154546e-10
1.672388830211299e-10
1.701369358450967e-10
1.730948621367533e-10
1.763866946405513e-10
1.828074111260484e-10
1.891714238293708e-10
1.810562650207298e-10
1.144491710757852e-10
-2.794819256469214e-13
4.532536654876146e-11
3.224987542590179e-11
3.565591027112593e-11
4.508918064378816e-11
4.098709698240884e-11
5.398343569882262e-11
4.966409748343861e-11
6.231433191508626e-11
5.737224061592642e-11
6.941973076757105e-11
6.581760196119113e-11
7.500392024898166e-11
7.344225089261087e-11
8.107722885394162e-11
7.995946432057868e-11
8.69395851770015e-11
8.674852853540285e-11
9.277721975028131e-11
9.311435965168754e-11
9.784172516520095e-11
9.92333289412237e-11
1.034626626623514e-10
1.045332351030178e-10
1.092975651291021e-10
1.105371704959266e-10
1.13948567419491e-10
1.164640282075209e-10
1.196660295889285e-10
1.210996026174835e-10
1.252942024366122e-10
1.268128272926979e-10
1.296593598534362e-10
1.324479100256817e-10
1.351341161189306e-10
1.365339583743249e-10
1.4009417580014e-10
1.415670420015633e-10
1.437150276704949e-10
1.461443974172685e-10
1.48202867106507e-10
1.493599954295849e-10
1.52298054428267e-10
1.535092877159963e-10
1.552464439774298e-10
1.572376966609329e-10
1.590606226261692e-10
1.603646032117483e-10
1.630506878052074e-10
1.646438057609046e-10
1.672347035512744e-10
1.701336974001391e-10
1.730902374152805e-10
1.763817114429008e-10
1.828131989346253e-10
1.892091839683434e-10
1.811690004156648e-10
1.146105601673599e-10
-5.727406423474977e-13
4.509114208092384e-11
3.238639797873676e-11
3.558281431438693e-11
4.511363290544561e-11
4.09760722118588e-11
5.398385689164292e-11
4.96664944800652e-11
6.231301104398412e-11
5.737392116751881e-11
6.941591123856608e-11
6.582496286868218e-11
7.499672726043465e-11
7.344755650423453e-11
8.107427833015234e-11
7.99616898189258e-11
8.693703802717794e-11
8.675059952275116e-11
9.277398944446305e-11
9.311818562379638e-11
9.783852516112133e-11
9.923440705804043e-11
1.034627502866154e-10
1.045306002747755e-10
1.092971498198044e-10
1.105408076392666e-10
1.139433772980446e-10
1.164644133929078e-10
1.196687981038851e-10
1.210955819781018e-10
1.252935741439971e-10
1.268164033668729e-10
1.296546583496023e-10
1.324474487494491e-10
1.351368463394475e-10
1.365308685981483e-10
1.400941495216446e-10
1.415694274471967e-10
1.437114975094024e-10
1.461444238470418e-10
1.482037690407274e-10
1.493566205142793e-10
1.522982505910392e-10
1.535097812643425e-10
1.552427875313664e-10
1.572371286373543e-10
1.590599166057028e-10
1.603597205285785e-10
1.630481082027129e-10
1.646397463003e-10
1.672269713938746e-10
1.701274633127416e-10
1.730808248234162e-10
1.763697443105301e-10
1.828111006901762e-10
1.892632954035472e-10
1.813598150194846e-10
1.148790462950261e-10
-9.827915461445562e-13
4.477133925468544e-11
3.256998176601091e-11
3.548400555801615e-11
4.514592392996321e-11
4.096128659121623e-11
5.398539438180614e-11
4.966986915175091e-11
6.231119490625041e-11
5.737635860555707e-11
6.941128459572255e-11
6.583438084999595e-11
7.498751455210632e-11
7.345497671985006e-11
8.106990617433887e-11
7.996491033792606e-11
8.693397290947191e-11
8.675298570392173e-11
9.277013158088059e-11
9.31236058528095e-11
9.783366911699834e-11
9.923625438915891e-11
1.034633004480929e-10
1.04526529231879e-10
1.092969926259276e-10
1.105460551113862e-10
1.139360505742468e-10
1.164652433785679e-10
1.196728697921059e-10
1.210898193443307e-10
1.252932030787999e-10
1.268215525902033e-10
1.296479563310177e-10
1.324468718802498e-10
1.351407947127381e-10
1.365272556025224e-10
1.400945424798836e-10
1.415722732549956e-10
1.437072484713858e-10
1.461449378323053e-10
1.482047037969846e-10
1.49352462421159e-10
1.522989567498686e-10
1.535101993525564e-10
1.552383750660812e-10
1.572368358591984e-10
1.590588573789323e-10
1.603538589139643e-10
1.630456023300216e-10
1.646346647757527e-10
1.67218089625779e-10
1.701211639379695e-10
1.730715304412493e-10
1.763558741134447e-10
1.828015196894606e-10
1.893347394580434e-10
1.816291231226115e-10
1.152393293713496e-10
-1.499420716773616e-12
4.436478512396193e-11
3.279754873340693e-11
3.535995258595228e-11
4.518618524803247e-11
4.094282081788889e-11
5.398706400869255e-11
4.967391635619732e-11
6.230885780444934e-11
5.737965083693167e-11
6.940466089213448e-11
6.584696381419567e-11
7.497570225538888e-11
7.346410699349723e-11
8.106455086568692e-11
7.996906636033336e-11
8.692954686288271e-11
8.675657178017581e-11
9.276541300066885e-11
9.312988072087691e-11
9.782766156010816e-11
9.923880734109461e-11
1.034637131158241e-10
1.045215294133449e-10
1.092967733322427e-10
1.105523530930882e-10
1.139272571633081e-10
1.164660744479316e-10
1.196775022037422e-10
1.210829478097432e-10
1.252929095448535e-10
1.268275018107249e-10
1.296399595185838e-10
1.32446384019181e-10
1.351459985539757e-10
1.365225750512295e-10
1.400946833146398e-10
1.41576258699487e-10
1.437021374327868e-10
1.46145205311105e-10
1.482063521420956e-10
1.493471023062505e-10
1.522996471570914e-10
1.535113086276124e-10
1.552328645966263e-10
1.572359406399685e-10
1.590581441174273e-10
1.603466655610632e-10
1.630424557898733e-10
1.646289059789417e-10
1.672073264927747e-10
1.701133780643802e-10
1.730625605634446e-10
1.763384271970563e-10
1.827802292704556e-10
1.894214025581274e-10
1.819785398968519e-10
1.156981972446523e-10
-2.104705792953846e-12
4.387947352137469e-11
3.305871657390983e-11
3.521360077140529e-11
4.523430961715511e-11
4.092058050693016e-11
5.398797175126479e-11
4.967787537419474e-11
6.230673614693956e-11
5.738309757046933e-11
6.939567589373469e-11
6.586305605709711e-11
7.496131857237739e-11
7.347406380357195e-11
8.105913837343328e-11
7.997357897600614e-11
8.692339567550234e-11
8.676188000454604e-11
9.275995465932533e-11
9.313623345561821e-11
9.782117544918653e-11
9.924165874834739e-11
1.034637901877776e-10
1.045159783409519e-10
1.092962148072772e-10
1.105590960499421e-10
1.139179498838432e-10
1.164664631225036e-10
1.196822050590419e-10
1.210755023739623e-10
1.252926138471997e-10
1.268335933662889e-10
1.296316720793058e-10
1.324462684539002e-10
1.351526462351247e-10
1.365163458880978e-10
1.400942143666227e-10
1.415821414401116e-10
1.43696309271258e-10
1.46144858766621e-10
1.482096586671721e-10
1.493402836704182e-10
1.523002843140669e-10
1.535142714515427e-10
1.552263908468676e-10
1.572341256023475e-10
1.590589972586534e-10
1.603382907241117e-10
1.630387098384868e-10
1.64623495564002e-10
1.671947941700714e-10
1.701036767527288e-10
1.730546751543565e-10
1.763176569650504e-10
1.827465325811301e-10
1.895168957244996e-10
1.823965330468297e-10
1.162535015710858e-10
-2.785668577085722e-12
4.333227500936871e-11
3.334165999933511e-11
3.504545257039705e-11
4.529068571189312e-11
4.089364020541133e-11
5.398891299446594e-11
4.968103935719971e-11
6.230558375540516e-11
5.738587864964854e-11
6.938481808531947e-11
6.588197192006197e-11
7.494485646482851e-11
7.348449713983909e-11
8.105400254518505e-11
7.99781316659984e-11
8.691583483667288e-11
8.676859596009962e-11
9.275430165543948e-11
9.314245059734713e-11
9.781414075780435e-11
9.924464083331779e-11
1.034640142314351e-10
1.045094850942404e-10
1.09295371237099e-10
1.105661445578772e-10
1.139082597306573e-10
1.164666459952788e-10
1.196873385790059e-10
1.21066904570913e-10
1.25292566819768e-10
1.268399370660566e-10
1.296231188848805e-10
1.324467244747361e-10
1.351610901945039e-10
1.365084568323686e-10
1.40093471332586e-10
1.415899984834485e-10
1.436901900784919e-10
1.461442971938628e-10
1.482149318275238e-10
1.493319834761501e-10
1.523013486658322e-10
1.535195688679917e-10
1.552196673942647e-10
1.572318903965416e-10
1.590618884718477e-10
1.603292373832576e-10
1.630350305276496e-10
1.646188512980838e-10
1.671810267282297e-10
1.700923873899638e-10
1.730477512543622e-10
1.76295312390503e-10
1.82704856974212e-10
1.896184464912165e-10
1.828678983006087e-10
1.168911968649533e-10
-3.537876556735437e-12
4.274436466192695e-11
3.363875916579074e-11
3.485212341527167e-11
4.535670847291846e-11
4.08603118223245e-11
5.399148800576021e-11
4.96831953627018e-11
6.230577740434832e-11
5.738765410147259e-11
6.937274746181115e-11
6.590324055260019e-11
7.492652741505378e-11
7.349577176329925e-11
8.104892435643406e-11
7.998284788826817e-11
8.690726571763702e-11
8.677621656557135e-11
9.27489100827358e-11
9.314909258619592e-11
9.78059121502423e-11
9.924781759224793e-11
1.034650210289587e-10
1.045014781975475e-10
1.092945110082411e-10
1.105738204533926e-10
1.138975490233284e-10
1.164668762302759e-10
1.196937247510509e-10
1.210564743106225e-10
1.25292755770962e-10
1.26847254373937e-10
1.296139375291516e-10
1.324475474221694e-10
1.35171686217751e-10
1.364991737472038e-10
1.400929357371407e-10
1.415996982958213e-10
1.436840361243166e-10
1.461441509440691e-10
1.482220996125022e-10
1.493222986739263e-10
1.523032836050073e-10
1.535271964384699e-10
1.552131469545378e-10
1.572300605831778e-10
1.590668009986825e-10
1.603197645458518e-10
1.630321071373268e-10
1.646148555925648e-10
1.671663619234574e-10
1.700802864825924e-10
1.730411063830427e-10
1.762722540143379e-10
1.826614461088555e-10
1.897318106740911e-10
1.833825477598633e-10
1.17586627918434e-10
-4.360440243048302e-12
4.213202233548398e-11
3.394753283793793e-11
3.462669971586707e-11
4.543466211028841e-11
4.081907284762465e-11
5.39964203134328e-11
4.968480808609523e-11
6.230739261352606e-11
5.738894478043117e-11
6.935907918313103e-11
6.592787575922469e-11
7.490570856188605e-11
7.350872858302987e-11
8.104360434793703e-11
7.998836664390008e-11
8.689731855302958e-11
8.678502255011846e-11
9.274382728409221e-11
9.315677560453577e-11
9.779588973290998e-11
9.92516285686456e-11
1.034668942837326e-10
1.044916939069197e-10
1.092939458141224e-10
1.105825304708264e-10
1.13884984103597e-10
1.164673869005543e-10
1.197019654037928e-10
1.210439287765556e-10
1.252930034554785e-10
1.268562565537898e-10
1.296037009147831e-10
1.324486660084421e-10
1.351848811751283e-10
1.364884789430465e-10
1.400926961236347e-10
1.416117049614268e-10
1.436776242382502e-10
1.461446120323399e-10
1.482313884334283e-10
1.493111304388973e-10
1.523060137800213e-10
1.535373671798177e-10
1.552066358172048e-10
1.572288979648524e-10
1.590736326144054e-10
1.603094209966713e-10
1.630296930412613e-10
1.646111185821928e-10
1.671501057741269e-10
1.700672660824969e-10
1.730337077456589e-10
1.762473418151994e-10
1.826202184519055e-10
1.89868575654751e-10
1.839394359429298e-10
1.183157003636504e-10
-5.244925195130906e-12
4.149998007843329e-11
3.426691228922871e-11
3.435891810026086e-11
4.552743805572807e-11
4.076869922099681e-11
5.400309361139455e-11
4.968714479636685e-11
6.231027942627128e-11
5.739074466410843e-11
6.934282532837725e-11
6.595846062123632e-11
7.488061612260172e-11
7.352482245287823e-11
8.103761499261066e-11
7.999539804407694e-11
8.68850551528491e-11
8.679599994868662e-11
9.273858630989575e-11
9.316652926490297e-11
9.778326791300402e-11
9.925662338425633e-11
1.034694586516801e-10
1.044798319000416e-10
1.092938450873378e-10
1.105931444549712e-10
1.138694581452974e-10
1.164687103407344e-10
1.197126018529884e-10
1.210285935235861e-10
1.252933507698102e-10
1.268678760134627e-10
1.295912906385147e-10
1.324504571158317e-10
1.352014872418074e-10
1.364756787341292e-10
1.400927642586768e-10
1.416271138722985e-10
1.43670036825192e-10
1.461458055381589e-10
1.48243388622122e-10
1.492979694880689e-10
1.523095272612375e-10
1.53550818350602e-10
1.551992401113564e-10
1.572283620791046e-10
1.590823061605453e-10
1.602968653330725e-10
1.630270276325051e-10
1.646071033018442e-10
1.671305058260569e-10
1.700520533674436e-10
1.730236797268713e-10
1.762176762536338e-10
1.825828025529729e-10
1.90040326528165e-10
1.845395629589706e-10
1.1906784645963e-10
-6.175337469194707e-12
4.083178537017654e-11
3.459596566345301e-11
3.403388595094945e-11
4.563907499021498e-11
4.070746160818488e-11
5.401016021255155e-11
4.969215778269298e-11
6.231441806411069e-11
5.73938714994771e-11
6.932297308244953e-11
6.599867492289477e-11
7.484857974918348e-11
7.354639263502334e-11
8.103022097121595e-11
8.000450112639984e-11
8.686957276438545e-11
8.68104081464352e-11
9.273236832882166e-11
9.31799346751293e-11
9.77667797378559e-11
9.926343797837346e-11
1.034729869578374e-10
1.044650479539156e-10
1.092942284499733e-10
1.106072968558514e-10
1.138492319306214e-10
1.164715931428814e-10
1.197264945440429e-10
1.210090780543522e-10
1.252944488633247e-10
1.268834232315744e-10
1.295746721127538e-10
1.324538582193662e-10
1.352227479170034e-10
1.36459277761575e-10
1.40093648668626e-10
1.416473968922718e-10
1.436595281517277e-10
1.461482786605308e-10
1.482590847350812e-10
1.492816120988996e-10
1.523143000076511e-10
1.535687119292944e-10
1.55189180221496e-10
1.572282063179083e-10
1.590929362803194e-10
1.602800902038544e-10
1.630230433139851e-10
1.646020035772889e-10
1.671046038296541e-10
1.700323756170256e-10
1.730080053200337e-10
1.76179178040827e-10
1.825504874974286e-10
1.902542526730721e-10
1.851803804836312e-10
1.198625433140602e-10
-7.139972007678962e-12
4.007374598035092e-11
3.493853330019061e-11
3.362992142251063e-11
4.5775362555912e-11
4.063223357563634e-11
5.401647372060214e-11
4.970198904211428e-11
6.232041633599798e-11
5.739879206567489e-11
6.929893360148338e-11
6.605275325624586e-11
7.480661475635837e-11
7.357628968024126e-11
8.102042718369628e-11
8.001617603295422e-11
8.685006141417358e-11
8.682925342651321e-11
9.272464034375705e-11
9.319927201198252e-11
9.774443934114361e-11
9.92728318979408e-11
1.034780977976185e-10
1.044457138334062e-10
1.09295401443469e-10
1.106274550293511e-10
1.138213067486605e-10
1.164769730468104e-10
1.19745303594565e-10
1.209833716347324e-10
1.252972852850007e-10
1.269045424558584e-10
1.295511905691272e-10
1.324601178666569e-10
1.35250296521584e-10
1.364374195106748e-10
1.40096169518104e-10
1.416743320596675e-10
1.436439033940936e-10
1.461529321194066e-10
1.482798440928631e-10
1.492605329134538e-10
1.52321212427586e-10
1.535923022996449e-10
1.551741945270299e-10
1.572282150019825e-10
1.591057735810386e-10
1.602571906371702e-10
1.63016481260126e-10
1.645940943135657e-10
1.670682817359352e-10
1.700054943178121e-10
1.72982100369222e-10
1.76127149734119e-10
1.82523818035202e-10
1.905061084368348e-10
1.858600719964441e-10
1.20776766236592e-10
-8.156109593132728e-12
3.911800139508979e-11
3.531132031872804e-11
3.31167447986637e-11
4.594395285974995e-11
4.053798920605129e-11
5.40225806486042e-11
4.97176861922364e-11
6.23299025180728e-11
5.740601564623923e-11
6.927017768416957e-11
6.612480178350272e-11
7.475269999251555e-11
7.361695707107581e-11
8.10072434209334e-11
8.003169251709786e-11
8.682548592588788e-11
8.685284826607056e-11
9.271628579747164e-11
9.32267821675108e-11
9.771326885358223e-11
9.928709466319159e-11
1.034852979367106e-10
1.044183911288027e-10
1.092987532312468e-10
1.106568910014504e-10
1.137818897297296e-10
1.164855199784813e-10
1.197711689905376e-10
1.209496491390704e-10
1.253026840708696e-10
1.269330268289887e-10
1.295184262879772e-10
1.324700362962374e-10
1.352861516697015e-10
1.364088579544285e-10
1.401005792344035e-10
1.417097818752724e-10
1.436214980296372e-10
1.461603077147909e-10
1.483072279516965e-10
1.492337695790774e-10
1.52330750718138e-10
1.536226647206233e-10
1.551521020271756e-10
1.572281944000797e-10
1.591209360099708e-10
1.602263914562992e-10
1.630052933387533e-10
1.645804165596426e-10
1.67017170067187e-10
1.699678874366859e-10
1.729398320331595e-10
1.760577940934037e-10
1.824987805097393e-10
1.90773635418311e-10
1.865931800402164e-10
1.219713703233291e-10
-9.286888661444087e-12
3.780234964573648e-11
3.574817480444184e-11
3.245647127948591e-11
4.615348660542096e-11
4.041813848476968e-11
5.403190316101921e-11
4.973839840398338e-11
6.234655024704233e-11
5.741548112818332e-11
6.9236270041787e-11
6.621819406293271e-11
7.468650921451259e-11
7.367005198163397e-11
8.09904252482981e-11
8.005245869534081e-11
8.679466559997712e-11
8.688055478860332e-11
9.270984556458563e-11
9.326517713280287e-11
9.76687532075614e-11
9.930942089538689e-11
1.034959196542194e-10
1.04378231723046e-10
1.093057887696787e-10
1.106999540784829e-10
1.137286938316146e-10
1.164958768784528e-10
1.198053368028402e-10
1.209071586395478e-10
1.253110207594463e-10
1.269712202957547e-10
1.294738165693202e-10
1.324835707414681e-10
1.353330468759363e-10
1.363732723254239e-10
1.401064465759602e-10
1.417560644625954e-10
1.435910778650472e-10
1.46170469991341e-10
1.483431632027777e-10
1.492009675518102e-10
1.523424568015029e-10
1.536613203685377e-10
1.551216045970231e-10
1.572277670671771e-10
1.59138923496197e-10
1.601856942317429e-10
1.62986467189779e-10
1.645583112302548e-10
1.669474019125247e-10
1.699150617977641e-10
1.728750196026767e-10
1.759690030655965e-10
1.824604309522791e-10
1.9101759418425e-10
1.874239736438111e-10
1.236906100182349e-10
-1.0625116299157e-11
3.593759783336571e-11
3.629006417482678e-11
3.161059669464929e-11
4.641150565234186e-11
4.026650912435141e-11
5.405031901155945e-11
4.976177424783997e-11
6.237664508048918e-11
5.742452608238832e-11
6.919829538955918e-11
6.63346096333493e-11
7.460932300508013e-11
7.373583618601852e-11
8.097149904165436e-11
8.00794732553661e-11
8.675798440020814e-11
8.691034256768112e-11
9.270795467283655e-11
9.331778288070772e-11
9.760595369672373e-11
9.93421575556018e-11
1.035154307126225e-10
1.043217219930392e-10
1.093132632738552e-10
1.107610327346819e-10
1.136620892696458e-10
1.165048775487882e-10
1.198488637479103e-10
1.208556816603861e-10
1.253214889082471e-10
1.270209402740454e-10
1.294152212106914e-10
1.325025490355632e-10
1.353939575720527e-10
1.363293551455479e-10
1.401137286713739e-10
1.418162956062193e-10
1.43551351745517e-10
1.461836640621959e-10
1.483896134121931e-10
1.491617483650901e-10
1.523563900861309e-10
1.537099992774313e-10
1.550812016298835e-10
1.572259019458553e-10
1.591601016618339e-10
1.601339592332196e-10
1.629585020387748e-10
1.645255214159636e-10
1.668549063109948e-10
1.698446951073776e-10
1.727827211094464e-10
1.758584709534721e-10
1.823837889020084e-10
1.911899876524148e-10
1.884146280490998e-10
1.262192570613462e-10
-1.223886914993895e-11
3.336314959657433e-11
3.696231799430245e-11
3.055332221748072e-11
4.672131805851832e-11
4.008002910493792e-11
5.408617026545453e-11
4.978344226422149e-11
6.242749313770547e-11
5.742837204741813e-11
6.916138044207886e-11
6.647273573541829e-11
7.452416546113507e-11
7.381050797741709e-11
8.09527392239119e-11
8.011601596021976e-11
8.671899797516732e-11
8.693749500647977e-11
9.271339699278791e-11
9.338533237133432e-11
9.75184366298984e-11
9.938945998863869e-11
1.035545511677808e-10
1.042479480127191e-10
1.093147788734914e-10
1.108377383928795e-10
1.135821141148776e-10
1.165126832267835e-10
1.199025909873611e-10
1.207962196679938e-10
1.253336725606179e-10
1.270838584104841e-10
1.293417221221686e-10
1.325277911157171e-10
1.354705128889537e-10
1.362773143513085e-10
1.401216050173351e-10
1.418937037172225e-10
1.435035918073694e-10
1.461990685841966e-10
1.484470846689827e-10
1.491177734840848e-10
1.523740793873261e-10
1.53769771440708e-10
1.550297890478673e-10
1.572208681496842e-10
1.591836547816384e-10
1.600720073544234e-10
1.629231637115656e-10
1.64480605833008e-10
1.667367347085887e-10
1.697566558149118e-10
1.726574381064267e-10
1.757238893184736e-10
1.822443963960839e-10
1.912430408761036e-10
1.896035423006676e-10
1.298046662703135e-10
-1.411023921886745e-11
3.000305444953821e-11
3.775017751583127e-11
2.928487062909922e-11
4.708336939101143e-11
3.985735543577584e-11
5.415009577813109e-11
4.979446678279182e-11
6.250408159142195e-11
5.742749194366273e-11
6.913421483593809e-11
6.662442579944363e-11
7.44384682516974e-11
7.388722940033379e-11
8.093282032511297e-11
8.017111114545771e-11
8.668084404971681e-11
8.695200742183534e-11
9.273609097979938e-11
9.346604714290803e-11
9.739412954351714e-11
9.946042555029059e-11
1.036264245909564e-10
1.041530738315224e-10
1.093054749524208e-10
1.109245374950455e-10
1.134904166671713e-10
1.165216561306163e-10
1.199640293002592e-10
1.207330974933137e-10
1.253476127737601e-10
1.271602960270551e-10
1.292576733284027e-10
1.325539151754603e-10
1.355586642952778e-10
1.362250412899642e-10
1.40127792606307e-10
1.419874094984277e-10
1.434551105030722e-10
1.462160672523421e-10
1.485121250020347e-10
1.49075769109545e-10
1.523977555234995e-10
1.538356383485792e-10
1.549705435708472e-10
1.57213545759526e-10
1.592058354354043e-10
1.600042832236796e-10
1.628792817485876e-10
1.64421856632899e-10
1.666003434948433e-10
1.696438259149687e-10
1.724886728288969e-10
1.755732894751825e-10
1.82030451851554e-10
1.91133978666175e-10
1.909605107926795e-10
1.345787354000928e-10
-1.612673043444513e-11
2.588806775899749e-11
3.859961007338197e-11
2.784792470617188e-11
4.749008278035516e-11
3.959411772826303e-11
5.42586612274384e-11
4.978682001713102e-11
6.26085246104742e-11
5.743249862751982e-11
6.9120037414305e-11
6.676857075311142e-11
7.437132120084358e-11
7.3963818913695e-11
8.090396539791019e-11
8.025867300392518e-11
8.663893047402721e-11
8.693508199395075e-11
9.279827658287012e-11
9.355941514346033e-11
9.72154209959877e-11
9.956672213569563e-11
1.037490880075665e-10
1.040409692131385e-10
1.092693378549743e-10
1.110083901931231e-10
1.133995647271743e-10
1.165343814799946e-10
1.200264178499253e-10
1.206722968734052e-10
1.253559123168292e-10
1.272437231293089e-10
1.29181838655809e-10
1.325770095506263e-10
1.356467280167649e-10
1.361848714786256e-10
1.401306281388995e-10
1.420882106419849e-10
1.434182198774917e-10
1.462401834212008e-10
1.485775017370836e-10
1.490453869550253e-10
1.524278223974208e-10
1.53895805806114e-10
1.549166808350265e-10
1.572042563245207e-10
1.592178002365221e-10
1.599449273511351e-10
1.628185661809666e-10
1.643439293749167e-10
1.664704833220565e-10
1.69497581116819e-10
1.722605372872125e-10
1.754248954417751e-10
1.817494727186752e-10
1.908333353115867e-10
1.92377913897457e-10
1.40501893282145e-10
-1.812720714066006e-11
2.114255975210805e-11
3.944638200091972e-11
2.632189808564153e-11
4.792331739394034e-11
3.928880673344307e-11
5.442790897964204e-11
4.97674573741486e-11
6.274103941095338e-11
5.744406962834352e-11
6.911502647907476e-11
6.688520018251246e-11
7.434666859605748e-11
7.404486574941217e-11
8.08580582240139e-11
8.038897741608144e-11
8.659026976703094e-11
8.686052267966434e-11
9.291427579690669e-11
9.367678504691217e-11
9.698287605141008e-11
9.970579594946303e-11
1.039051053725159e-10
1.039205401097728e-10
1.092207506869244e-10
1.110736501650937e-10
1.133160814916444e-10
1.165530610064239e-10
1.200759421629061e-10
1.2062442620823e-10
1.253562362541296e-10
1.273250626793432e-10
1.291317712490821e-10
1.325969215670148e-10
1.357238838553669e-10
1.361676571969401e-10
1.401348097865824e-10
1.421845671387272e-10
1.433996872779871e-10
1.462714022207703e-10
1.486385040364192e-10
1.490409685075254e-10
1.524592398628837e-10
1.539406434269079e-10
1.548847908239758e-10
1.571923123804757e-10
1.592118122432231e-10
1.599116907085156e-10
1.62734168040301e-10
1.642374523175256e-10
1.663720801949334e-10
1.693201685910627e-10
1.719590250122362e-10
1.752894718803634e-10
1.814078920052698e-10
1.903347314092875e-10
1.93721653255592e-10
1.473715328024582e-10
-1.994578327895353e-11
1.596840635095797e-11
4.0239702387839e-11
2.476598562141068e-11
4.837594888561521e-11
3.895283117522428e-11
5.465761355891873e-11
4.973962055916099e-11
6.289522107007195e-11
5.746135051219706e-11
6.911804687199285e-11
6.696977269808969e-11
7.437643779500085e-11
7.412922060365164e-11
8.079376395025207e-11
8.05707443189597e-11
8.655225369936524e-11
8.670463221305604e-11
9.305850816995342e-11
9.385278874135521e-11
9.67436470199544e-11
9.981109062021727e-11
1.040366825325253e-10
1.038271011009683e-10
1.091799084350417e-10
1.111242380108448e-10
1.132477694202368e-10
1.165693645358759e-10
1.201056620462049e-10
1.206011436881271e-10
1.253512257063814e-10
1.274003314735347e-10
1.291111257533836e-10
1.326140822504304e-10
1.35786510559698e-10
1.361789334825658e-10
1.401462817062089e-10
1.422719337687435e-10
1.43400508442552e-10
1.462943335873236e-10
1.486931393228967e-10
1.490812275300668e-10
1.524903551922359e-10
1.539665129035678e-10
1.548807084597941e-10
1.571802581867986e-10
1.591855346185509e-10
1.59914150981955e-10
1.62628549151667e-10
1.640929687691893e-10
1.66314262494174e-10
1.69120703298024e-10
1.715764285331875e-10
1.751645534824697e-10
1.810004260887406e-10
1.896485565302856e-10
1.948710776108045e-10
1.549059185392114e-10
-2.144942377388941e-11
1.065125950690134e-11
4.094581260272088e-11
2.321843169892352e-11
4.884829223787919e-11
3.860680648913677e-11
5.493594428197991e-11
4.968943083055148e-11
6.30658382113993e-11
5.749939949740331e-11
6.912346420288065e-11
6.702631848007406e-11
7.446207933638622e-11
7.419977166004685e-11
8.071249969823541e-11
8.081928981553826e-11
8.657002892880581e-11
8.647850680474581e-11
9.314096669743856e-11
9.40866987615146e-11
9.658471434202752e-11
9.981876112931764e-11
1.040882611036363e-10
1.038068588896681e-10
1.091571588910203e-10
1.111624758642276e-10
1.131967682996281e-10
1.165959060784274e-10
1.201240825096503e-10
1.205877464430656e-10
1.253403962197095e-10
1.274696827054382e-10
1.291163558514572e-10
1.326302208030192e-10
1.358358339361243e-10
1.362168885313939e-10
1.401663979628766e-10
1.423507914970685e-10
1.434186993937429e-10
1.463040360050685e-10
1.487409179277248e-10
1.49168748483411e-10
1.525269304369769e-10
1.539722631666562e-10
1.549008892333983e-10
1.571724127030356e-10
1.59138360193693e-10
1.599537471606599e-10
1.625142724324513e-10
1.639016836448195e-10
1.662909946772613e-10
1.689121699226223e-10
1.711099355393335e-10
1.750439850248029e-10
1.805327377469078e-10
1.888016012136173e-10
1.957316476620166e-10
1.62736501180761e-10
-2.255076765857921e-11
5.457692898249801e-12
4.155573856543193e-11
2.17285885152302e-11
4.933346510407817e-11
3.827060783802531e-11
5.525090282051587e-11
4.962091608758777e-11
6.325329993027205e-11
5.755932779532847e-11
6.912238185297721e-11
6.706038385446749e-11
7.460228119364332e-11
7.424557862950367e-11
8.060825058080244e-11
8.11249005067752e-11
8.66926470610331e-11
8.628002772531206e-11
9.30690862951535e-11
9.426263118848607e-11
9.655839679173751e-11
9.975984190733451e-11
1.040595603159121e-10
1.038593281065058e-10
1.091606363280138e-10
1.111897791972567e-10
1.131521369178646e-10
1.166383090899977e-10
1.201442966464635e-10
1.205775761611783e-10
1.253196418873473e-10
1.27533086989609e-10
1.291403376691515e-10
1.326479404339377e-10
1.358745602806656e-10
1.362769933693342e-10
1.401970878845279e-10
1.424223440746921e-10
1.434485637805773e-10
1.463081785897323e-10
1.487837964130172e-10
1.492925022447527e-10
1.525730214659991e-10
1.53957580759161e-10
1.549410744117089e-10
1.571745854405965e-10
1.590692910209743e-10
1.600273874527046e-10
1.624036573156629e-10
1.636560428553456e-10
1.66293268477038e-10
1.687017080468043e-10
1.705571000064581e-10
1.749261637140977e-10