/*--------------------------------*- C++ -*----------------------------------*\
| =========                 |                                                 |
| \\      /  F ield         | OpenFOAM: The Open Source CFD Toolbox           |
|  \\    /   O peration     | Version:  v1812                                 |
|   \\  /    A nd           | Web:      www.OpenFOAM.com                      |
|    \\/     M anipulation  |                                                 |
\*---------------------------------------------------------------------------*/
FoamFile
{
    version     2.0;
    format      ascii;
    class       surfaceScalarField;
    location    "20000";
    object      phi;
}
// * * * * * * * * * * * * * * * * * * * * * * * * * * * * * * * * * * * * * //

dimensions      [0 3 -1 0 0 0 0];
oriented        oriented;


internalField   nonuniform List<scalar> 
7417
(
-0.0009650274379830398
8.572033156493427e-14
-0.0009650274379419867
-4.105097467773418e-14
-0.0009650274379564665
1.449627230514001e-14
-0.0009650274379570154
5.614811043336236e-16
-0.0009650274379502848
-6.7236017988882e-15
-0.0009650274379582188
7.940311103796494e-15
-0.0009650274379485255
-9.696220098388254e-15
-0.000965027437956321
7.795576330233957e-15
-0.0009650274379470682
-9.24863484964038e-15
-0.0009650274379548247
7.778010526762099e-15
-0.0009650274379463022
-8.535769942039774e-15
-0.0009650274379524852
6.191778599081535e-15
-0.000965027437946533
-5.947116529773841e-15
-0.0009650274379507933
4.263250346577587e-15
-0.0009650274379462133
-4.580886971082118e-15
-0.0009650274379497597
3.542816499964636e-15
-0.0009650274379457823
-3.985323733935462e-15
-0.0009650274379483169
2.524812329895227e-15
-0.0009650274379449944
-3.330581381014776e-15
-0.0009650274379468934
1.892724332041993e-15
-0.0009650274379448024
-2.080710030639009e-15
-0.0009650274379456581
8.626617518804257e-16
-0.0009650274379438568
-1.79621646186734e-15
-0.0009650274379449538
1.104768078900597e-15
-0.0009650274379426541
-2.297462776702819e-15
-0.0009650274379434492
7.983687069518644e-16
-0.0009650274379422351
-1.213608733642639e-15
-0.000965027437941835
-3.991802867124489e-16
-0.0009650274379407246
-1.109570907172949e-15
-0.00096502743794117
4.462612080644782e-16
-0.0009650274379391898
-1.977225221394505e-15
-0.0009650274379394602
3.156030470862526e-16
-0.0009650274379385807
-9.284517637072944e-16
-0.0009650274379375997
-9.845379419593816e-16
-0.0009650274379365373
-1.06138315686719e-15
-0.0009650274379365811
4.823483855467862e-17
-0.0009650274379348197
-1.764975641142626e-15
-0.0009650274379345563
-2.601359148561481e-16
-0.000965027437933642
-9.144884323274324e-16
-0.0009650274379324235
-1.218132293977016e-15
-0.0009650274379314
-1.023865533523457e-15
-0.0009650274379310608
-3.118853501522366e-16
-0.0009650274379292301
-1.859253764801295e-15
-0.0009650274379285153
-7.166618109691386e-16
-0.0009650274379273142
-1.202019174513975e-15
-0.0009650274379258394
-1.475270667019981e-15
-0.000965027437924316
-1.526685084596952e-15
-0.0009650274379229397
-1.382611384999934e-15
-0.0009650274379201844
-2.752670624500827e-15
-0.0009650274379179175
-2.267736497720324e-15
-0.0009650274379143952
-3.523685082434473e-15
-0.0009650274379097615
-4.634110043935542e-15
-0.0009650274379037509
-6.010190108288306e-15
-0.0009650274378954315
-8.319007079439729e-15
-0.0009650274378836575
-1.177442236966437e-14
-0.0009650274378713565
-1.23034624467505e-14
-0.0009650274378661289
-5.229988756054473e-15
2.92749902395846e-14
-0.0009816819345264257
1.704046359254706e-13
-0.0009816819344851541
-8.232254585780481e-14
-0.0009816819345011025
3.046112094090906e-14
-0.0009816819344996889
-8.393428539784317e-16
-0.0009816819344938687
-1.253691006387183e-14
-0.0009816819345001226
1.42004689246433e-14
-0.000981681934490744
-1.907787421796048e-14
-0.0009816819344971785
1.422976459087392e-14
-0.000981681934488305
-1.811794826218151e-14
-0.0009816819344947089
1.420293754514203e-14
-0.000981681934486358
-1.689975132842943e-14
-0.0009816819344917532
1.159628895896079e-14
-0.0009816819344857235
-1.197156107864683e-14
-0.0009816819344893428
7.88561550018884e-15
-0.0009816819344848592
-9.065282222939963e-15
-0.0009816819344876499
6.329758217805918e-15
-0.0009816819344835989
-8.045611617125794e-15
-0.0009816819344855554
4.469821039129717e-15
-0.0009816819344820075
-6.887509293130627e-15
-0.000981681934483392
3.272240076545695e-15
-0.0009816819344810981
-4.365136991734957e-15
-0.000981681934481345
1.117571390677286e-15
-0.0009816819344793211
-3.814375937201362e-15
-0.0009816819344797697
1.562014562821919e-15
-0.0009816819344771034
-4.961175339797588e-15
-0.0009816819344773994
1.097370611824685e-15
-0.00098168193447571
-2.902400917494167e-15
-0.0009816819344746601
-1.448102702613586e-15
-0.0009816819344732435
-2.525114892200987e-15
-0.000981681934472926
1.297885550059425e-16
-0.0009816819344704989
-4.400676510984547e-15
-0.0009816819344702075
6.624260109609279e-17
-0.0009816819344687716
-2.410126887068117e-15
-0.0009816819344671554
-2.604924136473721e-15
-0.0009816819344657121
-2.503057284026162e-15
-0.0009816819344648086
-8.515160161097776e-16
-0.0009816819344625445
-4.031461021389517e-15
-0.0009816819344616722
-1.129028551747603e-15
-0.0009816819344599778
-2.609086488456712e-15
-0.0009816819344579814
-3.214724496136959e-15
-0.0009816819344564075
-2.598103564940586e-15
-0.000981681934454969
-1.725955542595534e-15
-0.0009816819344524792
-4.375895629559043e-15
-0.000981681934450905
-2.293335172975319e-15
-0.0009816819344486433
-3.464941385529788e-15
-0.0009816819344460198
-4.099422606306544e-15
-0.0009816819344434708
-4.079421616890517e-15
-0.0009816819344404407
-4.419882895276193e-15
-0.0009816819344361798
-7.011318103686334e-15
-0.0009816819344319362
-6.512211688222546e-15
-0.0009816819344261368
-9.324723684166015e-15
-0.0009816819344189132
-1.185796769437142e-14
-0.0009816819344103309
-1.459176220747944e-14
-0.0009816819343992408
-1.940824051687766e-14
-0.0009816819343862675
-2.474854788294116e-14
-0.0009816819343762223
-2.235148744619828e-14
-0.0009816819343860356
4.580589846940394e-15
8.495736536091034e-14
-0.001006458361448697
2.61360407487824e-13
-0.001006458361404549
-1.264679155491507e-13
-0.001006458361421224
4.715215416716935e-14
-0.001006458361418977
-3.07413923474179e-15
-0.001006458361412509
-1.899734185845807e-14
-0.001006458361418515
2.021227369056596e-14
-0.001006458361407899
-2.969589241876905e-14
-0.001006458361414591
2.092115784257113e-14
-0.001006458361404407
-2.829783750258379e-14
-0.001006458361411107
2.09225037950836e-14
-0.001006458361401444
-2.657405864687044e-14
-0.001006458361407314
1.747401727757823e-14
-0.001006458361400026
-1.925473590037506e-14
-0.001006458361403978
1.184050281212625e-14
-0.001006458361398535
-1.450933095997686e-14
-0.001006458361401351
9.141991944832346e-15
-0.001006458361396405
-1.299958013706018e-14
-0.001006458361398442
6.498552542161118e-15
-0.001006458361393973
-1.136334980499246e-14
-0.001006458361395256
4.549303873823763e-15
-0.001006458361392323
-7.288396317924999e-15
-0.001006458361392164
9.642153839372274e-16
-0.001006458361389462
-6.510873273442574e-15
-0.001006458361389626
1.73252555566346e-15
-0.001006458361386173
-8.411437534693469e-15
-0.001006458361386037
9.648589594529015e-16
-0.00100645836138381
-5.129041162734963e-15
-0.001006458361382139
-3.118404972883137e-15
-0.001006458361380163
-4.500388682945758e-15
-0.001006458361379414
-6.182757827383267e-16
-0.001006458361376352
-7.460504754763896e-15
-0.001006458361375564
-6.815187273289266e-16
-0.001006458361373723
-4.294164222722555e-15
-0.001006458361371485
-4.845897648460935e-15
-0.001006458361369497
-4.49030003119083e-15
-0.001006458361367889
-2.456015986336727e-15
-0.001006458361365097
-6.826923218514648e-15
-0.001006458361363614
-2.608202289974704e-15
-0.001006458361361242
-4.981829355248572e-15
-0.001006458361358546
-5.909792079013505e-15
-0.001006458361356444
-4.700535077167797e-15
-0.001006458361354165
-3.980706546507634e-15
-0.001006458361351082
-7.483826748728948e-15
-0.001006458361348766
-4.611513848163992e-15
-0.001006458361345738
-6.492873040945973e-15
-0.00100645836134227
-7.568146045653645e-15
-0.001006458361339073
-7.279666095147744e-15
-0.001006458361335061
-8.436822687233401e-15
-0.001006458361330202
-1.186791832446731e-14
-0.001006458361325431
-1.128386608505907e-14
-0.001006458361319498
-1.5259061454916e-14
-0.001006458361312718
-1.863784279289883e-14
-0.001006458361305924
-2.13865577137839e-14
-0.001006458361298618
-2.671382469317988e-14
-0.001006458361291101
-3.226511608161528e-14
-0.00100645836128396
-2.94948839208883e-14
-0.001006458361297374
1.799219297201935e-14
1.453451278420505e-13
-0.001028671780090574
3.516987719513017e-13
-0.001028671780048913
-1.68129236297741e-13
-0.001028671780063969
6.222461211141238e-14
-0.001028671780062162
-4.86840151895834e-15
-0.001028671780055081
-2.607071499370194e-14
-0.001028671780060981
2.611783335223387e-14
-0.001028671780049963
-4.071689082668523e-14
-0.001028671780056477
2.743500446338541e-14
-0.001028671780045931
-3.883991156495883e-14
-0.00102867178005244
2.744966306512938e-14
-0.001028671780042532
-3.649263547285641e-14
-0.001028671780048132
2.308313738182664e-14
-0.001028671780040672
-2.670977288700807e-14
-0.001028671780044379
1.555087953753865e-14
-0.00102867178003873
-2.015961675416122e-14
-0.001028671780041294
1.170176199809033e-14
-0.001028671780036188
-1.811540657803564e-14
-0.001028671780037945
8.243157927771977e-15
-0.001028671780033359
-1.595878149352592e-14
-0.001028671780034345
5.530569197009045e-15
-0.001028671780031252
-1.03722305588854e-14
-0.001028671780030791
5.11477775652164e-16
-0.001028671780027945
-9.350718164813771e-15
-0.001028671780027756
1.55333003424937e-15
-0.001028671780024208
-1.195709432433834e-14
-0.001028671780023738
4.97932026804431e-16
-0.001028671780021437
-7.428718348125146e-15
-0.0010286717800195
-5.054741476246916e-15
-0.001028671780017469
-6.529875042690356e-15
-0.001028671780016439
-1.647189687094453e-15
-0.001028671780013433
-1.046331548966004e-14
-0.00102867178001243
-1.647113119169983e-15
-0.001028671780010656
-6.109399895967387e-15
-0.001028671780008245
-7.260600936460453e-15
-0.001028671780006295
-6.43898164043759e-15
-0.001028671780004519
-4.228475946314561e-15
-0.001028671780001839
-9.508750700105884e-15
-0.001028671780000162
-4.282026850428377e-15
-0.001028671779997936
-7.207756184632777e-15
-0.001028671779995136
-8.709535172622756e-15
-0.001028671779993208
-6.628844325921264e-15
-0.001028671779990894
-6.273402894821511e-15
-0.001028671779988123
-1.02790865332215e-14
-0.001028671779985872
-6.865585528824811e-15
-0.001028671779983252
-9.113920620786678e-15
-0.001028671779979998
-1.082232576464068e-14
-0.001028671779977325
-9.957259006327945e-15
-0.001028671779973758
-1.201074741755524e-14
-0.001028671779969733
-1.589062151945417e-14
-0.001028671779965748
-1.527030440828836e-14
-0.00102867177996118
-1.982858219159459e-14
-0.001028671779955872
-2.394636811514137e-14
-0.001028671779951162
-2.609637805922528e-14
-0.001028671779946556
-3.131875767359371e-14
-0.001028671779940913
-3.790879271160671e-14
-0.001028671779931066
-3.934482280826292e-14
-0.001028671779941496
2.841922110808021e-14
2.04071812036639e-13
-0.001048020098250972
4.374250342804822e-13
-0.00104802009821604
-2.03058332064036e-13
-0.001048020098228327
7.452683678938948e-14
-0.001048020098227647
-5.537063527397274e-15
-0.001048020098219898
-3.381446212127753e-14
-0.001048020098226139
3.236442481375242e-14
-0.001048020098215217
-5.164064329764103e-14
-0.001048020098221517
3.373539491759477e-14
-0.001048020098211146
-4.920757626470733e-14
-0.001048020098217388
3.370478326777831e-14
-0.001048020098207853
-4.603512003130232e-14
-0.001048020098212861
2.809816523339571e-14
-0.001048020098206048
-3.351934174776101e-14
-0.001048020098209238
1.874232777737895e-14
-0.001048020098203903
-2.549543427549399e-14
-0.001048020098206233
1.402899397729578e-14
-0.001048020098201482
-2.28727746773545e-14
-0.001048020098202746
9.501135722052198e-15
-0.001048020098198762
-1.994893196742994e-14
-0.001048020098199383
6.147122246791305e-15
-0.001048020098196514
-1.323346879884566e-14
-0.001048020098196016
1.804219019989823e-17
-0.001048020098193464
-1.189881867921485e-14
-0.001048020098192944
1.038952589257057e-15
-0.001048020098189971
-1.492744300126224e-14
-0.001048020098189274
-1.957313235397381e-16
-0.001048020098187232
-9.470838495121965e-15
-0.001048020098185456
-6.829522823400028e-15
-0.001048020098183772
-8.213305416038891e-15
-0.001048020098182575
-2.843128159091048e-15
-0.001048020098180218
-1.281931403845259e-14
-0.001048020098179229
-2.606461868809284e-15
-0.001048020098177802
-7.567680592841915e-15
-0.001048020098175648
-9.417345704086426e-15
-0.001048020098174276
-7.810032261349376e-15
-0.00104802009817288
-5.621724167935507e-15
-0.001048020098170769
-1.16221109897759e-14
-0.001048020098169219
-5.829850173006984e-15
-0.00104802009816784
-8.586610307658182e-15
-0.00104802009816536
-1.118906342088706e-14
-0.001048020098164054
-7.935174542038789e-15
-0.001048020098162401
-7.908484623782144e-15
-0.001048020098160454
-1.224340448226053e-14
-0.001048020098158743
-8.578012998293441e-15
-0.001048020098157347
-1.051020377562795e-14
-0.001048020098154865
-1.330458159732554e-14
-0.001048020098153218
-1.160681746370385e-14
-0.001048020098150757
-1.447427492554276e-14
-0.001048020098147909
-1.873707691643299e-14
-0.001048020098144792
-1.83880022895266e-14
-0.00104802009814158
-2.304212567253852e-14
-0.001048020098137032
-2.849489691106293e-14
-0.001048020098133002
-3.012597568402658e-14
-0.001048020098129038
-3.528330097718665e-14
-0.00104802009812308
-4.386720874831263e-14
-0.001048020098109776
-5.264956781685858e-14
-0.001048020098114437
3.307851568961721e-14
2.549069662689574e-13
-0.001067164317162443
5.102176477390623e-13
-0.001067164317139597
-2.259062248021964e-13
-0.001067164317148229
8.31725420948362e-14
-0.001067164317148684
-5.070767869304603e-15
-0.00106716431714098
-4.151207419992477e-14
-0.001067164317146906
3.829516178806922e-14
-0.00106716431713713
-6.141948503954903e-14
-0.001067164317142492
3.909688240056136e-14
-0.001067164317133312
-5.838518483638736e-14
-0.00106716431713866
3.906638034555965e-14
-0.001067164317130338
-5.436477373960561e-14
-0.001067164317134376
3.214410500064846e-14
-0.00106716431712883
-3.906133257973715e-14
-0.001067164317131264
2.11787632208222e-14
-0.001067164317126804
-2.995689269968573e-14
-0.001067164317128704
1.59248322117751e-14
-0.001067164317124754
-2.683250104884849e-14
-0.001067164317125452
1.018907403779597e-14
-0.00106716431712243
-2.297923534195898e-14
-0.001067164317122686
6.399614487083157e-15
-0.001067164317120414
-1.549795098637424e-14
-0.001067164317119915
-4.737058163452101e-16
-0.001067164317117996
-1.381228757169317e-14
-0.001067164317117245
2.969677984204973e-16
-0.001067164317115126
-1.704404059861815e-14
-0.001067164317114308
-1.010159124897232e-15
-0.001067164317112759
-1.101929600071059e-14
-0.001067164317111211
-8.375950246786903e-15
-0.001067164317110135
-9.288408052375489e-15
-0.001067164317108928
-4.049807000703017e-15
-0.001067164317107389
-1.435462216184664e-14
-0.001067164317106548
-3.421138593650278e-15
-0.001067164317105674
-8.470935699224137e-15
-0.001067164317103927
-1.116880434012541e-14
-0.001067164317103368
-8.36678156339894e-15
-0.001067164317102472
-6.515295627237874e-15
-0.001067164317101122
-1.297195302153867e-14
-0.001067164317099908
-7.042088099199177e-15
-0.001067164317099481
-9.0133902994674e-15
-0.001067164317097486
-1.318456580250736e-14
-0.00106716431709696
-8.461230820151421e-15
-0.001067164317096078
-8.776563695268984e-15
-0.001067164317095067
-1.327140497930843e-14
-0.001067164317094035
-9.612301889327468e-15
-0.001067164317093915
-1.063163017205492e-14
-0.00106716431709234
-1.487980413023169e-14
-0.001067164317091864
-1.208732658624334e-14
-0.001067164317090628
-1.571568924590246e-14
-0.001067164317089102
-2.026275049163822e-14
-0.001067164317087014
-2.047649894038565e-14
-0.001067164317085197
-2.486064697787564e-14
-0.001067164317081538
-3.215403174914481e-14
-0.00106716431707826
-3.340326468764306e-14
-0.001067164317074575
-3.896761095256254e-14
-0.001067164317069162
-4.928074076938527e-14
-0.001067164317055907
-6.590686009405479e-14
-0.001067164317054357
3.15265106686348e-14
2.901915618680515e-13
-0.001093208140023038
5.588148494221801e-13
-0.001093208140014306
-2.346364933801409e-13
-0.001093208140020464
8.934235960826423e-14
-0.00109320814002066
-4.866901943555151e-15
-0.001093208140014585
-4.758251045722711e-14
-0.001093208140018768
4.248242101742252e-14
-0.001093208140011047
-6.914144922321024e-14
-0.0010932081400147
4.274953110747894e-14
-0.001093208140007484
-6.559883548891581e-14
-0.001093208140011341
4.293032014808126e-14
-0.001093208140004701
-6.100810048018638e-14
-0.001093208140007615
3.506157365987691e-14
-0.001093208140003409
-4.326520911973511e-14
-0.001093208140005024
2.279527707347933e-14
-0.001093208140001736
-3.324627644533717e-14
-0.001093208140002957
1.714290159057333e-14
-0.001093208139999971
-2.982160998411333e-14
-0.001093208140000197
1.041261563868069e-14
-0.001093208139998039
-2.5141031807118e-14
-0.001093208139998008
6.364921263722751e-15
-0.00109320813999652
-1.698121654718926e-14
-0.001093208139995862
-1.128973594800953e-15
-0.001093208139994666
-1.500566233125063e-14
-0.001093208139993815
-5.504959122864961e-16
-0.001093208139992406
-1.845108113127891e-14
-0.001093208139991562
-1.851713369927958e-15
-0.001093208139990611
-1.196950075566764e-14
-0.001093208139989073
-9.912670501628775e-15
-0.001093208139988609
-9.75222578760013e-15
-0.00109320813998756
-5.098845954249327e-15
-0.001093208139986643
-1.527110706167467e-14
-0.001093208139985946
-4.101650065064852e-15
-0.001093208139985748
-8.686040722735549e-15
-0.001093208139984314
-1.260390969186559e-14
-0.001093208139984455
-8.225333480432382e-15
-0.001093208139983873
-7.096135186596555e-15
-0.001093208139983237
-1.36093933341368e-14
-0.001093208139982446
-7.831615014242586e-15
-0.001093208139982663
-8.796130019971373e-15
-0.00109320813998114
-1.470718154675533e-14
-0.001093208139981355
-8.246846636882277e-15
-0.00109320813998095
-9.170727703056126e-15
-0.001093208139980764
-1.346705781814846e-14
-0.001093208139980396
-9.980875500935285e-15
-0.001093208139981111
-9.915929735640489e-15
-0.001093208139980347
-1.564419709316526e-14
-0.001093208139981016
-1.14194289949711e-14
-0.001093208139980785
-1.594797512359712e-14
-0.001093208139980576
-2.047167572137895e-14
-0.001093208139979732
-2.132023256108324e-14
-0.001093208139979321
-2.527176358819911e-14
-0.001093208139977071
-3.440504045162784e-14
-0.001093208139975376
-3.509899892316367e-14
-0.001093208139972562
-4.178137051775941e-14
-0.001093208139969276
-5.256635718768865e-14
-0.001093208139960705
-7.447914229564418e-14
-0.001093208139957423
2.824353338163964e-14
3.072392811207171e-13
-0.001138714845885517
5.771243548544063e-13
-0.00113871484588708
-2.330753973097352e-13
-0.001138714845893409
9.568160660144361e-14
-0.001138714845891654
-6.6135874810218e-15
-0.001138714845888133
-5.109958172624104e-14
-0.001138714845889968
4.432112797614734e-14
-0.001138714845884379
-7.473319876780875e-14
-0.001138714845886262
4.463164226413414e-14
-0.001138714845880924
-7.093465589908173e-14
-0.001138714845883289
4.530248117910419e-14
-0.001138714845878147
-6.615408421824571e-14
-0.00113871484588006
3.697913116666964e-14
-0.001138714845876911
-4.641051644384516e-14
-0.001138714845877833
2.371756004311803e-14
-0.001138714845875569
-3.551221816975104e-14
-0.00113871484587613
1.770016583703246e-14
-0.001138714845873975
-3.198379679013695e-14
-0.001138714845873831
1.02607251325232e-14
-0.001138714845872309
-2.666984015981989e-14
-0.001138714845872072
6.126210655652138e-15
-0.001138714845871262
-1.778595064079486e-14
-0.001138714845870377
-2.00891268185706e-15
-0.001138714845869804
-1.55731689255203e-14
-0.001138714845868872
-1.47674893202174e-15
-0.001138714845867942
-1.937760551954638e-14
-0.001138714845867115
-2.676617983633276e-15
-0.00113871484586669
-1.239329048032033e-14
-0.001138714845865093
-1.150843516784517e-14
-0.0011387148458651
-9.744574075111986e-15
-0.001138714845864144
-6.054051470485446e-15
-0.001138714845863668
-1.574468899623111e-14
-0.001138714845863061
-4.693725697610217e-15
-0.001138714845863405
-8.358920313372108e-15
-0.001138714845862189
-1.382324863715681e-14
-0.00113871484586282
-7.591920424974051e-15
-0.001138714845862365
-7.549143982051268e-15
-0.001138714845862302
-1.367282975139681e-14
-0.001138714845861862
-8.269325265139224e-15
-0.001138714845862469
-8.188984285461826e-15
-0.001138714845861314
-1.586265908018057e-14
-0.001138714845862096
-7.465739018921973e-15
-0.001138714845861936
-9.322776406777803e-15
-0.001138714845862386
-1.302798840195991e-14
-0.001138714845862539
-9.829540625464157e-15
-0.001138714845863802
-8.653961130982627e-15
-0.001138714845863645
-1.580240085186157e-14
-0.001138714845865189
-9.87831327331632e-15
-0.001138714845865688
-1.545273107542606e-14
-0.001138714845866544
-1.96162477798236e-14
-0.001138714845866784
-2.108033313235351e-14
-0.001138714845867538
-2.451980376091538e-14
-0.00113871484586667
-3.527297616667764e-14
-0.001138714845866697
-3.507141987752421e-14
-0.001138714845865131
-4.334605670915708e-14
-0.001138714845864183
-5.351464577178927e-14
-0.001138714845861947
-7.671668109600095e-14
-0.001138714845862994
2.928853648073858e-14
3.114460142917479e-13
-0.001221281651793376
5.687399814082908e-13
-0.001221281651800199
-2.26250540551093e-13
-0.00122128165180827
1.037603284030672e-13
-0.001221281651804124
-1.075421836905192e-14
-0.001221281651802826
-5.239509244568287e-14
-0.001221281651802738
4.423629464712702e-14
-0.001221281651798678
-7.87931706549147e-14
-0.001221281651799262
4.521539411770212e-14
-0.001221281651795159
-7.503630316910364e-14
-0.00122128165179647
4.66159521685042e-14
-0.001221281651792289
-7.033636471855061e-14
-0.001221281651793508
3.820078056067169e-14
-0.001221281651791036
-4.888237333494016e-14
-0.00122128165179149
2.417206278133601e-14
-0.00122128165178989
-3.711276383095894e-14
-0.001221281651789997
1.780516605939057e-14
-0.001221281651788423
-3.35593734013376e-14
-0.001221281651787982
9.819428931462661e-15
-0.001221281651786887
-2.776624468657755e-14
-0.001221281651786523
5.760109729416048e-15
-0.001221281651786186
-1.811978857075393e-14
-0.001221281651785102
-3.092472668901551e-15
-0.001221281651785005
-1.566863828767346e-14
-0.001221281651783944
-2.535944589793344e-15
-0.001221281651783343
-1.997756510806113e-14
-0.001221281651782534
-3.483093550258896e-15
-0.00122128165178248
-1.244641705119122e-14
-0.001221281651780805
-1.318280268705937e-14
-0.001221281651781191
-9.358320490957493e-15
-0.001221281651780224
-7.021166628618326e-15
-0.001221281651780064
-1.590486028227637e-14
-0.001221281651779533
-5.217274477346422e-15
-0.001221281651780237
-7.66205966249796e-15
-0.001221281651779121
-1.493945226983399e-14
-0.001221281651780119
-6.594589696864211e-15
-0.001221281651779744
-7.92245242574561e-15
-0.001221281651780109
-1.33097978395675e-14
-0.001221281651779893
-8.484459961872636e-15
-0.001221281651780791
-7.290566784193676e-15
-0.001221281651779886
-1.676735045851664e-14
-0.001221281651781063
-6.28820631089705e-15
-0.00122128165178106
-9.320706180041765e-15
-0.001221281651781966
-1.21261826912856e-14
-0.001221281651782471
-9.324214683444642e-15
-0.001221281651784148
-6.976999827108812e-15
-0.001221281651784449
-1.550130043522067e-14
-0.001221281651786631
-7.695884427778709e-15
-0.00122128165178765
-1.443456108663148e-14
-0.001221281651789268
-1.799729571898202e-14
-0.001221281651790266
-2.008227863974391e-14
-0.001221281651791876
-2.291044753969169e-14
-0.001221281651792035
-3.511419276958365e-14
-0.001221281651793359
-3.37479912766265e-14
-0.001221281651792901
-4.38046150472705e-14
-0.001221281651793651
-5.276471603170104e-14
-0.001221281651796592
-7.377554407081224e-14
-0.001221281651804017
3.671297806160115e-14
3.092146413322271e-13
-0.001362018105776216
5.432695617329578e-13
-0.001362018105785895
-2.165746398558653e-13
-0.001362018105795515
1.133880739550645e-13
-0.001362018105789716
-1.654707691995333e-14
-0.001362018105789593
-5.251597715661416e-14
-0.001362018105788444
4.309020818966247e-14
-0.001362018105785034
-8.220461504498763e-14
-0.001362018105784926
4.510560197059061e-14
-0.001362018105781282
-7.867906263561577e-14
-0.001362018105782124
4.746184028585377e-14
-0.001362018105778224
-7.423852467636485e-14
-0.001362018105779154
3.913384734608921e-14
-0.001362018105776981
-5.105366389846232e-14
-0.001362018105777201
2.439159036193718e-14
-0.001362018105775935
-3.838050863944092e-14
-0.00136201810577583
1.769618908597416e-14
-0.00136201810577455
-3.484556057659244e-14
-0.001362018105773914
9.177405561397213e-15
-0.001362018105773081
-2.860387078140507e-14
-0.001362018105772635
5.313242815636079e-15
-0.001362018105772632
-1.811961134260491e-14
-0.001362018105771404
-4.316410373536969e-15
-0.001362018105771638
-1.542989935346284e-14
-0.001362018105770453
-3.715561062989864e-15
-0.001362018105770072
-2.035640780548823e-14
-0.001362018105769248
-4.303880703425368e-15
-0.001362018105769478
-1.221546905524244e-14
-0.001362018105767695
-1.496465508776616e-14
-0.001362018105768403
-8.649664079919472e-15
-0.001362018105767398
-8.024735974754448e-15
-0.001362018105767441
-1.586060841848655e-14
-0.001362018105766993
-5.657688528236293e-15
-0.001362018105767987
-6.677634972798189e-15
-0.001362018105766859
-1.606846926243667e-14
-0.001362018105768193
-5.260200333972805e-15
-0.001362018105767908
-8.205734855846455e-15
-0.001362018105768561
-1.265543657348549e-14
-0.001362018105768514
-8.530129143660581e-15
-0.001362018105769688
-6.117103146291065e-15
-0.001362018105768886
-1.756923431249377e-14
-0.001362018105770404
-4.771347493091797e-15
-0.001362018105770543
-9.177502578962711e-15
-0.001362018105771746
-1.093023384516814e-14
-0.001362018105772522
-8.548696427116748e-15
-0.001362018105774588
-4.912508649718999e-15
-0.001362018105775229
-1.486043519380494e-14
-0.001362018105777929
-4.998991511185862e-15
-0.001362018105779341
-1.302459532604372e-14
-0.001362018105781472
-1.586757707125613e-14
-0.001362018105782968
-1.85868406002436e-14
-0.00136201810578516
-2.071917043983466e-14
-0.00136201810578595
-3.432422991867282e-14
-0.001362018105788065
-3.163336978607304e-14
-0.001362018105788264
-4.360413888410266e-14
-0.001362018105789992
-5.103727065754268e-14
-0.00136201810579635
-6.741809715650747e-14
-0.001362018105808236
4.859799275859685e-14
3.026621070855307e-13
-0.001581513916381548
5.14069380940641e-13
-0.001581513916393758
-2.043625733346855e-13
-0.001581513916403558
1.231942136379484e-13
-0.001581513916397592
-2.250892947051932e-14
-0.001581513916397188
-5.291824981138811e-14
-0.001581513916396067
4.19716458735302e-14
-0.001581513916392234
-8.603735573290419e-14
-0.001581513916392132
4.50037893390561e-14
-0.00158151391638812
-8.268990827002826e-14
-0.001581513916389117
4.845923007042447e-14
-0.001581513916384788
-7.856779224941841e-14
-0.001581513916385896
4.024279821228406e-14
-0.001581513916383624
-5.332552538498109e-14
-0.001581513916383864
2.463090067114601e-14
-0.001581513916382672
-3.957283467137936e-14
-0.001581513916382584
1.760689647520921e-14
-0.001581513916381336
-3.609457953281614e-14
-0.001581513916380645
8.487381120716851e-15
-0.001581513916379899
-2.935110414494471e-14
-0.001581513916379437
4.850541977630906e-15
-0.0015815139163797
-1.785571546069398e-14
-0.001581513916378361
-5.65500935938947e-15
-0.00158151391637884
-1.494992238123705e-14
-0.001581513916377565
-4.989556722960436e-15
-0.001581513916377306
-2.061363060709368e-14
-0.001581513916376461
-5.147901653844897e-15
-0.001581513916376969
-1.170675015597747e-14
-0.001581513916375017
-1.691560038177092e-14
-0.001581513916376041
-7.625587673801805e-15
-0.001581513916375012
-9.052839254588209e-15
-0.00158151391637517
-1.570402054255948e-14
-0.001581513916374836
-5.988209075971108e-15
-0.001581513916376124
-5.39244612848967e-15
-0.001581513916374895
-1.729671445474895e-14
-0.001581513916376582
-3.573435781352651e-15
-0.001581513916376408
-8.379229999789612e-15
-0.001581513916377254
-1.181078024755332e-14
-0.001581513916377376
-8.407531020524888e-15
-0.001581513916378833
-4.660668109736081e-15
-0.001581513916378012
-1.838922141962022e-14
-0.001581513916379864
-2.919919134917033e-15
-0.001581513916380149
-8.889322450887533e-15
-0.001581513916381536
-9.544406816988552e-15
-0.001581513916382571
-7.513274181236943e-15
-0.001581513916385033
-2.449816913057258e-15
-0.00158151391638592
-1.397421464848167e-14
-0.001581513916389055
-1.863335305802126e-15
-0.001581513916390741
-1.133783372080943e-14
-0.001581513916393205
-1.340422698936975e-14
-0.001581513916395002
-1.678922593678476e-14
-0.001581513916397512
-1.820912617505695e-14
-0.001581513916398526
-3.331118852196582e-14
-0.001581513916400902
-2.925753606169178e-14
-0.001581513916401125
-4.338140985784139e-14
-0.001581513916403109
-4.905335070369364e-14
-0.001581513916411002
-5.952550963878082e-14
-0.001581513916422883
6.047969010605891e-14
2.905483607191144e-13
-0.001892837229813872
4.979908889744481e-13
-0.001892837229827821
-1.904152827413635e-13
-0.001892837229836009
1.313880136433906e-13
-0.001892837229831932
-2.658162864207533e-14
-0.001892837229829367
-5.54815544294746e-14
-0.001892837229829662
4.226898936035567e-14
-0.001892837229824074
-9.16263330299651e-14
-0.001892837229824884
4.581294657765376e-14
-0.001892837229819535
-8.803954996212476e-14
-0.001892837229821406
5.033225327502742e-14
-0.001892837229815912
-8.406335330285586e-14
-0.001892837229817728
4.206013695067301e-14
-0.001892837229814911
-5.614226293870085e-14
-0.001892837229815522
2.524142680595699e-14
-0.001892837229814139
-4.095827343942321e-14
-0.001892837229814315
1.777926858506744e-14
-0.001892837229812901
-3.751368892211216e-14
-0.001892837229812317
7.899553152421609e-15
-0.001892837229811474