/*--------------------------------*- C++ -*----------------------------------*\
| =========                 |                                                 |
| \\      /  F ield         | OpenFOAM: The Open Source CFD Toolbox           |
|  \\    /   O peration     | Version:  v1812                                 |
|   \\  /    A nd           | Web:      www.OpenFOAM.com                      |
|    \\/     M anipulation  |                                                 |
\*---------------------------------------------------------------------------*/
FoamFile
{
    version     2.0;
    format      ascii;
    class       volVectorField;
    location    "20000";
    object      U;
}
// * * * * * * * * * * * * * * * * * * * * * * * * * * * * * * * * * * * * * //

dimensions      [0 1 -1 0 0 0 0];


internalField   nonuniform List<vector> 
3770
(
(-1.018509536545661 2.245045683073786e-12 -8.375184256146861e-07)
(-1.018509536528441 -1.250973526016465e-12 -8.375181860782559e-07)
(-1.018509536530997 4.953904978664914e-13 -8.375152689261716e-07)
(-1.0185095365378 -3.070730988942891e-14 -8.375182185999039e-07)
(-1.018509536530247 -1.694276460543479e-13 -8.375152479162413e-07)
(-1.018509536535566 2.381119372628359e-13 -8.37517991674457e-07)
(-1.018509536531179 -2.759645665323867e-13 -8.375152371669678e-07)
(-1.018509536531923 2.480362740567799e-13 -8.375178247082429e-07)
(-1.018509536530811 -2.727805310721299e-13 -8.375151676585595e-07)
(-1.018509536529226 2.51142101840186e-13 -8.37517712841257e-07)
(-1.018509536530749 -2.539988234784512e-13 -8.375150602322987e-07)
(-1.018509536526214 2.01562412953622e-13 -8.375176364568068e-07)
(-1.018509536531063 -1.780858001572925e-13 -8.37514931765599e-07)
(-1.018509536524266 1.392876093208062e-13 -8.37517582393549e-07)
(-1.018509536530724 -1.391407787950241e-13 -8.375147939277295e-07)
(-1.018509536523142 1.197851724585128e-13 -8.375175415391167e-07)
(-1.018509536530328 -1.172724016590185e-13 -8.37514655280521e-07)
(-1.01850953652174 8.991431598232075e-14 -8.375175074942625e-07)
(-1.018509536529607 -9.469259798853312e-14 -8.375145221150866e-07)
(-1.018509536520136 6.346325383108117e-14 -8.375174760307553e-07)
(-1.01850953652921 -6.050562736485843e-14 -8.375143988686902e-07)
(-1.018509536519103 4.015215222767984e-14 -8.375174447036465e-07)
(-1.018509536528053 -5.060791446891727e-14 -8.375142885237936e-07)
(-1.018509536518422 4.112914521036586e-14 -8.375174124083598e-07)
(-1.018509536526932 -6.021881813337266e-14 -8.375141930235156e-07)
(-1.018509536516702 3.403028064034112e-14 -8.375173790059825e-07)
(-1.018509536526496 -2.90395479704589e-14 -8.375141135413284e-07)
(-1.018509536515313 1.46228781813776e-15 -8.375173450249167e-07)
(-1.018509536524685 -2.703616047345216e-14 -8.375140506988719e-07)
(-1.018509536514661 2.481811489263368e-14 -8.375173113529195e-07)
(-1.018509536523197 -4.950578418147839e-14 -8.375140047341276e-07)
(-1.018509536512747 1.959211034470103e-14 -8.375172789815088e-07)
(-1.018509536522411 -1.683009623067422e-14 -8.37513975491709e-07)
(-1.018509536511218 -1.449158854976268e-14 -8.375172488054236e-07)
(-1.018509536520234 -2.258680316999554e-14 -8.375139623568721e-07)
(-1.018509536510144 1.422943416787816e-14 -8.375172213116077e-07)
(-1.018509536518287 -4.307576806818116e-14 -8.375139641076972e-07)
(-1.01850953650801 6.921833455471014e-15 -8.375171962683185e-07)
(-1.018509536517065 -1.227343705059659e-14 -8.375139785897491e-07)
(-1.018509536506092 -2.1167661031593e-14 -8.375171722635265e-07)
(-1.018509536514497 -1.87306087432816e-14 -8.375140022413481e-07)
(-1.018509536504641 8.118552293902384e-15 -8.375171461305499e-07)
(-1.018509536512295 -4.007942203227487e-14 -8.375140294085856e-07)
(-1.018509536502222 -2.635531275768999e-15 -8.375171120845384e-07)
(-1.018509536510228 -1.888656372068424e-14 -8.375140513807813e-07)
(-1.018509536499649 -2.301956628906453e-14 -8.375170605237677e-07)
(-1.018509536507013 -2.26654024348814e-14 -8.375140549127379e-07)
(-1.018509536496967 -9.642193746387713e-15 -8.375169762377205e-07)
(-1.018509536503118 -5.12106443628115e-14 -8.375140200128283e-07)
(-1.018509536492294 -2.484620801319922e-14 -8.375168353196113e-07)
(-1.018509536497575 -5.532212611178015e-14 -8.375139135174888e-07)
(-1.018509536485009 -7.508216426900589e-14 -8.375165936714558e-07)
(-1.018509536487925 -1.040226121300052e-13 -8.375136932522911e-07)
(-1.01850953647295 -1.53577842887149e-13 -8.375162296232847e-07)
(-1.018509536468925 -2.610173908494772e-13 -8.375131572029377e-07)
(-1.018509536445248 -3.352054826661337e-13 -8.3751465577829e-07)
(-1.01850953643582 -3.635338341579123e-13 -8.375125208048237e-07)
(-1.018509536447582 3.977961903802987e-13 -8.375192865946177e-07)
(-1.035959589176175 5.672154693613859e-12 -1.736015857994755e-06)
(-1.035959589135439 -2.570783797620669e-12 -1.736018750348563e-06)
(-1.03595958915044 8.708109750344396e-13 -1.736013451843099e-06)
(-1.035959589151121 7.453636622080847e-14 -1.736018789284443e-06)
(-1.035959589145746 -4.516738411620314e-13 -1.736013193419286e-06)
(-1.035959589149089 5.011066864156917e-13 -1.736018518155648e-06)
(-1.035959589145439 -6.118389540694783e-13 -1.736013018039045e-06)
(-1.035959589143646 4.735015632990208e-13 -1.736018273017294e-06)
(-1.035959589144668 -5.764610560782343e-13 -1.736012795459546e-06)
(-1.035959589139279 4.715182270699376e-13 -1.736018091967746e-06)
(-1.035959589144166 -5.346274941705319e-13 -1.736012526859497e-06)
(-1.035959589134426 3.761127315430384e-13 -1.736017960786281e-06)
(-1.035959589144694 -3.679572407649622e-13 -1.736012231888053e-06)
(-1.03595958913075 2.514285706697203e-13 -1.736017861036591e-06)
(-1.035959589144376 -2.839548482477966e-13 -1.73601192896515e-06)
(-1.035959589128572 2.133395758974272e-13 -1.736017777895638e-06)
(-1.035959589143545 -2.474068719101688e-13 -1.736011632412326e-06)
(-1.035959589125984 1.538326042522833e-13 -1.736017700930951e-06)
(-1.035959589142499 -2.061831831073639e-13 -1.736011352578609e-06)
(-1.035959589123108 1.019074463440258e-13 -1.736017623667922e-06)
(-1.035959589141665 -1.318369705561545e-13 -1.736011096451641e-06)
(-1.035959589121148 5.115177949995666e-14 -1.736017542844936e-06)
(-1.03595958913966 -1.151954242552386e-13 -1.736010868532268e-06)
(-1.035959589119539 5.660449322086765e-14 -1.736017457484539e-06)
(-1.035959589137675 -1.475426571803819e-13 -1.736010671642576e-06)
(-1.035959589116584 4.472109368720549e-14 -1.73601736825159e-06)
(-1.035959589136499 -7.943782688742906e-14 -1.736010507381401e-06)
(-1.035959589114017 -3.430729417979035e-14 -1.736017276938787e-06)
(-1.03595958913346 -7.425778585820634e-14 -1.73601037657635e-06)
(-1.035959589112472 1.850646550462604e-14 -1.73601718588587e-06)
(-1.035959589130716 -1.322566494693173e-13 -1.736010279581427e-06)
(-1.035959589109282 9.660194897720166e-15 -1.736017097639472e-06)
(-1.035959589128946 -5.963990967340208e-14 -1.736010216203292e-06)
(-1.03595958910653 -6.924452763456702e-14 -1.736017014643026e-06)
(-1.035959589125444 -7.112303744087986e-14 -1.736010185662236e-06)
(-1.035959589104482 -1.091276065442089e-14 -1.736016938688133e-06)
(-1.035959589121796 -1.236883865284015e-13 -1.73601018633854e-06)
(-1.035959589101054 -2.138890266340436e-14 -1.736016870480723e-06)
(-1.035959589119389 -5.934915037408772e-14 -1.736010215249016e-06)
(-1.035959589097487 -9.028649066833139e-14 -1.736016808880004e-06)
(-1.035959589115178 -7.372529121802985e-14 -1.736010267231686e-06)
(-1.03595958909477 -3.32759015096631e-14 -1.736016749984791e-06)
(-1.035959589110873 -1.246958613198168e-13 -1.736010333868258e-06)
(-1.035959589090749 -5.279353205475092e-14 -1.736016685679884e-06)
(-1.035959589107077 -9.018566019717995e-14 -1.736010401933995e-06)
(-1.035959589085941 -1.133538188200461e-13 -1.736016601797366e-06)
(-1.035959589101453 -1.072343694734858e-13 -1.736010451090277e-06)
(-1.035959589081018 -1.035834050042095e-13 -1.736016475569633e-06)
(-1.035959589094212 -1.997394005482148e-13 -1.736010450974401e-06)
(-1.035959589072999 -1.724318152529183e-13 -1.736016271702634e-06)
(-1.035959589084611 -2.593916908926444e-13 -1.736010354319356e-06)
(-1.035959589060886 -3.452657761986887e-13 -1.736015936018324e-06)
(-1.035959589069478 -4.416925990106857e-13 -1.736010117179039e-06)
(-1.03595958904331 -6.218896959120043e-13 -1.736015434283225e-06)
(-1.035959589044844 -8.564817328446844e-13 -1.736009405814972e-06)
(-1.035959589013498 -8.573529835016291e-13 -1.736013892911424e-06)
(-1.035959589017547 -2.135682781177022e-13 -1.73601083097154e-06)
(-1.035959589045576 2.29609596446223e-12 -1.736020766190555e-06)
(-1.061670013518536 1.007270876570418e-11 -3.269450442010069e-06)
(-1.061670013464047 -4.896304016340188e-12 -3.26945688966631e-06)
(-1.061670013492622 1.849596668618257e-12 -3.269447698176554e-06)
(-1.061670013479753 -1.042822334312282e-13 -3.269456772484985e-06)
(-1.061670013485822 -7.290423940465166e-13 -3.269447060024559e-06)
(-1.061670013477439 8.087219815275014e-13 -3.26945648986752e-06)
(-1.061670013483646 -1.130226741203557e-12 -3.269446459145919e-06)
(-1.061670013470793 8.248355134099223e-13 -3.269456245031013e-06)
(-1.06167001348202 -1.079996800523691e-12 -3.269445824098558e-06)
(-1.061670013465056 8.263407426712747e-13 -3.269456050840187e-06)
(-1.061670013480788 -1.013479330909267e-12 -3.26944516896244e-06)
(-1.061670013458668 6.859256697752e-13 -3.269455885262065e-06)
(-1.061670013481274 -7.237157111034184e-13 -3.269444519661315e-06)
(-1.061670013453207 4.591297008861549e-13 -3.269455725908813e-06)
(-1.061670013480895 -5.494144231724058e-13 -3.269443897558848e-06)
(-1.061670013449706 3.688567729616478e-13 -3.269455557386509e-06)
(-1.061670013479471 -4.856515114952666e-13 -3.26944331702477e-06)
(-1.061670013445803 2.679006799429359e-13 -3.269455371178977e-06)
(-1.061670013478099 -4.168499535300117e-13 -3.269442786688247e-06)
(-1.061670013441429 1.737630313628099e-13 -3.26945516421465e-06)
(-1.06167001347669 -2.712789423019217e-13 -3.26944231096636e-06)
(-1.061670013438396 6.275270454559208e-14 -3.26945493729628e-06)
(-1.061670013473589 -2.393865540595707e-13 -3.269441891802859e-06)
(-1.061670013435618 7.294636670250995e-14 -3.269454693478114e-06)
(-1.061670013470714 -3.061681080364332e-13 -3.269441529933602e-06)
(-1.061670013431264 5.54793044294679e-14 -3.269454437352413e-06)
(-1.061670013468458 -1.842779484859428e-13 -3.269441225321726e-06)
(-1.061670013427655 -9.996322229949853e-14 -3.2694541745793e-06)
(-1.06167001346403 -1.629700976590657e-13 -3.26944097779778e-06)
(-1.061670013425073 -8.794040306283461e-15 -3.269453911169298e-06)
(-1.061670013460173 -2.767250376071336e-13 -3.269440787455697e-06)
(-1.061670013420732 -1.319186690893471e-14 -3.269453653391791e-06)
(-1.061670013457248 -1.472231195005423e-13 -3.26944065438068e-06)
(-1.06167001341715 -1.668602675453728e-13 -3.26945340765504e-06)
(-1.061670013452428 -1.614106717246133e-13 -3.269440578792592e-06)
(-1.061670013414055 -7.792204510067626e-14 -3.269453179890884e-06)
(-1.061670013447119 -2.591344211382835e-13 -3.269440560839433e-06)
(-1.061670013409644 -7.777963550115503e-14 -3.269452975456455e-06)
(-1.061670013443377 -1.653019757617565e-13 -3.269440600154223e-06)
(-1.061670013404646 -2.121343316172614e-13 -3.269452798392808e-06)
(-1.061670013437693 -1.726777879871827e-13 -3.269440695010826e-06)
(-1.061670013400879 -1.312559782565193e-13 -3.269452650773512e-06)
(-1.061670013431489 -2.719486047283908e-13 -3.269440841454421e-06)
(-1.061670013395729 -1.531714003098642e-13 -3.269452531198069e-06)
(-1.061670013426084 -2.375302857078691e-13 -3.269441031913848e-06)
(-1.061670013389301 -2.779745588825958e-13 -3.269452433284682e-06)
(-1.061670013418672 -2.646973791330328e-13 -3.26944125305907e-06)
(-1.061670013383058 -2.968807498763348e-13 -3.269452343847011e-06)
(-1.061670013409281 -4.570964160962944e-13 -3.269441484170304e-06)
(-1.061670013373876 -4.277760420625521e-13 -3.269452240299065e-06)
(-1.061670013398509 -5.988909058483411e-13 -3.26944169367474e-06)
(-1.061670013361495 -7.480304387208922e-13 -3.269452101213673e-06)
(-1.061670013384331 -8.884188069014672e-13 -3.269441888873454e-06)
(-1.061670013347752 -1.147431461038374e-12 -3.269451927716348e-06)
(-1.061670013367572 -1.389771571782563e-12 -3.269441310415852e-06)
(-1.061670013329232 -1.194804486211587e-12 -3.269451377022871e-06)
(-1.061670013345801 5.667430949665745e-13 -3.269447786203355e-06)
(-1.061670013369922 5.422768301119955e-12 -3.269461995530043e-06)
(-1.083751382820961 1.415813319787941e-11 -4.832421898147453e-06)
(-1.083751382759547 -6.846823880187413e-12 -4.832430971089502e-06)
(-1.083751382798853 2.547493360290591e-12 -4.832417630678077e-06)
(-1.08375138277261 -1.840813301955302e-13 -4.832430951139887e-06)
(-1.083751382792733 -1.044752920594054e-12 -4.832416437630808e-06)
(-1.083751382768915 1.071288045552787e-12 -4.832430767571319e-06)
(-1.083751382790579 -1.613241993818412e-12 -4.832415249704485e-06)
(-1.083751382761131 1.116414136766532e-12 -4.832430624071925e-06)
(-1.083751382788899 -1.546807992487109e-12 -4.832414068954513e-06)
(-1.083751382754319 1.118847896354523e-12 -4.832430466755819e-06)
(-1.083751382787577 -1.452152100087761e-12 -4.832412950904073e-06)
(-1.083751382747131 9.399508329917279e-13 -4.832430254907721e-06)
(-1.083751382787752 -1.05808898603985e-12 -4.832411923849385e-06)
(-1.083751382741093 6.306155269658136e-13 -4.832429973734631e-06)
(-1.083751382787051 -8.062994931484686e-13 -4.832410995929593e-06)
(-1.08375138273699 4.894854030213599e-13 -4.832429623470322e-06)
(-1.083751382785254 -7.135202423720375e-13 -4.832410165308278e-06)
(-1.083751382732617 3.52692539889588e-13 -4.832429211124657e-06)
(-1.083751382783416 -6.240460152912565e-13 -4.832409426308372e-06)
(-1.083751382727891 2.212823679433572e-13 -4.832428746486609e-06)
(-1.083751382781473 -4.145705481128792e-13 -4.832408772112079e-06)
(-1.083751382724451 4.871295689718875e-14 -4.832428240249943e-06)
(-1.083751382777801 -3.673890685449406e-13 -4.832408196451354e-06)
(-1.083751382721313 6.54222124759147e-14 -4.832427702761696e-06)
(-1.083751382774252 -4.694537041765463e-13 -4.832407694381334e-06)
(-1.083751382716702 4.124685118154629e-14 -4.832427144056385e-06)
(-1.083751382771343 -2.924863944206058e-13 -4.832407262075616e-06)
(-1.083751382712911 -1.851800014007669e-13 -4.832426574069209e-06)
(-1.083751382766381 -2.570250354906299e-13 -4.832406897121777e-06)
(-1.083751382710192 -5.425008571275658e-14 -4.832426002365958e-06)
(-1.083751382761975 -4.208830498312599e-13 -4.832406598730929e-06)
(-1.08375138270593 -5.3789891158529e-14 -4.832425438653146e-06)
(-1.083751382758633 -2.333901906844589e-13 -4.83240636730082e-06)
(-1.08375138270248 -2.799223748791629e-13 -4.832424893135403e-06)
(-1.083751382753458 -2.566984466651278e-13 -4.832406204725622e-06)
(-1.083751382699452 -1.602365650116043e-13 -4.832424376307126e-06)
(-1.083751382747835 -3.89686936027306e-13 -4.832406114510134e-06)
(-1.083751382695253 -1.561361917756425e-13 -4.832423899579343e-06)
(-1.083751382743703 -2.72675478704429e-13 -4.832406101813458e-06)
(-1.083751382690567 -3.415054422832537e-13 -4.832423475175393e-06)
(-1.083751382737808 -2.747244231800448e-13 -4.832406173292906e-06)
(-1.083751382687161 -2.424763234976295e-13 -4.832423116514909e-06)
(-1.083751382731561 -4.094781636276405e-13 -4.832406337264419e-06)
(-1.083751382682651 -2.663443754668325e-13 -4.832422837741907e-06)
(-1.083751382726313 -3.761380743518915e-13 -4.832406603513368e-06)
(-1.083751382677084 -4.383174314207139e-13 -4.832422653484319e-06)
(-1.083751382719366 -4.064666811474708e-13 -4.832406982107726e-06)
(-1.083751382671948 -4.732521762325781e-13 -4.832422577831441e-06)
(-1.083751382710937 -6.585986227002619e-13 -4.832407481821509e-06)
(-1.083751382664515 -6.229569910125484e-13 -4.832422619753026e-06)
(-1.08375138270185 -8.236451851649073e-13 -4.832408103310187e-06)
(-1.08375138265502 -9.912644389485923e-13 -4.832422793618206e-06)
(-1.08375138269079 -1.100943528249944e-12 -4.832408878527035e-06)
(-1.083751382645677 -1.350603841626731e-12 -4.832423088027317e-06)
(-1.083751382679773 -1.624337069094909e-12 -4.83240858268794e-06)
(-1.083751382631179 -1.555866630433669e-12 -4.832423515039249e-06)
(-1.083751382652422 1.111685866543529e-12 -4.832418925873142e-06)
(-1.083751382665188 8.100015699634082e-12 -4.83243693481237e-06)
(-1.100352381700018 1.823512968439858e-11 -6.277425859543303e-06)
(-1.100352381637075 -8.70870142326819e-12 -6.277435324073545e-06)
(-1.100352381688948 3.227037569820853e-12 -6.277417617228867e-06)
(-1.100352381645643 -2.660140064872052e-13 -6.277436230694507e-06)
(-1.100352381684945 -1.386887127229807e-12 -6.27741536535546e-06)
(-1.100352381640217 1.349164644330628e-12 -6.277436425074498e-06)
(-1.100352381684117 -2.125609970394161e-12 -6.277413453608283e-06)
(-1.100352381631973 1.419302849763619e-12 -6.277436389189358e-06)
(-1.100352381682699 -2.040491671514642e-12 -6.277411787259443e-06)
(-1.100352381624838 1.419095914682549e-12 -6.277436133701389e-06)
(-1.100352381681521 -1.912141932706119e-12 -6.27741035685583e-06)
(-1.100352381617812 1.193069796002087e-12 -6.277435682085436e-06)
(-1.100352381681007 -1.400112086139935e-12 -6.277409130048593e-06)
(-1.100352381612688 7.958960626293004e-13 -6.277435072219362e-06)
(-1.100352381679632 -1.07175746099465e-12 -6.277408069553498e-06)
(-1.100352381608883 6.064922504465389e-13 -6.277434340879015e-06)
(-1.100352381677696 -9.482966148482286e-13 -6.277407143030836e-06)
(-1.100352381604965 4.265573903587937e-13 -6.277433518457909e-06)
(-1.100352381675092 -8.274329716177341e-13 -6.277406325296328e-06)
(-1.100352381601282 2.584594743143418e-13 -6.277432628851539e-06)
(-1.10035238167259 -5.617847773494024e-13 -6.277405597511058e-06)
(-1.100352381598171 2.781935684019708e-14 -6.277431690771558e-06)
(-1.100352381668982 -4.962023984190126e-13 -6.277404946023777e-06)
(-1.100352381595535 4.517660791173547e-14 -6.27743071897764e-06)
(-1.100352381664883 -6.272019314024263e-13 -6.277404361230183e-06)
(-1.100352381592016 1.533600820496751e-14 -6.277429725679793e-06)
(-1.100352381661611 -3.977702656217155e-13 -6.277403836454196e-06)
(-1.100352381588717 -2.729845729224984e-13 -6.277428721645524e-06)
(-1.10035238165705 -3.475778895246246e-13 -6.27740336748487e-06)
(-1.100352381586671 -1.095109250824034e-13 -6.277427716729153e-06)
(-1.100352381652401 -5.508123638671315e-13 -6.277402952352992e-06)
(-1.100352381583691 -1.003015878188842e-13 -6.277426720759689e-06)
(-1.100352381649169 -3.1165254126055e-13 -6.277402591089414e-06)
(-1.100352381580958 -3.886510356702032e-13 -6.277425744160912e-06)
(-1.100352381644555 -3.39508642536587e-13 -6.27740228593344e-06)
(-1.100352381579114 -2.391477733887991e-13 -6.277424798404803e-06)
(-1.100352381639827 -5.071039980164282e-13 -6.277402041803747e-06)
(-1.100352381576056 -2.342585269362851e-13 -6.277423896944296e-06)
(-1.100352381636012 -3.581974048546157e-13 -6.277401866873286e-06)
(-1.100352381573158 -4.674565839240468e-13 -6.277423056018182e-06)
(-1.100352381630807 -3.55725117535293e-13 -6.277401773394784e-06)
(-1.100352381571044 -3.36653418696371e-13 -6.277422295954324e-06)
(-1.100352381626025 -5.240004600710821e-13 -6.277401779069233e-06)
(-1.100352381568222 -3.634416865825687e-13 -6.277421642528588e-06)
(-1.100352381621959 -4.748267270084338e-13 -6.277401908717947e-06)
(-1.100352381565241 -5.772975706130164e-13 -6.277421128903244e-06)
(-1.100352381616659 -5.105070123008881e-13 -6.277402195943294e-06)
(-1.100352381562259 -6.182600640331078e-13 -6.277420797579456e-06)
(-1.100352381610621 -8.209310635341631e-13 -6.277402684849124e-06)
(-1.100352381557277 -7.889782268901597e-13 -6.277420699562544e-06)
(-1.100352381603422 -1.00551719013159e-12 -6.277403426992338e-06)
(-1.10035238155065 -1.219824647791168e-12 -6.277420908030955e-06)
(-1.100352381593993 -1.297998932587863e-12 -6.277404518252725e-06)
(-1.100352381542744 -1.532996088805022e-12 -6.277421488566025e-06)
(-1.100352381584434 -1.894408491778199e-12 -6.277404638876138e-06)
(-1.100352381527746 -2.089292386378096e-12 -6.277422589506637e-06)
(-1.100352381550163 1.545123296664022e-12 -6.277417467786359e-06)
(-1.100352381548862 1.074915054692939e-11 -6.277440149602945e-06)
(-1.110887270190705 2.202035523103994e-11 -7.471445243809514e-06)
(-1.110887270127489 -1.013843645235218e-11 -7.471454165775821e-06)
(-1.110887270199804 3.728380624413209e-12 -7.471429773863563e-06)
(-1.110887270130314 -2.670604389618631e-13 -7.471456684783402e-06)
(-1.110887270197965 -1.760816189469971e-12 -7.47142645209978e-06)
(-1.110887270124378 1.649391638247886e-12 -7.471457013392808e-06)
(-1.110887270197507 -2.621042783611779e-12 -7.47142424101924e-06)
(-1.110887270117457 1.701566886014344e-12 -7.471456646177597e-06)
(-1.110887270195301 -2.507136900780495e-12 -7.471422570521069e-06)
(-1.110887270111698 1.699651272659733e-12 -7.471455873680653e-06)
(-1.110887270193415 -2.337732548866898e-12 -7.471421245387967e-06)
(-1.110887270106209 1.409569308313077e-12 -7.471454844587178e-06)
(-1.110887270191792 -1.691600118417334e-12 -7.47142014825669e-06)
(-1.110887270103003 9.285783487248725e-13 -7.471453651873893e-06)
(-1.11088727018952 -1.303768652552101e-12 -7.471419205476826e-06)
(-1.110887270100451 7.064245740166071e-13 -7.471452353784279e-06)
(-1.110887270187254 -1.154695834550065e-12 -7.471418370823639e-06)
(-1.110887270097746 4.755198972776066e-13 -7.471450987131546e-06)
(-1.110887270183927 -9.896568131491639e-13 -7.471417614857268e-06)
(-1.110887270095717 2.777065007475629e-13 -7.471449575639535e-06)
(-1.11088727018099 -6.85137385554952e-13 -7.471416918546113e-06)
(-1.110887270093633 4.451666781714768e-15 -7.471448135083047e-06)
(-1.110887270177628 -6.009360726599178e-13 -7.47141626921239e-06)
(-1.110887270092119 1.514396166544151e-14 -7.471446676607394e-06)
(-1.110887270173313 -7.490884582004222e-13 -7.47141565805658e-06)
(-1.110887270090195 -2.072608044660139e-14 -7.471445208599732e-06)
(-1.11088727016997 -4.79021724812667e-13 -7.471415078926972e-06)
(-1.110887270087858 -3.497192154636476e-13 -7.471443737890276e-06)
(-1.110887270165994 -4.149479834905639e-13 -7.471414527524269e-06)
(-1.110887270086985 -1.662306716239067e-13 -7.471442270642331e-06)
(-1.11088727016152 -6.414870618481722e-13 -7.471414000945262e-06)
(-1.110887270085582 -1.449744833678012e-13 -7.471440812895823e-06)
(-1.110887270158723 -3.633093768172673e-13 -7.471413497945956e-06)
(-1.110887270083992 -4.73656633306266e-13 -7.471439371030369e-06)
(-1.110887270155003 -3.871861707920792e-13 -7.471413018826844e-06)
(-1.110887270083784 -2.96195092187975e-13 -7.471437952513717e-06)
(-1.11088727015149 -5.903315580502142e-13 -7.471412566082558e-06)
(-1.11088727008223 -2.978272217924426e-13 -7.471436566373916e-06)
(-1.110887270148453 -3.965462902894625e-13 -7.471412145026319e-06)
(-1.110887270081336 -5.732469342407961e-13 -7.471435224440903e-06)
(-1.110887270144308 -3.964137191426952e-13 -7.47141176504411e-06)
(-1.110887270080814 -3.927381924879907e-13 -7.471433942583728e-06)
(-1.110887270141266 -5.937452217677417e-13 -7.471411441270229e-06)
(-1.110887270079875 -4.243215448179391e-13 -7.471432743089717e-06)
(-1.110887270138687 -5.092808970517395e-13 -7.471411197141056e-06)
(-1.110887270079571 -6.751974519123302e-13 -7.471431657906581e-06)
(-1.110887270135333 -5.568668679171608e-13 -7.471411068595557e-06)
(-1.110887270079016 -7.035538919005109e-13 -7.471430733636725e-06)
(-1.110887270131959 -9.264051960978733e-13 -7.471411110426192e-06)
(-1.11088727007675 -9.111501530350518e-13 -7.471430038880879e-06)
(-1.110887270127019 -1.126294061471178e-12 -7.471411404337951e-06)
(-1.110887270073072 -1.422415828832071e-12 -7.471429687880516e-06)
(-1.110887270119512 -1.47609170983205e-12 -7.471412112451898e-06)
(-1.110887270066759 -1.720372903075994e-12 -7.471429877181816e-06)
(-1.110887270110734 -2.196693864801305e-12 -7.471412300887101e-06)
(-1.110887270053204 -2.76606058146936e-12 -7.471430515128714e-06)
(-1.110887270077285 1.624068692903397e-12 -7.471424665825491e-06)
(-1.110887270060199 1.286680441169549e-11 -7.471452795717543e-06)
(-1.116214379743975 2.497090763213497e-11 -8.34542268600636e-06)
(-1.116214379671495 -1.086255070474833e-11 -8.345434256944532e-06)
(-1.116214379775433 4.032167223690335e-12 -8.345398957723009e-06)
(-1.116214379671444 -2.258054790048632e-13 -8.345437517996017e-06)
(-1.116214379772958 -2.099424360694295e-12 -8.345395793893948e-06)
(-1.116214379668062 1.899555515678997e-12 -8.345436957331663e-06)
(-1.116214379770248 -3.033134195148683e-12 -8.345394197382426e-06)
(-1.116214379664048 1.913711558288572e-12 -8.345435620574674e-06)
(-1.116214379766034 -2.890114742527126e-12 -8.345393087410606e-06)
(-1.116214379660967 1.918233670429772e-12 -8.345433982035162e-06)
(-1.116214379762553 -2.68726935011862e-12 -8.345392203219401e-06)
(-1.116214379657718 1.57005329562066e-12 -8.345432204728025e-06)
(-1.11621437975978 -1.914864874735434e-12 -8.345391435289217e-06)
(-1.116214379656381 1.022291599399424e-12 -8.345430362959923e-06)
(-1.116214379756694 -1.48150919486543e-12 -8.345390731151743e-06)
(-1.116214379655524 7.766769620546664e-13 -8.345428492558491e-06)
(-1.116214379753776 -1.31478990885379e-12 -8.345390064405894e-06)
(-1.116214379654226 4.975181809220243e-13 -8.345426611369172e-06)
(-1.116214379750079 -1.106493035870017e-12 -8.345389420858531e-06)
(-1.116214379653526 2.833937631201473e-13 -8.345424728514031e-06)
(-1.116214379747006 -7.721593277152792e-13 -8.34538879236081e-06)
(-1.116214379652778 -2.570488031436411e-14 -8.345422848756409e-06)
(-1.116214379743642 -6.703862253333617e-13 -8.345388173531567e-06)
(-1.116214379652505 -2.006507119057149e-14 -8.345420974987121e-06)
(-1.116214379739499 -8.32696084892338e-13 -8.345387560043474e-06)
(-1.116214379651794 -6.146514535108405e-14 -8.345419109145166e-06)
(-1.116214379736358 -5.320383460546544e-13 -8.345386948199127e-06)
(-1.116214379650614 -4.204252593164018e-13 -8.345417252598719e-06)
(-1.116214379732567 -4.501766726035501e-13 -8.345386334598273e-06)
(-1.116214379650865 -2.184298080934436e-13 -8.345415406644705e-06)
(-1.116214379728703 -6.973925754834153e-13 -8.345385715875554e-06)
(-1.116214379650562 -1.812889959124246e-13 -8.345413572408024e-06)
(-1.116214379726375 -3.824762800019417e-13 -8.345385089166457e-06)
(-1.116214379650352 -5.397845237723227e-13 -8.345411750969267e-06)
(-1.116214379723379 -3.973655961761108e-13 -8.345384451951028e-06)
(-1.11621437965148 -3.33974547675265e-13 -8.345409943756723e-06)
(-1.116214379720739 -6.354539425814301e-13 -8.345383802537775e-06)
(-1.116214379651279 -3.423930831829797e-13 -8.345408152474238e-06)
(-1.116214379718692 -3.968545597463437e-13 -8.345383140307479e-06)
(-1.116214379651709 -6.545330778874207e-13 -8.345406379998099e-06)
(-1.116214379715585 -3.98605913328201e-13 -8.345382466584511e-06)
(-1.116214379652658 -4.180861575455169e-13 -8.345404630811e-06)
(-1.116214379713698 -6.193981737610597e-13 -8.345381785610839e-06)
(-1.116214379653294 -4.514962951259954e-13 -8.345402912702939e-06)
(-1.116214379712578 -4.917337812861662e-13 -8.345381106152413e-06)
(-1.116214379654703 -7.293265523578484e-13 -8.345401239073099e-06)
(-1.116214379710949 -5.454809746324474e-13 -8.345380444914935e-06)
(-1.116214379656459 -7.332690732566378e-13 -8.345399633002435e-06)
(-1.116214379709772 -9.671805966986588e-13 -8.345379832289399e-06)
(-1.116214379656829 -9.761498274755185e-13 -8.345398135412976e-06)
(-1.116214379707533 -1.176753732277664e-12 -8.345379322469786e-06)
(-1.116214379656078 -1.56671326299945e-12 -8.345396826201936e-06)
(-1.116214379703032 -1.596499409626942e-12 -8.34537904395002e-06)
(-1.116214379653069 -1.877207279502814e-12 -8.345395902792316e-06)
(-1.116214379696344 -2.411521040886812e-12 -8.34537851075787e-06)
(-1.116214379644348 -3.329196619454414e-12 -8.345394804457326e-06)
(-1.116214379673656 1.418607223500338e-12 -8.345386925146451e-06)
(-1.116214379646448 1.40772812452992e-11 -8.345418500705657e-06)
(-1.1181661205004 2.652938335245e-11 -8.945921990212655e-06)
(-1.118166120406435 -1.09339141894653e-11 -8.945940955225824e-06)
(-1.11816612054549 4.278613743480447e-12 -8.945893022079395e-06)
(-1.118166120408629 -2.504255243584393e-13 -8.945943121119016e-06)
(-1.118166120539154 -2.32432793534924e-12 -8.945891309261689e-06)
(-1.11816612040964 2.036962285625632e-12 -8.945940972228328e-06)
(-1.118166120533047 -3.33294184422387e-12 -8.94589078666862e-06)
(-1.118166120408746 2.035666703015373e-12 -8.945938499422665e-06)
(-1.11816612052675 -3.174744175275973e-12 -8.945890368543189e-06)
(-1.118166120408234 2.058579745437481e-12 -8.945936029600839e-06)
(-1.118166120521685 -2.953214939165384e-12 -8.945889935686412e-06)
(-1.118166120406939 1.674810383270939e-12 -8.94593361153964e-06)
(-1.118166120518006 -2.079634367055501e-12 -8.94588946703549e-06)
(-1.118166120406932 1.08049781241566e-12 -8.945931250736982e-06)
(-1.118166120514376 -1.605553712747935e-12 -8.945888962989539e-06)
(-1.118166120407478 8.132119188358836e-13 -8.945928941398716e-06)
(-1.11816612051086 -1.428541310611009e-12 -8.945888429088159e-06)
(-1.118166120407343 4.9684734261742e-13 -8.945926675681051e-06)
(-1.118166120507031 -1.189085279041501e-12 -8.94588787060056e-06)
(-1.118166120407516 2.797922640412564e-13 -8.94592444660542e-06)
(-1.118166120504 -8.230370460416528e-13 -8.945887291152063e-06)
(-1.118166120407874 -6.693191890371886e-14 -8.945922248579063e-06)
(-1.11816612050054 -7.069879016164024e-13 -8.94588669244339e-06)
(-1.11816612040861 -5.900868055529145e-14 -8.945920077478954e-06)
(-1.118166120496638 -8.872672206148684e-13 -8.945886074264522e-06)
(-1.11816612040864 -1.020011768634626e-13 -8.945917930238922e-06)
(-1.118166120493811 -5.601164870973749e-13 -8.945885435026143e-06)
(-1.118166120408448 -4.924685083841534e-13 -8.945915804228891e-06)
(-1.118166120490114 -4.571460475089064e-13 -8.945884772151308e-06)
(-1.118166120409501 -2.657106588104586e-13 -8.945913697095096e-06)
(-1.118166120486753 -7.302835345320692e-13 -8.945884082108238e-06)
(-1.118166120409911 -2.098525055363211e-13 -8.945911606251379e-06)
(-1.118166120484793 -3.728770140776307e-13 -8.945883360815551e-06)