/*--------------------------------*- C++ -*----------------------------------*\
| =========                 |                                                 |
| \\      /  F ield         | OpenFOAM: The Open Source CFD Toolbox           |
|  \\    /   O peration     | Version:  v1812                                 |
|   \\  /    A nd           | Web:      www.OpenFOAM.com                      |
|    \\/     M anipulation  |                                                 |
\*---------------------------------------------------------------------------*/
FoamFile
{
    version     2.0;
    format      ascii;
    class       volVectorField;
    location    "20000";
    object      wallShearStress;
}
// * * * * * * * * * * * * * * * * * * * * * * * * * * * * * * * * * * * * * //

dimensions      [0 2 -2 0 0 0 0];


internalField   uniform (0 0 0);

boundaryField
{
    inlet
    {
        type            cyclic;
    }
    outlet
    {
        type            cyclic;
    }
    bottomWall
    {
        type            calculated;
        value           nonuniform List<vector> 
58
(
(0.0003495315311257217 -6.765595063143366e-14 1.58155822501914e-08)
(0.0003495315308004985 3.351592639307843e-14 1.581557772681565e-08)
(0.0003495315308481654 -1.376136200654239e-14 1.581552263971911e-08)
(0.0003495315309770425 8.763600855583014e-16 1.581557834095153e-08)
(0.0003495315308342034 4.573399216060512e-15 1.581552224297037e-08)
(0.000349531530934737 -6.123483863604748e-15 1.581557405572237e-08)
(0.0003495315308518541 7.44971408001423e-15 1.581552203998272e-08)
(0.000349531530865901 -6.194431950263018e-15 1.581557090275484e-08)
(0.0003495315308449022 7.239251652967225e-15 1.581552072739549e-08)
(0.0003495315308149714 -6.314866642359192e-15 1.581556879027368e-08)
(0.0003495315308437473 6.809890291560775e-15 1.581551869877281e-08)
(0.0003495315307580697 -5.118189430655065e-15 1.581556734783977e-08)
(0.0003495315308496717 4.751955927165706e-15 1.581551627282545e-08)
(0.0003495315307212886 -3.460400482572204e-15 1.581556632691635e-08)
(0.0003495315308432712 3.658053085024077e-15 1.58155136699141e-08)
(0.0003495315307000628 -2.961554353966399e-15 1.581556555542671e-08)
(0.0003495315308357915 3.145837921291935e-15 1.581551105171931e-08)
(0.0003495315306735656 -2.16458940848366e-15 1.581556491252815e-08)
(0.0003495315308221648 2.604867021553101e-15 1.581550853704151e-08)
(0.0003495315306432792 -1.543257508801396e-15 1.581556431837536e-08)
(0.0003495315308146698 1.66572125309319e-15 1.581550620967353e-08)
(0.0003495315306237617 -8.516793793690906e-16 1.581556372679839e-08)
(0.0003495315307928062 1.36781427422528e-15 1.581550412593555e-08)
(0.00034953153061092 -8.812869348550914e-16 1.581556311693854e-08)
(0.0003495315307716415 1.753060090283268e-15 1.581550232252131e-08)
(0.0003495315305784088 -7.969195615172563e-16 1.581556248617237e-08)
(0.0003495315307634225 9.222692992924939e-16 1.581550082159059e-08)
(0.0003495315305521864 2.125285826050839e-16 1.581556184447839e-08)
(0.0003495315307292014 7.703758936047093e-16 1.581549963488202e-08)
(0.0003495315305398782 -4.19917913162078e-16 1.581556120862094e-08)
(0.0003495315307010917 1.509851793436275e-15 1.58154987668899e-08)
(0.0003495315305037242 -3.852262402463377e-16 1.581556059732338e-08)
(0.0003495315306862638 6.342016816190336e-16 1.581549821467997e-08)
(0.000349531530474853 6.646141082995901e-16 1.58155600274821e-08)
(0.0003495315306451216 7.165581409382227e-16 1.581549796664316e-08)
(0.0003495315304545618 -9.031282771742166e-17 1.581555950829249e-08)
(0.0003495315306083569 1.378279956345719e-15 1.581549799970517e-08)
(0.000349531530414248 -6.068729402122868e-18 1.581555903537812e-08)
(0.0003495315305852782 5.729573676386345e-16 1.581549827318204e-08)
(0.0003495315303780334 8.864208347723448e-16 1.581555858207464e-08)
(0.0003495315305367683 6.714385102487833e-16 1.581549871981514e-08)
(0.0003495315303506167 9.857688898068713e-17 1.581555808858286e-08)
(0.0003495315304951944 1.341989874981756e-15 1.581549923283714e-08)
(0.0003495315303049323 3.50882519060176e-16 1.581555744566228e-08)
(0.0003495315304561471 8.298052423660034e-16 1.581549964775669e-08)
(0.0003495315302563262 1.021996806374378e-15 1.581555647199538e-08)
(0.0003495315303954252 9.397682608294679e-16 1.581549971445313e-08)
(0.000349531530205686 7.788328783541571e-16 1.581555488034886e-08)
(0.0003495315303218663 1.932643548623993e-15 1.581549905540741e-08)
(0.0003495315301174165 1.388592191549148e-15 1.581555221926997e-08)
(0.0003495315302171691 2.395574613388361e-15 1.581549704436321e-08)
(0.0003495315299798289 3.218608336731797e-15 1.581554765601837e-08)
(0.0003495315300349173 4.278824011389317e-15 1.581549288490403e-08)
(0.0003495315297520942 6.481942707423338e-15 1.581554078138099e-08)
(0.0003495315296760684 1.038486025681895e-14 1.581548276221892e-08)
(0.0003495315292288547 1.299640276751456e-14 1.58155110611049e-08)
(0.0003495315290506141 8.83199697132656e-15 1.581547074455933e-08)
(0.0003495315292723766 -2.513389109862637e-14 1.581559850880109e-08)
)
;
    }
    topWall
    {
        type            calculated;
        value           nonuniform List<vector> 
58
(
(0.008650296602793355 5.852709224097085e-14 4.97700281312599e-08)
(0.008650296605127025 6.653382295816947e-14 4.977095548627817e-08)
(0.008650296607292395 -5.111087400679476e-15 4.977053663189657e-08)
(0.008650296605856655 3.297093451043893e-14 4.977092289956033e-08)
(0.0086502966080382 -7.384503291135276e-15 4.97706540374611e-08)
(0.008650296606897711 2.158569069962307e-14 4.977085204492419e-08)
(0.008650296608032211 -3.030367440723384e-15 4.977069413155449e-08)
(0.0086502966073937 2.012316567507824e-14 4.977079885752116e-08)
(0.008650296608398859 -1.692531873984424e-14 4.977070623722595e-08)
(0.008650296607250313 3.548904446924977e-15 4.977076048941566e-08)
(0.008650296608110338 -1.24898274660972e-15 4.977070484912433e-08)
(0.008650296607578861 9.277723247991266e-15 4.977073116390902e-08)
(0.008650296608224629 9.016063115415909e-16 4.977069624726096e-08)
(0.008650296607923666 -1.421125018636303e-15 4.977070699816624e-08)
(0.008650296607820082 -5.701450358775164e-15 4.97706836399244e-08)
(0.008650296607800119 5.956563915896828e-15 4.977068571272356e-08)
(0.00865029660815426 -2.75972215175111e-16 4.977066879543008e-08)
(0.008650296607794686 -2.490017781991387e-15 4.977066602084648e-08)
(0.008650296607852496 2.714014965919194e-15 4.97706526744623e-08)
(0.008650296607998414 7.916103980470049e-15 4.977064719549941e-08)
(0.008650296607842355 2.609110801471254e-15 4.97706358237801e-08)
(0.008650296608024896 1.235158488277085e-15 4.97706288273749e-08)
(0.00865029660808316 -1.24702310323537e-14 4.977061854613523e-08)
(0.008650296607586684 -8.903572156532885e-15 4.977061068786317e-08)
(0.008650296607780033 3.563783217578389e-15 4.977060099801067e-08)
(0.008650296607928773 7.967621766301009e-17 4.977059265387702e-08)
(0.008650296607603757 1.965680371109463e-15 4.977058327445126e-08)
(0.008650296607879649 5.326853166072179e-15 4.977057464233368e-08)
(0.008650296607950374 -8.221554108981192e-15 4.977056542541706e-08)
(0.008650296607512788 -8.096798275398043e-15 4.977055660951665e-08)
(0.00865029660759978 1.658778279525886e-15 4.977054746072307e-08)
(0.008650296607758673 1.125878119388717e-15 4.977053852856884e-08)
(0.008650296607476951 7.966853019291137e-16 4.977052939233111e-08)
(0.008650296607737298 6.907479497293134e-15 4.977052036875127e-08)
(0.008650296607768162 8.82016480471843e-15 4.977051121522363e-08)
(0.00865029660811651 9.535687692626981e-16 4.9770502110574e-08)
(0.008650296608017105 -8.759133677434749e-15 4.977049291343637e-08)
(0.008650296607597349 2.508583569040113e-16 4.977048371542794e-08)
(0.008650296607974395 8.046801006228079e-16 4.977047445197284e-08)
(0.008650296607777944 -8.049887524744351e-15 4.977046516182514e-08)
(0.008650296607370446 -2.290895931104719e-15 4.977045579496011e-08)
(0.008650296607663565 1.799015138654607e-15 4.977044638684102e-08)
(0.008650296607563205 -9.2945410570614e-15 4.977043689440589e-08)
(0.008650296607108064 -8.531656960805144e-15 4.977042732227098e-08)
(0.008650296607191049 8.644288863430694e-16 4.977041765203294e-08)
(0.008650296607267186 -5.326535058091715e-15 4.977040787111798e-08)
(0.008650296606850207 -2.291137486609063e-15 4.977039794877193e-08)
(0.008650296606979493 3.522364236168043e-15 4.977038785708666e-08)
(0.008650296607088102 -5.253333260797586e-15 4.97703775892842e-08)
(0.008650296606617964 -6.118277667886103e-15 4.977036699940648e-08)
(0.008650296606817837 2.523659021772949e-15 4.977035627991521e-08)
(0.008650296606748816 3.210121235185762e-16 4.977034471146925e-08)
(0.00865029660683595 -5.684767306890463e-15 4.977033375953905e-08)
(0.008650296606276862 -1.011572817837586e-14 4.977031931025059e-08)
(0.008650296606479584 -1.884112709813076e-15 4.977031318718662e-08)
(0.008650296605504213 -3.496242635254444e-14 4.97702860247716e-08)
(0.008650296605543875 1.011296772119555e-14 4.977028145978852e-08)
(0.00865029660418761 -9.538718620443651e-14 4.977029153868783e-08)
)
;
    }
    left
    {
        type            cyclic;
    }
    right
    {
        type            cyclic;
    }
}


// ************************************************************************* //
