/*--------------------------------*- C++ -*----------------------------------*\
| =========                 |                                                 |
| \\      /  F ield         | OpenFOAM: The Open Source CFD Toolbox           |
|  \\    /   O peration     | Version:  v1812                                 |
|   \\  /    A nd           | Web:      www.OpenFOAM.com                      |
|    \\/     M anipulation  |                                                 |
\*---------------------------------------------------------------------------*/
FoamFile
{
    version     2.0;
    format      ascii;
    class       volVectorField;
    location    "0";
    object      U;
}
// * * * * * * * * * * * * * * * * * * * * * * * * * * * * * * * * * * * * * //

dimensions      [0 1 -1 0 0 0 0];


internalField   nonuniform List<vector> 
3770
(
(-0.6133225282115 0.08068108550811305 0.08014436629034409)
(-0.6557024081244289 0.006242802276673842 0.005265076431634036)
(-0.6678678254821372 -0.001713233154425221 -0.01319785312716313)
(-0.6908769513786505 0.0005492011240320854 -0.03767382148347482)
(-0.733607279670639 0.004794557609659151 -0.03885101070605999)
(-0.7241395109311831 0.000590189673634667 -0.02496471610230374)
(-0.6837872556110982 -0.003316070834340678 -0.05061651935323758)
(-0.7012257695779269 -0.008511382146034675 -0.07621824524517659)
(-0.7230424353286936 -0.004637057608919655 -0.08731934647563111)
(-0.6988094182478871 -0.008122490013873046 -0.06042730320629092)
(-0.7897234386248825 0.004654155870190716 0.01159854878293403)
(-0.7973886679258213 -0.008766014694489914 -0.02267680855642369)
(-0.7748936202890566 -0.001792283959011393 -0.03274016815546339)
(-0.7630239133882903 0.004629757479931879 0.04119138765676593)
(-0.7663539432402453 0.01416828869885883 0.03701342847857286)
(-0.8353437117495657 0.008045747265430812 0.03279847505247101)
(-0.8029353282175198 -0.005843268513676452 0.02499122658150748)
(-0.7569257417927845 -0.01637633130702151 0.01939635059355978)
(-0.7055343871641393 -0.003752063258645265 0.006115073218076436)
(-0.7080753864795811 0.001752327509739555 -0.003059649584163014)
(-0.6999045472161591 -0.01153251077749418 0.01987980157233056)
(-0.6769698832255953 -0.01311915346258689 0.03971248006947316)
(-0.7125213998569537 -0.01999750484070804 0.02693381970724435)
(-0.7545360914843537 -0.003025674830043989 0.006047289905350205)
(-0.8471658822779947 0.01306264115133836 -0.04153687149273234)
(-0.8647233831425397 0.01367268909464198 0.06708212794740859)
(-0.8804627378041379 0.01792415298049112 0.02542538651484877)
(-0.9119032509840834 0.008769790750156336 0.004660155497433264)
(-0.8312893172407363 0.005841243433236212 0.03892759874428763)
(-0.9073963432275339 0.0099603152340504 -0.02193743241525555)
(-0.8539416092573943 0.01366568532220272 0.01262708230854445)
(-0.8430979330206689 0.01093023508907488 -0.03233998317080822)
(-0.8173660659573729 0.001546150852335987 -0.05668989425996695)
(-0.8140966183968303 0.002761989166382111 -0.06226022633880528)
(-0.7868609473598879 -0.005206963064782974 -0.05486939179804175)
(-0.7535566804503453 0.001916162045725756 0.00711139828587039)
(-0.751088927659754 0.001661482032304732 0.02298412666440144)
(-0.8055889802758445 -0.0004573693265570134 0.01000824019673621)
(-0.8375442475473627 -0.000606424775525452 0.01422487307890752)
(-0.8517578621176989 0.001384386839610914 0.002461316614979199)
(-0.7971881996553518 -0.004585847248636532 -0.005910239388611056)
(-0.7984773576076604 0.003940316570861508 0.009056173859151291)
(-0.796856028053875 0.00566761914389547 0.01359997065559199)
(-0.7796241575757951 0.0003273464977272735 0.007042446851122595)
(-0.7661463421366798 0.0009646257164521446 0.01404524090689165)
(-0.7863791480255952 0.001191614372595978 0.005277098649444961)
(-0.7668396915184386 -0.002509893278198143 -0.003884288435056155)
(-0.7690228570859832 0.006959794027319064 -0.01994633797491444)
(-0.7416890482811336 0.005030303425281627 -0.0158910837532858)
(-0.6855982999525795 -0.0002885828363108393 -0.02043402570812146)
(-0.6737725890418083 -0.003410986798571429 -0.01661329154417835)
(-0.631339271999026 -0.01145673139804462 -0.02640209807960316)
(-0.6419661264032132 -0.002218264236101948 -0.01253030819287595)
(-0.6116601041610777 -0.008694853237243592 -0.004481699216039716)
(-0.6396809304762534 -0.004744231600019644 -0.0004803280262122414)
(-0.6695569791801459 -0.005726913028690495 -0.02034225166597449)
(-0.6250691165599523 -0.005779951465279926 0.01213183861969385)
(-0.6755123097008986 0.01056873752045124 -0.0004541704666223374)
(-0.6105666784329079 0.08088850859112068 0.08021032310346485)
(-0.6531131030953521 0.006104709850839387 0.005573730601298978)
(-0.664584184502226 -0.001928343764927698 -0.01274371229525803)
(-0.6873138932042565 0.0007056290390440676 -0.03767810265042977)
(-0.7316621973975534 0.004678149671846379 -0.03859049055947812)
(-0.7216601395033613 0.0004942175784085341 -0.02439965596665072)
(-0.6805141999903616 -0.003368224036413465 -0.05039687559593244)
(-0.6978478198392098 -0.008304957309168937 -0.07644343172702936)
(-0.7202241374498992 -0.004567753349064201 -0.08749997496354399)
(-0.6951976096919253 -0.008080661445789158 -0.06116052419880209)
(-0.7878281594872311 0.004542614044223439 0.01165583447105628)
(-0.7952747515376891 -0.008830794931246732 -0.02232233619620473)
(-0.7742116156251088 -0.002044323182601857 -0.03343879709055789)
(-0.761585063148863 0.004534563584749928 0.04107423718337732)
(-0.7645466744809414 0.01414726629557705 0.03699477468510691)
(-0.8338506989348767 0.008196222375687522 0.03311303699572106)
(-0.8015128340633968 -0.005755312180936282 0.02531932065660733)
(-0.7556808174095802 -0.01638807124804317 0.01940912223621384)
(-0.7040518430880384 -0.003716641024550216 0.006105886608300668)
(-0.7062859268213062 0.001979038618694952 -0.003319771075787181)
(-0.6981777831673251 -0.01143486616937909 0.01967987008294502)
(-0.6753216945212842 -0.01325042787765334 0.03946156587419885)
(-0.7103659718923501 -0.02028128241033282 0.02669753734789507)
(-0.7526667607243214 -0.002829965667577398 0.006801408320467799)
(-0.8468649809803278 0.01348255893679689 -0.04103996239194806)
(-0.862845567848762 0.0138628962420671 0.06820076330632721)
(-0.8796040316060701 0.01826213073609417 0.02523035980661)
(-0.9104381828031731 0.009339937532973245 0.004120514104580388)
(-0.8299508315975302 0.005958933543098879 0.03930315931855557)
(-0.9065896314192313 0.009958021818041013 -0.02223550497211068)
(-0.8529519249120887 0.01367740076094452 0.01267599604823993)
(-0.8410286269091469 0.01096650651836617 -0.0325212584495182)
(-0.8154518655020387 0.001537330955447287 -0.05731558213355042)
(-0.8124661830334277 0.002784349061966984 -0.06272661639023891)
(-0.7845341187515538 -0.00537477631283821 -0.05546218477997096)
(-0.7510431807323412 0.001846261715601003 0.00692878850354035)
(-0.748447396101469 0.001674187210301428 0.02321664194511387)
(-0.8030539534774472 -0.0005175465545101482 0.009949613034569434)
(-0.8356929390018988 -0.0005576847265648225 0.01453732481113013)
(-0.8509143063826786 0.001367504825832733 0.00269357345685691)
(-0.795017001868447 -0.004500939519531242 -0.006326554750832514)
(-0.797058360113073 0.004060170855206212 0.008590963245840966)
(-0.7951399931863592 0.00575072982116384 0.01346875997152439)
(-0.7777450200435885 0.0003325064203260019 0.006844331284477343)
(-0.7639795534014139 0.001020717343446228 0.01383842148144889)
(-0.7847270267611841 0.001159632380088425 0.005274257149394127)
(-0.7648540097063273 -0.002527680232670569 -0.003895800620084513)
(-0.7678143748791015 0.006988404454381971 -0.02037791443797286)
(-0.7405117287130183 0.005079432038643814 -0.01615671002092007)
(-0.6838689047072009 -0.0001844695016755644 -0.0210241072709417)
(-0.6717436565133481 -0.003407284381440134 -0.01699485786534789)
(-0.6287418508666436 -0.01150250118591988 -0.02645236700114601)
(-0.6395638835100281 -0.002345640649924549 -0.01303022382557667)
(-0.6083976968116935 -0.008813060154322098 -0.004793249128298446)
(-0.6363750630248021 -0.004758549998979949 -0.0005161868186239989)
(-0.6670474566611553 -0.005843712305034476 -0.02032760605011567)
(-0.6227538149385147 -0.00584970016347856 0.01225638477104958)
(-0.6729124950967424 0.01068273792050985 -0.0007535374405353828)
(-0.6067519859121 0.08100583010642029 0.08035769277478486)
(-0.6494792589456815 0.005938803100879951 0.006055657436329642)
(-0.6599867208961581 -0.00223151303679071 -0.01201463575407754)
(-0.682438561974014 0.0009123541836712924 -0.03768743607966171)
(-0.7289907923474278 0.004509561357049769 -0.03821832308006361)
(-0.7182699584338905 0.0003980602844288221 -0.02365418777031743)
(-0.6760210654164338 -0.003462337638094151 -0.05011520658764178)
(-0.6932855668983169 -0.008021268520835692 -0.07675451582835344)
(-0.7164392662391098 -0.004507721112519725 -0.08769240960503323)
(-0.6904298810845072 -0.008000038732877589 -0.06197226681104989)
(-0.7855554505129029 0.004403560210190288 0.01168378482350252)
(-0.7925688810426235 -0.008881664551100676 -0.0216760070234273)
(-0.7734879350667211 -0.002438290212686898 -0.03449919973288644)
(-0.7597892215786207 0.004448778875368004 0.04089145354495909)
(-0.762205779475163 0.01411756763275515 0.03694911631510842)
(-0.831950053704025 0.008407843353889648 0.03352347684785877)
(-0.7995192513731251 -0.005688043495152279 0.02575566530034617)
(-0.754269199340598 -0.01638329436945343 0.01942863439495482)
(-0.7023145923085164 -0.003654930371094938 0.006111289522538845)
(-0.7039074901041248 0.002269042468752671 -0.003689789560679886)
(-0.6957034141997074 -0.01132122056978897 0.01945846096601887)
(-0.6730182255954029 -0.01345696899419786 0.03912376186432237)
(-0.7072955650285454 -0.02060874694431653 0.02646349740600439)
(-0.7500344701445383 -0.002584095535101854 0.007758032792103937)
(-0.8459035785312783 0.01395069529273768 -0.04022159554156512)
(-0.8600532000716468 0.01418054515110334 0.06967635653529489)
(-0.8786312357814962 0.01879255561374889 0.02474751374561299)
(-0.9085695270607337 0.01025719812818776 0.003118578492366785)
(-0.8283379336299848 0.006130684091819405 0.03973254232237508)
(-0.9053429335744305 0.009966177585339521 -0.0226560061728116)
(-0.8519530186630033 0.013730320766411 0.01250167239509108)
(-0.8379866525749801 0.01093630934153873 -0.0325467311676798)
(-0.8129070911466603 0.001509151647585 -0.05819679429098784)
(-0.81024004816454 0.002767846933660553 -0.06327629245536903)
(-0.7816279087253389 -0.005573347260436004 -0.05637282848270412)
(-0.7477907468731321 0.001745762560422026 0.006727622442789157)
(-0.7450335026372769 0.00171213610972288 0.02353911571393325)
(-0.7996212474113126 -0.0005933673466458425 0.009870375799235671)
(-0.8332006155695102 -0.000428321114304927 0.01488751020399895)
(-0.8498590052535232 0.001343418244968184 0.003002088416975576)
(-0.7921657205056534 -0.0043566982524871 -0.006941036961792753)
(-0.7952354679633022 0.004245498516272721 0.007946389991836588)
(-0.7928235079813968 0.00583188931042595 0.01322503911466586)
(-0.7752836128514162 0.0003351379879765648 0.006568440352345254)
(-0.7611746056071171 0.001106009956290178 0.01354522952341717)
(-0.7825373198702859 0.00110849887827824 0.005241241326344173)
(-0.7622735246583685 -0.00253764661396354 -0.003895321185322139)
(-0.7662441589531847 0.007023141083266492 -0.02100147137332059)
(-0.7389364315391592 0.005140254399106565 -0.01657281853302493)
(-0.6815843620245041 -3.646998517838973e-05 -0.02185812578596625)
(-0.6690547926336169 -0.003387867038901602 -0.01750146546480182)
(-0.6253506124704598 -0.01157894929186916 -0.02646516027332957)
(-0.636367550831123 -0.002509039106538494 -0.01367420780442332)
(-0.6041140086607113 -0.008956179331917143 -0.005139526984459292)
(-0.6318954814778506 -0.004773757397042661 -0.0004904937950351144)
(-0.6637227181942764 -0.005995031811201063 -0.02028261723116659)
(-0.6196561236763916 -0.005921746126757917 0.01242544795887765)
(-0.6692074937170104 0.0108383095339183 -0.001129301340071556)
(-0.6019338618065538 0.081031551803996 0.08058424079423188)
(-0.6448620685691838 0.005747635881297093 0.006702703134634351)
(-0.6541519048370171 -0.00261773636523879 -0.01102291166288433)
(-0.6763314198642353 0.001165871837603733 -0.03770155610962486)
(-0.7256372609205224 0.004291639548006439 -0.03774085079021285)
(-0.7140253844054318 0.0003032122050771198 -0.02274055585800271)
(-0.6703825936579847 -0.003596607548117851 -0.04977602879835582)
(-0.6876147488066159 -0.007665121705299148 -0.07714610879917196)
(-0.7117510720428869 -0.00445781781934941 -0.08789357586441057)
(-0.6845851865552653 -0.007882163697740243 -0.06284985207756798)
(-0.7829428067184419 0.004239591513646721 0.01168266798957948)
(-0.7893162334616756 -0.008918150386614265 -0.02074943352372609)
(-0.7727343621158924 -0.002967312162236277 -0.03590310331060154)
(-0.757666171038292 0.004373645398098743 0.04064612710194646)
(-0.7593704153978291 0.01407980536391536 0.03687703200352821)
(-0.8296736980407174 0.008676867026215195 0.03402266782995454)
(-0.7969889448896371 -0.005642285126230632 0.02629309258291911)
(-0.7527138969295746 -0.01636212851394462 0.01945471360000767)
(-0.7003516461298186 -0.003567654444565005 0.006130826563422609)
(-0.7009796847878308 0.002617578167001459 -0.004163800844537647)
(-0.6925231617667611 -0.01119347621369158 0.01921895938693734)
(-0.6700971286014399 -0.01373525756353303 0.03870516547916585)
(-0.7033614986147008 -0.02097428430374828 0.02623603740104418)
(-0.7466817299899179 -0.002292332289594863 0.008902284715662866)
(-0.8442982548709945 0.01445938714159464 -0.03909606009143231)
(-0.8563929182337605 0.01462036649483262 0.07148334086560137)
(-0.8775587376764944 0.01950703683134099 0.02398507364799696)
(-0.906328943439912 0.01150631411705385 0.001670583900240118)
(-0.8264754665342194 0.006353267893044738 0.04020958722668535)
(-0.9036780115549069 0.0099845075539135 -0.02319262745103636)
(-0.8509605253896062 0.01382369426007843 0.0121074884886559)
(-0.8340230228424113 0.01084006860894943 -0.03241692647904483)
(-0.8097743240941787 0.00146203112640658 -0.05931888473596832)
(-0.8074552999304252 0.002712843923225734 -0.06390041049470399)
(-0.7781901069000509 -0.005799571040062678 -0.05758567238468126)
(-0.7438537113635624 0.001616411068900026 0.006510984889997184)
(-0.7409041066056143 0.001774636255221461 0.02394624629769235)
(-0.7953488511331366 -0.0006834951686882022 0.009771960917768918)
(-0.8301088210051963 -0.0002205705822024176 0.01526971590207896)
(-0.8486090862055776 0.001312626852032527 0.003381464670020052)
(-0.7886814654173964 -0.004155646941319813 -0.007743308294694322)
(-0.7930389724757437 0.004493149960778071 0.007132978289678718)
(-0.7899452657784295 0.005909804147505664 0.01287290719931492)
(-0.7722804761365246 0.0003350964201961813 0.00621925079418148)
(-0.7577779487609811 0.001219051465544729 0.01317058404624356)
(-0.7798466028730759 0.001039141068837497 0.005178683711856874)
(-0.7591408739091545 -0.002539723548763426 -0.003882993468930845)
(-0.764338727231663 0.007063469318936786 -0.02180672714344608)
(-0.7369900348574265 0.005211874244072346 -0.01713260950888022)
(-0.6787828479449662 0.0001529508836357945 -0.02292232043477893)
(-0.6657508507563832 -0.003353042498329472 -0.01812469651665084)
(-0.6212215031519011 -0.01168485992559383 -0.02644040046837329)
(-0.6324306675019127 -0.002705637213521124 -0.01445156226007573)
(-0.5988800286991618 -0.009121866527003829 -0.005514798728730284)
(-0.6263175466595962 -0.004789519382438309 -0.0004036273054549343)
(-0.6596377424130626 -0.006178356153759244 -0.02020819330864457)
(-0.6158274016701636 -0.005994929423763298 0.01263643671021041)
(-0.6644512527154272 0.01103319951342955 -0.001576047498524505)
(-0.3783115454594681 0.09084734194770125 0.07134051609504012)
(-0.3801058130020746 -0.005133788821694009 0.04290321676528368)
(-0.3478218182112298 -0.02494624313192395 0.02894553254720687)
(-0.3653403689244409 0.00626997678034817 -0.02752461224206006)
(-0.5010300709107541 0.004009620572014649 -0.02334607986001669)
(-0.4824406669085086 -0.006151833154801194 0.01281094783109423)
(-0.3801871726585548 -0.01627007748340524 -0.02890540190972065)
(-0.3745697596174606 0.006747733827013214 -0.08577330881875508)
(-0.4390023094420883 0.001333997644676082 -0.09257914405953473)
(-0.3799923147329328 -0.006009381569722262 -0.1035447917701179)
(-0.5523905674380504 -0.002604625988699975 -0.0164514387168381)
(-0.5751655731096494 -0.0137031969575389 -0.007509101060209894)
(-0.6679018355515123 -0.01674080809391583 -0.08770216227834664)
(-0.6384437621233845 -0.001675177808062613 0.02083657774409735)
(-0.6120064968927963 0.01509794879497468 0.03156727009146998)
(-0.6656065494240342 0.02155758639617729 0.05163318100790573)
(-0.6608344164997599 0.009400633853772433 0.04289653953890724)
(-0.6515925266505613 -0.004534445104770204 0.01865205510205132)
(-0.60063196886652 0.0114724316620699 -0.004159721504766686)
(-0.5471268869370604 0.01395909298161033 -0.03649472252326894)
(-0.5245673142693442 0.0009054626412421931 -0.004894434214608081)
(-0.5114650188958612 -0.01859380117692975 0.01025769551188809)
(-0.5155784024236854 -0.03976416289413716 0.001039170272924427)
(-0.5553566351917152 0.008439089104016053 0.05567531283378664)
(-0.7256392891693491 0.04523221388959831 0.02129715624726234)
(-0.6540170509776394 0.0469587472032837 0.1490505015146935)
(-0.7814498156289741 0.03863625453928619 0.02309561246493839)
(-0.7797433717337721 0.05020590763372135 -0.03973970176318201)
(-0.6870346057800433 0.02721697753405132 0.0470134020026567)
(-0.7598854606395784 0.01628998286180266 -0.03959674068478814)
(-0.7313163732682521 0.01701863127273314 -0.00776275085038077)
(-0.6400278049135774 0.007444567506808318 -0.02969653158631208)
(-0.6051423525929133 -0.001472327506404687 -0.1001983482519613)
(-0.6029278426749228 -0.001908124339560499 -0.1038038015259318)
(-0.5613196412094265 -0.02137940166652735 -0.109405842117258)
(-0.5158573861975773 -0.009096006179283656 -0.019622133103327)
(-0.5204724506506619 0.0004610437507229848 0.03277483399124422)
(-0.5599947164339494 0.001041492696368186 0.01199999195466539)
(-0.6177202115729935 0.006478972493685 0.02731982494380171)
(-0.6905329480169337 0.007148130714434326 0.007938139220998069)
(-0.6297352485718964 0.001544643646004329 -0.03435292412868757)
(-0.6642005633969624 0.01840823406682932 -0.04886675688292756)
(-0.6426190532075683 0.01249066299864581 -0.007196416751179623)
(-0.6125402873127503 0.002590058908434663 -0.01817731855110464)
(-0.5690437824140979 0.00292345349797396 -0.01404898576220294)
(-0.6006825068675015 -0.001055051413876051 -2.920925985272927e-05)
(-0.5772184165957814 -0.004004957318176842 -0.00819610583827546)
(-0.6386755858772527 0.008780557512001221 -0.05342268065642766)
(-0.6051565083030931 0.005757010280969596 -0.05520985998272042)
(-0.5329271094481181 0.007426685773919682 -0.06921262674114081)
(-0.4829698182044913 -0.006307805571129832 -0.05254323888697353)
(-0.4104014712145324 -0.01890236053461503 -0.03935361554754492)
(-0.4149123762690365 -0.01115826979538368 -0.05463775913701983)
(-0.3352871865261687 -0.0194730714739756 -0.02996156286911827)
(-0.3560546717984928 -0.005611449605326686 -0.0005292183815632972)
(-0.4261454189912708 -0.01427898978446799 -0.01921947646513665)
(-0.4044820274501097 -0.0092325254717584 0.01975586492872852)
(-0.4466200199151687 0.01459590258912683 -0.0302368844892833)
(-0.3726125793974671 0.09151630283806941 0.06800393193856583)
(-0.3740349226137608 -0.005378513510848358 0.04362152918356615)
(-0.3409498053837965 -0.02560440594501426 0.02968004012793097)
(-0.3582018449450542 0.006325382990948283 -0.0271737064206654)
(-0.495841399209451 0.004165601944998089 -0.02330191911890519)
(-0.4769430151253182 -0.006367164780692516 0.01353452363927279)
(-0.3738291582127325 -0.01686613175165866 -0.02821310219078008)
(-0.3671110647227741 0.007107819481365932 -0.08573436826941232)
(-0.4326392728486847 0.001620773729599304 -0.09270775072447394)
(-0.3723489610177091 -0.005991060581334254 -0.1044920144419058)
(-0.545161185904571 -0.002806533393298828 -0.0176674437468059)
(-0.5684222449999805 -0.0138428778917412 -0.007398617906409709)
(-0.6642114303919248 -0.01700347292186895 -0.0888394113565716)
(-0.6354196318600694 -0.00199869599326771 0.02022848571262919)
(-0.6084310804613429 0.01514347842922802 0.03122233376376625)
(-0.6614475719518491 0.0217974858119333 0.0521246876140157)
(-0.6574019229257149 0.009912721737995886 0.04352829697373403)
(-0.6491368364527106 -0.004162497772277752 0.0187808424850966)
(-0.5979701165173319 0.01200909139678115 -0.004559389894475054)
(-0.5436461664930516 0.01444041632916575 -0.03733011402248154)
(-0.5205083142036726 0.001476792824251418 -0.005386967119175896)
(-0.5077343807475826 -0.01838481861531254 0.009788555324291622)
(-0.5125386555786322 -0.04032721374923896 -0.0001007857498425534)
(-0.550425251369456 0.008649213642628814 0.05661132380409527)
(-0.7230927977796968 0.04616303240807001 0.02260622975667029)
(-0.6476106987847221 0.04755176703385677 0.1503526082790203)
(-0.779037293448653 0.03897668471049459 0.02376519647037707)
(-0.7764055846235046 0.05102297816955012 -0.0402053614429068)
(-0.6833569703906279 0.02757748635272457 0.04752100601932409)
(-0.7562040097379559 0.01659513197092422 -0.03975800914302993)
(-0.728047629335636 0.01712373205065709 -0.008047050624400025)
(-0.6350850229205438 0.007470327591380105 -0.02945137194862352)
(-0.5995769531160245 -0.001416439571109722 -0.1011086032040086)
(-0.597242708457022 -0.002100822976754762 -0.1048572366271183)
(-0.555508025022225 -0.02190798956069442 -0.1104220531419781)
(-0.5097778295431448 -0.009487856435258176 -0.02082570850260464)
(-0.5149220090632571 0.0005183532862994252 0.03278158030128422)
(-0.5542861683659184 0.001026554410422914 0.01215892911722564)
(-0.6110108136656791 0.006710652715489425 0.02761780759649428)
(-0.6863841846055377 0.007274745056774494 0.008335421066404088)
(-0.6255732458696567 0.00164297138473334 -0.03479632949083095)
(-0.6606473286172316 0.01884025139894094 -0.05056364196911244)
(-0.6388585284551833 0.01268024424128921 -0.00759075482981573)
(-0.6085596739968917 0.002692790342569997 -0.01880862153599447)
(-0.5640471467678543 0.002881420587500293 -0.0150532459651629)
(-0.5961521720446257 -0.001167730289861023 -0.0002418171569644649)
(-0.5724815869079238 -0.004134877044094294 -0.008408002203176786)
(-0.6351320089188541 0.008874682547647325 -0.05418158922209441)
(-0.6016743795639976 0.005767392009545749 -0.05594508796479834)
(-0.5297781533115763 0.007614918326027243 -0.07048065568356382)
(-0.478486183788539 -0.006505960753627518 -0.0539322868453887)
(-0.4055951371491788 -0.01916782871522036 -0.04000668016236741)
(-0.4098625874109111 -0.0114176754442121 -0.05568114202852027)
(-0.3294071535186201 -0.01990478403867963 -0.0308738077949544)
(-0.3498042091666835 -0.00573608991270134 -0.0009236164971309843)
(-0.4201285338364605 -0.01442111330772037 -0.01905986587164311)
(-0.3995111734859705 -0.009239889401303231 0.02029527886304211)
(-0.4412453598403144 0.01463655326126668 -0.03174139988404726)
(-0.3674269383213357 0.09194202258584135 0.06461947795384891)
(-0.3681760478824473 -0.005547665564911701 0.04434127408993499)
(-0.334504125872888 -0.0262963029274663 0.030396072965988)
(-0.3515263826069315 0.006302147262016589 -0.02678442039032276)
(-0.4906895896376747 0.004435459576778491 -0.02333444816165332)
(-0.4719136507747519 -0.006597638790029153 0.01406534966355973)
(-0.3676996530080008 -0.01759941622936679 -0.02753979011214519)
(-0.3599010749284698 0.007416125547301781 -0.08557252317375474)
(-0.4261835307872038 0.002023179658798232 -0.0929048881205931)
(-0.3650792620781037 -0.00599130258868739 -0.1052472654972221)
(-0.5377628821311001 -0.002965511623374349 -0.01876634699017295)
(-0.5614086910778067 -0.01396688217647801 -0.007279702458768203)
(-0.6599496989189251 -0.01716447727658233 -0.08980080501482338)
(-0.6325777572388149 -0.002378929566618587 0.019580263916854)
(-0.6053449539794444 0.01521543624104871 0.03072992266267028)
(-0.6576588292455805 0.02208609026466061 0.05261226848121049)
(-0.6541862767653572 0.01042135854147497 0.04403873111180925)
(-0.6469332821612956 -0.003738987035005956 0.01892074007786707)
(-0.5959154447499033 0.01265890668028751 -0.005121712604200832)
(-0.5407944079128403 0.01493206806427244 -0.03832256576306389)
(-0.5168183245356053 0.002010052169701903 -0.005888570943731666)
(-0.5042313330730143 -0.01802899937682874 0.009327580758664732)
(-0.5099446496787799 -0.04098966117131208 -0.001350665591347068)
(-0.5455977564940115 0.008863602632916858 0.05748913926698486)
(-0.7198410853142374 0.04694807059871504 0.02393735610749016)
(-0.6415887176419415 0.04821128488167337 0.1515201686532252)
(-0.7765875851721624 0.03934011867433163 0.0244173580176531)
(-0.7733491345712139 0.05173442697474948 -0.04048188135919623)
(-0.6796521744806543 0.02810556969602576 0.04788683908618244)
(-0.7525151326892414 0.01700586689512838 -0.03994230445267436)
(-0.7248315516249625 0.0172169691631858 -0.008495071184367009)
(-0.6301286843147953 0.007515344555817198 -0.02897474662625921)
(-0.593635420787315 -0.00140136096953243 -0.1017442084015456)
(-0.5912970815417434 -0.002370467238590603 -0.105875342992888)
(-0.54969983359233 -0.02249998063729252 -0.1113403918714249)
(-0.503876555819476 -0.009855335734435635 -0.02202916770364953)
(-0.5097825448208315 0.0006137934612967392 0.03262562151868476)
(-0.5489008575859781 0.001070932733822212 0.01240205119948613)
(-0.6045475873019749 0.006945965693956439 0.02794625105201996)
(-0.681841779561988 0.007497976185128496 0.008841351497447435)
(-0.6216561607115811 0.001674874617573151 -0.03503089792550663)
(-0.6570141331554225 0.01931678210874125 -0.05242046385570881)
(-0.6351687526038523 0.01288519780928016 -0.008051133413959476)
(-0.6047136113276994 0.002857844043992894 -0.01952248711167174)
(-0.5591947270325109 0.002796215318840287 -0.01610150650398696)
(-0.5916009176666326 -0.001293162240710464 -0.000529365977761904)
(-0.5678976400120767 -0.004322299551443877 -0.008603104248942402)
(-0.6314678933402611 0.008986406584242818 -0.05488417358742823)
(-0.5981463118824684 0.005792818722747142 -0.05668469121723053)
(-0.5267673260779291 0.00776674836830058 -0.07185512423281275)
(-0.4743833888995749 -0.006712193517233566 -0.05567065566076963)
(-0.4012997198900468 -0.01951583616936992 -0.04078433606865415)
(-0.4050287026073719 -0.01170904703595064 -0.05663265675734359)
(-0.3238825846036015 -0.02037859140953608 -0.03175668507008728)
(-0.3438528852786509 -0.005906136869539433 -0.001421941599282252)
(-0.4141050583540562 -0.01452748841318075 -0.0187842964068001)
(-0.3946895466089457 -0.009192153121180872 0.02090750241592384)
(-0.4362716240925883 0.01460356934057555 -0.03341573352106003)
(-0.362976881879183 0.09206578242103684 0.06125113753778915)
(-0.362726425040083 -0.005621938770423749 0.04504341957733174)
(-0.3287385146515869 -0.0270125170019415 0.0310691335532073)
(-0.3455754684987831 0.006183558592751694 -0.02635633153917383)
(-0.4857140248424908 0.004838012118992483 -0.02346434904564058)
(-0.4675732949291357 -0.006840494571149295 0.01435085103515288)
(-0.3620083904481395 -0.01848279614133564 -0.026902947476581)
(-0.3531689149002229 0.00765443144837531 -0.08526410144985454)
(-0.419784993109271 0.002554617368800569 -0.09317866350304242)
(-0.3584337954463057 -0.006014931563945128 -0.105751928458192)
(-0.5303342366061906 -0.003067622313736462 -0.01970241491704794)
(-0.5542355023826516 -0.01406927086287444 -0.007156616409881421)
(-0.6551004989400684 -0.01719730106653797 -0.09052631220439498)
(-0.6300302706470142 -0.00281955402020727 0.01889823574357829)
(-0.602925569835154 0.01531909680678055 0.03007135766879417)
(-0.6544133824009272 0.02242504727823351 0.05308303839443722)
(-0.6513112587416197 0.01091525752802009 0.04439188835735389)
(-0.645087806440889 -0.003264374609544916 0.01906821468876693)
(-0.5946407750634323 0.01343010303015422 -0.005866720735924623)
(-0.5387760530947754 0.01542409685172224 -0.03947935190309482)
(-0.5136670905789604 0.002487480580630023 -0.006389453684549295)
(-0.5010897544819577 -0.01750440302669337 0.00888930357714238)
(-0.5079623314614008 -0.04175827819101111 -0.002709183709775553)
(-0.5410003117982454 0.00907458462493229 0.05827495238647049)
(-0.7158314234382672 0.04754010224791314 0.02525605575506346)
(-0.6361693703946495 0.04893695917794375 0.1525001174506815)
(-0.774157214991724 0.03971786734455703 0.02504175138084907)
(-0.7707115267517315 0.05229876488645711 -0.04052286670084181)
(-0.6760015920216802 0.02882346181688569 0.04807661616353873)
(-0.7489077159384041 0.01753445614272749 -0.04015159062517818)
(-0.7217501713819358 0.01729461910701782 -0.009125052572991916)
(-0.6252772439991263 0.007580774517082002 -0.02823322890826195)
(-0.5873815418607291 -0.001436047774688184 -0.1020304727928151)
(-0.5851795995145102 -0.002726713251960592 -0.1068235850095146)
(-0.54403659889203 -0.02315611295700365 -0.1121175000960868)
(-0.4983374468133427 -0.01018577864397229 -0.02320976204387442)
(-0.5052674871994919 0.0007533844726500679 0.03227948446216274)
(-0.5440458862383725 0.001186221234093791 0.01273931366334652)
(-0.5985247792017288 0.007180473004460114 0.02830292448532426)
(-0.6769379942872695 0.007832544058122155 0.009464570183173468)
(-0.618128530984639 0.001625421197031957 -0.03500689794924193)
(-0.653374601737198 0.01983548939731727 -0.05442810009688967)
(-0.6316606207575224 0.01310451288700069 -0.008578708983646965)
(-0.6011264086459941 0.003093464601219262 -0.02031924681121415)
(-0.5546349396666481 0.002660519845617462 -0.01717980872991629)
(-0.5871396919691225 -0.001430847152932392 -0.0009005770450663895)
(-0.5636093474750657 -0.004574952719001907 -0.0087741850080711)
(-0.6277472813368941 0.009116784576794532 -0.0555004107403242)
(-0.5946509920287724 0.005835053566607556 -0.0574096657245718)
(-0.5240045175353107 0.007871408528533902 -0.07332461455589522)
(-0.4708405784971013 -0.00692476647549368 -0.05778702243728458)
(-0.3977291051868945 -0.01995554020668676 -0.04169620292519254)