/*--------------------------------*- C++ -*----------------------------------*\
| =========                 |                                                 |
| \\      /  F ield         | OpenFOAM: The Open Source CFD Toolbox           |
|  \\    /   O peration     | Version:  v1812                                 |
|   \\  /    A nd           | Web:      www.OpenFOAM.com                      |
|    \\/     M anipulation  |                                                 |
\*---------------------------------------------------------------------------*/
FoamFile
{
    version     2.0;
    format      ascii;
    class       volScalarField;
    location    "10000";
    object      nut;
}
// * * * * * * * * * * * * * * * * * * * * * * * * * * * * * * * * * * * * * //

dimensions      [0 2 -1 0 0 0 0];


internalField   nonuniform List<scalar> 
3770
(
5.78370556666247e-06
5.779386724448209e-06
5.782007271379794e-06
5.783653003695313e-06
5.779387009142612e-06
5.782007287341053e-06
5.783653009733954e-06
5.779386735518009e-06
5.782007301327175e-06
5.783653023830301e-06
5.779387054133555e-06
5.782007046569158e-06
5.783652732447181e-06
5.779387015519515e-06
5.782007084152579e-06
5.783653056965548e-06
5.77938702319331e-06
5.78200702543226e-06
5.783652685649609e-06
5.779387369269383e-06
5.782006949302971e-06
5.783657666179968e-06
5.779901062839038e-06
5.782195360171991e-06
5.782331651790724e-06
5.779873055942276e-06
5.779761498391709e-06
5.953682981266034e-06
5.956505347850622e-06
5.783656533243188e-06
5.782085968226933e-06
5.779898513477659e-06
5.779777903102432e-06
5.954375763707989e-06
5.951925078453848e-06
5.954066066041562e-06
5.956511680405637e-06
5.783784449000568e-06
5.783699692088403e-06
5.782050341596621e-06
5.779892811589735e-06
5.779759157399065e-06
5.953681420754656e-06
5.956495636802484e-06
5.783582066523724e-06
5.783350113311586e-06
5.783234475140429e-06
5.779387193984421e-06
5.782006690957014e-06
5.783652864800407e-06
5.779386788257929e-06
5.782007198333706e-06
5.783652865965932e-06
5.779386858240665e-06
5.782007178314277e-06
5.783652982052218e-06
5.779386997536212e-06
5.782006086223074e-06
1.028319225029866e-05
1.026225043463147e-05
1.02679736446449e-05
1.028283564417593e-05
1.026226591724877e-05
1.026797656945041e-05
1.028283737022595e-05
1.026226350352246e-05
1.02679775975393e-05
1.028283902660114e-05
1.026227101612065e-05
1.026797700690135e-05
1.028283775698425e-05
1.0262271247939e-05
1.026797986095441e-05
1.028284022832917e-05
1.026227147398351e-05
1.026798046377973e-05
1.028283824431125e-05
1.026227495050508e-05
1.026797830234341e-05
1.02828422166937e-05
1.026234201016758e-05
1.026802637914215e-05
1.028257783933696e-05
1.026142073089376e-05
1.030421013496094e-05
1.45396591187334e-05
1.436214829418649e-05
1.031361762975789e-05
1.03005597858496e-05
1.026137262139028e-05
1.030490606325154e-05
1.451978840010474e-05
1.449363915157242e-05
1.454534098740202e-05
1.436506058597613e-05
1.028271661343605e-05
1.031266650257135e-05
1.030078894944336e-05
1.026140403543158e-05
1.030414365379927e-05
1.453956676223956e-05
1.436542769790733e-05
1.028267112036467e-05
1.031245418860796e-05
1.030097817140313e-05
1.026227295002826e-05
1.026792794538144e-05
1.028281703488998e-05
1.026224388078637e-05
1.026795963452287e-05
1.028281918215444e-05
1.026225565603538e-05
1.026796556893955e-05
1.028282833599904e-05
1.026225823410004e-05
1.026797294675463e-05
7.567872403348145e-05
7.543389986298684e-05
7.553472079832679e-05
7.567162040463435e-05
7.543481760738374e-05
7.553467867656627e-05
7.567166712927366e-05
7.543484579386704e-05
7.553468458637244e-05
7.567168025755856e-05
7.543484775191482e-05
7.553464980728532e-05
7.567167440894877e-05
7.543487075053702e-05
7.553468388848826e-05
7.567165613290552e-05
7.54348676725578e-05
7.55347053113772e-05
7.567164095549781e-05
7.543483489651971e-05
7.553469105007095e-05
7.567170480211684e-05
7.543562507682347e-05
7.553494628724135e-05
7.567017265354871e-05
7.542473625566822e-05
7.585685975003074e-05
8.516369761095179e-05
8.488344362828745e-05
7.55937371012428e-05
7.560561515780067e-05
7.542279700400896e-05
7.585009546271068e-05
8.506723360425866e-05
8.505084519448135e-05
8.517522129591563e-05
8.489002799844676e-05
7.569366413775261e-05
7.56276839873877e-05
7.564117881249404e-05
7.542415182559542e-05
7.585643597245486e-05
8.516408596268978e-05
8.489108611159477e-05
7.569425154450243e-05
7.562770482894304e-05
7.564270638937678e-05
7.543440053121183e-05
7.553429491228733e-05
7.567144229453906e-05
7.543462804462532e-05
7.553450119232543e-05
7.56714779836118e-05
7.543472386879483e-05
7.553457673615331e-05
7.567155600242092e-05
7.543479755643302e-05
7.553555474060794e-05
0.0002779235357201102
0.0002777879605290023
0.0002778345885987101
0.0002779190697237609
0.0002777887364991552
0.0002778346593533254
0.0002779191079478951
0.0002777887898859396
0.000277834677931348
0.0002779191412055478
0.0002777888132499224
0.0002778346812523452
0.0002779191437458547
0.0002777888405378917
0.0002778346793500967
0.0002779191369291968
0.0002777888055113931
0.000277834731625763
0.0002779190740472814
0.0002777887946928503
0.0002778344417099354
0.0002779190011390981
0.0002777884526859654
0.0002778339248025941
0.000277915727081061
0.0002777739335389899
0.0002780232023365468
0.0002836545652381122
0.0002834582227073748
0.0002778952357893433
0.0002778977931668194
0.0002777713376750358
0.0002780116585964185
0.0002836156534016046
0.0002835871908803857
0.0002836546395380902
0.0002834639170572791
0.0002779199423411627
0.0002779168432412637
0.0002779200680810255
0.0002777725979797714
0.0002780228073143878
0.0002836568603375217
0.0002834659591023927
0.0002779220687257607
0.0002779135251680492
0.0002779205416512655
0.0002777879425765263
0.0002778341530011548
0.0002779185593691104
0.0002777883932401782
0.0002778341590114331
0.0002779187338382261
0.0002777883985778111
0.0002778344250659164
0.0002779188676700544
0.0002777885674366139
0.0002778350144714138
0.0006229524322662504
0.0006229191167052982
0.0006229074067666137
0.0006229534883872613
0.0006229198094699661
0.0006229075481479059
0.000622953522046948
0.000622919883315812
0.0006229075882462483
0.0006229535605808129
0.0006229199141293964
0.0006229075993686695
0.000622953554691263
0.0006229199386538122
0.0006229075594478691
0.0006229535453052433
0.000622919843277035
0.000622907608897897
0.0006229533843119568
0.0006229198135088379
0.0006229069459793781
0.0006229529762232146
0.0006229183288668631
0.0006229050324126557
0.0006229481258888665
0.0006228923707357329
0.0006229961491043218
0.0006249739945745189
0.000624900119130143
0.0006230183529750016
0.0006229952399859108
0.000622894029550944
0.0006229770229752877
0.0006250340635610613
0.0006250048624520149
0.0006249709475127994
0.0006249082504979033
0.0006229458442095991
0.0006229945660198717
0.0006229967698655418
0.0006228919683183505
0.0006229967495194979
0.0006249788650141745
0.000624910792888406
0.0006229495462023414
0.0006229836134869017
0.0006229923881701775
0.0006229219726721046
0.0006229084918074409
0.0006229534984876919
0.0006229200353692517
0.0006229071163498475
0.0006229532966752354
0.0006229194770100943
0.0006229074699474172
0.0006229533426550879
0.0006229196854512484
0.000622907101135239
0.001059230334075054
0.001059244364185571
0.001059206405764673
0.001059234381499825
0.001059245101413286
0.001059206707782412
0.001059234501993739
0.001059245187771864
0.001059206753076354
0.001059234528108058
0.001059245189969534
0.001059206741096346
0.00105923449644811
0.001059245189278148
0.001059206672851166
0.001059234456933936
0.001059245036532338
0.001059206652852087
0.001059234227991355
0.001059244914475976
0.001059205898140118
0.001059233509144734
0.001059242931080696
0.001059202453216271
0.001059228652851
0.001059203109119001
0.001059247077691957
0.001059710815243301
0.001059679827276959
0.001059335054070929
0.001059309467346396
0.001059210895587252
0.001059220950964834
0.001059811625126176
0.001059790485191506
0.001059706457179322
0.001059693758285284
0.001059227605218767
0.001059293531550097
0.001059302795760889
0.0010592057613051
0.001059249847407154
0.001059717630982487
0.001059697829805652
0.001059231936089943
0.001059281969970216
0.001059295295496192
0.001059253951829287
0.001059211001055764
0.001059236541991015
0.001059246786489079
0.001059207195810536
0.001059235018006069
0.001059245217921689
0.001059207091851819
0.001059234672689137
0.001059245273038973
0.001059206292098949
0.001538610915800899
0.001538631867906058
0.001538593930440565
0.00153861404670543
0.001538632813119081
0.001538594296371174
0.001538614224614896
0.001538632883275498
0.001538594317462843
0.001538614214617066
0.001538632841240599
0.001538594259445579
0.001538614143235089
0.001538632793923677
0.001538594153571457
0.001538614051161829
0.001538632595585003
0.001538594055250773
0.001538613803982603
0.001538632370213001
0.001538593327916052
0.001538612818466282
0.00153863041691024
0.001538588604226103
0.001538609067055065
0.00153858643180575
0.001538613046409073
0.001538673449423352
0.001538643479167419
0.001538712123191833
0.001538704531172275
0.001538615056808984
0.00153858734938049
0.001538775257654941
0.00153876999996348
0.001538677640923351
0.00153866744742809
0.001538609263399833
0.001538671811341481
0.001538693602736005
0.001538603266867566
0.001538623285239445
0.001538681503619374
0.001538669587573419
0.00153861275522132
0.001538666836138621
0.001538686696726924
0.001538651508551452
0.001538603066350839
0.001538619524910969
0.001538636697209666
0.001538596306385023
0.001538615920964399
0.001538633762215713
0.001538595437524337
0.001538615031308374
0.001538633446080159
0.001538594450391584
0.002033570654003287
0.002033592793563839
0.002033558023306513
0.002033572349971425
0.002033593516318136
0.002033558385508868
0.002033572518986833
0.00203359353060144
0.002033558355880509
0.002033572448944063
0.002033593426336848
0.002033558236064884
0.002033572323952946
0.002033593317852701
0.002033558083335908
0.00203357217639677
0.002033593087852963
0.002033557906718139
0.002033571912150307
0.002033592748564025
0.002033557294043638
0.002033570721388126
0.002033591144022776
0.002033551611372491
0.002033569521820787
0.002033549000090732
0.002033567422847448
0.002033561870281412
0.002033526236682397
0.002033656556282251
0.00203366861289235
0.00203359128369232
0.002033543608868241
0.002033651837666787
0.002033664883262789
0.002033581694542692
0.002033562084059584
0.002033573066501231
0.002033627178745942
0.002033659738048817
0.002033577143442043
0.002033584808860208
0.00203357462569775
0.002033561161418933
0.002033574840976887
0.002033625496251183
0.002033651605487197
0.002033621461066236
0.002033572096740753
0.002033580931926525
0.002033599587276925
0.002033562330298198
0.002033575683781931
0.002033595555848947
0.00203356049309103
0.002033574106798731
0.002033594701994688
0.002033559473278183
0.002537280094964353
0.002537301830878852
0.002537271758602497
0.002537280879476544
0.002537302483536894
0.002537272034185109
0.0025372809895175
0.002537302415677467
0.002537271928284654
0.002537280839977903
0.002537302234574975
0.002537271732591169
0.002537280650310006
0.002537302052232852
0.002537271525850379
0.002537280441795579
0.002537301796203054
0.002537271270702413
0.002537280179865154
0.002537301355480702
0.002537270818908743
0.00253727879076018
0.002537300221958725
0.002537264445391764
0.002537279896040248
0.002537260755860818
0.002537273397963232
0.002537271236862372
0.00253723278692656
0.002537347722521858
0.002537377725575031
0.002537313986353252
0.002537255589971051
0.002537345509310696
0.002537376257954378
0.002537305579017371
0.002537277612128445
0.002537286905737529
0.002537330563049751
0.002537371554859361
0.002537299353069709
0.002537298082159946
0.002537287977206622
0.00253727335144457
0.002537286488267348
0.002537330545474315
0.002537361861850872
0.002537338522270763
0.002537291253527048
0.002537292524263329
0.002537310881781485
0.00253727821216003
0.00253728580879483
0.00253730580877632
0.002537275272005983
0.002537283484783833
0.002537304324346171
0.002537274059763265
0.003057906292346747
0.003057926892115943
0.00305790213230415
0.003057906205081899
0.003057927286876556
0.003057902235064038
0.003057906212106414
0.003057927113348657
0.003057902025895914
0.003057905962408443
0.003057926838407565
0.003057901738046663
0.003057905696155882
0.003057926570419785
0.003057901467212163
0.003057905414903929
0.003057926283216232
0.003057901129967969
0.003057905165968886
0.003057925755441109
0.003057900855741151
0.00305790361358129
0.003057925163128593
0.003057893985071758
0.00305790665717177
0.003057889530869599
0.003057896745754313
0.003057903295933509
0.003057863723720737
0.003057954794943824
0.003057998721211125
0.003057950620326909
0.003057886091056436
0.003057962094246824
0.003058006033651391
0.003057949777606026
0.003057916806094486
0.00305791662298576
0.003057949775947399
0.003057996440542025
0.003057936858036683
0.003057928464519998
0.003057924011458539
0.003057909116828597
0.003057913795495591
0.003057950373856118
0.003057985424409377
0.003057969974354137
0.00305792736975924
0.003057921242899478
0.003057938561762499
0.003057910940458593
0.003057912874674213
0.003057932125506388
0.003057906777805455
0.003057909761102733
0.003057929914446318
0.003057905200465201
0.003612302728892108
0.003612321705049625
0.003612302469561505
0.003612301827450804
0.003612321617430758
0.003612302294915936
0.003612301670853725
0.003612321300438003
0.003612301948292191
0.003612301295052104
0.003612320909244303
0.003612301544351447
0.0036123009336044
0.00361232053580232
0.003612301193542384
0.003612300564227345
0.003612320208047565
0.003612300767445333
0.00361230033047127
0.003612319582773079
0.003612300687785549
0.003612298621504413
0.003612319587981499
0.003612293437297332
0.003612303208461066
0.0036122886102445
0.003612290089628481
0.003612301997038222
0.003612263522753339
0.003612332406421569
0.003612385577001345
0.003612353690385679
0.003612288174101432
0.003612346222060338
0.003612398916510412
0.003612358641030611
0.003612323730358938
0.003612316415917617
0.003612339289426285
0.003612388313825641
0.003612342545754311
0.003612328747805489
0.0036123267347671
0.003612312982207673
0.00361231108906807
0.003612339586828326
0.003612376406611746
0.003612369335255175
0.003612333369969064
0.003612320537533818
0.003612336191859248
0.003612313886395269
0.003612310392554051
0.003612328269870333
0.003612308371742194
0.003612306445082823
0.003612325228077845
0.003612306276539269
0.004219805542009456
0.004219822401626454
0.004219808631625191
0.004219803758736851
0.004219821680877606
0.004219808055249568
0.004219803365302401
0.004219821160083946
0.004219807520725771
0.004219802823073973
0.004219820613441586
0.004219806968367777
0.004219802337586358
0.00421982010979216
0.004219806513205702
0.004219801860520399
0.004219819723311259
0.004219805989113264
0.004219801629460459
0.004219819008016859
0.004219806052766873
0.004219799830077485
0.004219819548609767
0.004219798655935621
0.004219805533563958
0.004219794101452016
0.004219790333169471
0.004219804444152158
0.004219768182825098
0.004219816595737654
0.004219874324240031
0.004219858952668087
0.004219797932423467
0.004219836050763243
0.0042198919063333
0.004219867812782508
0.004219834458939734
0.004219822165094308
0.004219835695427563
0.004219883268745806
0.00421985228041226
0.00421983543202098
0.004219833769964505
0.004219821119947748
0.004219813992254037
0.004219834923458553
0.004219871142976205
0.004219872703861848
0.004219844699677621
0.004219826551591807
0.004219839820007065
0.004219822900777055
0.004219814538650377
0.004219830408763459
0.004219815937705066
0.004219809635452554
0.004219826429953527
0.004219813085005062
0.004895877927631181
0.004895891982769505
0.004895883351926094
0.004895875254458124
0.004895890532001406
0.00489588222966558
0.004895874519179269
0.004895889721810561
0.004895881438356036
0.004895873759257432
0.004895888970490575
0.00489588069120596
0.004895873108026626
0.004895888297670085
0.00489588009627042
0.004895872494951692
0.004895887825445293
0.004895879466365772
0.004895872239270095
0.004895887001443311
0.004895879604868707
0.004895870432941997
0.004895888003213565
0.004895872436112552
0.004895876692453803
0.004895868438204767
0.004895859552655527
0.0048958740040596
0.004895842324034975
0.004895872537726941
0.004895928134647354
0.00489592856414219
0.004895876744516835
0.004895895824188938
0.004895948875678379
0.00489594125786123
0.004895912791738021
0.004895897640920608
0.004895902484441263
0.004895944958333519
0.004895928328673425
0.004895910746377147
0.004895908558533619
0.004895897786745303
0.004895886918323007
0.004895900429725114
0.004895932794237815
0.004895942924312632
0.00489592331786385
0.004895902249789137
0.004895912447753474
0.004895900673211785
0.00489588855778865
0.004895901634152622
0.004895892232301861
0.004895882608247985
0.004895896660139007
0.004895888426886677
0.005646301717831655
0.005646312324881908
0.005646307892873275
0.00564629812752435
0.005646310008661995
0.005646306074992954
0.005646296934883679
0.005646308800623312
0.005646304939590163
0.005646295884413681
0.005646307775109804
0.005646303941675022
0.005646295014457974
0.005646306887550808
0.005646303161440349
0.005646294233992603
0.005646306290565731
0.005646302421554808
0.005646293906546344
0.005646305374286566
0.005646302486467491
0.00564629219731188
0.005646306659862648
0.005646296126246075
0.005646298183768403
0.005646292997975404
0.00564628071903669
0.005646293745526761
0.005646267390851035
0.00564628244071274
0.005646328811527697
0.005646345196193378
0.005646304612980909
0.005646309040323928
0.005646352891610827
0.005646360041525939
0.005646339166249014
0.005646323452039465
0.005646320820036944
0.005646355650097298
0.005646351559646024
0.005646336282947314
0.005646333581695292
0.00564632426492937
0.005646310789621987
0.005646317942709739
0.005646343755403652
0.005646360993543269
0.005646349721297745
0.005646328891708963
0.005646335596774007
0.005646328226727062
0.005646314136330137
0.005646323718212707
0.00564631846683899
0.00564630713574356
0.005646317702738779
0.005646313499633145
0.00646352246235497
0.006463529370421654
0.006463527651606624
0.006463518138547151
0.006463526214723086
0.006463525115340737
0.006463516340613303
0.006463524485507429
0.006463523551969115
0.006463514921552361
0.006463523113900616
0.006463522242220033
0.006463513772662759
0.006463521955690062
0.006463521247119308
0.006463512781507483
0.006463521186443188
0.006463520338854914
0.006463512347971418
0.00646352014301104
0.006463520474713522
0.006463510691558398
0.006463521509503583
0.006463515318757045
0.006463515782070619
0.006463512675157258
0.006463498977948781
0.00646350915837019
0.00646348945138626
0.006463493202749704
0.006463525844228448
0.006463553379559819
0.00646352574771833
0.006463519797451171
0.006463552206002796
0.006463571436365957
0.00646355786311742
0.006463544771338338
0.006463536364910887
0.006463562337535383
0.006463567712773153
0.006463556144643497
0.006463553337155248
0.006463546195647788
0.006463532060706785
0.006463533796926305
0.006463551491211415
0.006463572536553774
0.006463568555555655
0.006463551507493415
0.00646355474737097
0.006463550492549024
0.00646353677981614
0.006463542514672549
0.006463539921732258
0.006463528861310143
0.006463535591888028
0.006463533935944705
0.007326718900693928
0.007326722592899675
0.007326722287886614
0.007326714006926533
0.007326718613396666
0.007326719198651796
0.007326711493957519
0.007326716255704939
0.007326717176307126
0.007326709623288905
0.007326714469202995
0.007326715524120079
0.007326708139037061
0.007326712989218331
0.007326714311079953
0.007326706896037137
0.007326711998089941
0.007326713191046486
0.007326706320447972
0.007326710701121813
0.007326713252349309
0.007326704635121003
0.00732671204567424
0.007326709196010767
0.007326708697001656
0.007326707031109106
0.007326693893119363
0.007326700650602194
0.007326687128232045
0.007326682501818288
0.00732670250315817
0.007326733902906248
0.007326718558297606
0.007326707528298615
0.007326729136068
0.007326754369897544
0.00732674734019794
0.007326738819804338
0.007326727871699161
0.007326744947432831
0.007326756665898877
0.007326748858735669
0.007326746884386647
0.00732674173952044
0.007326728684626539
0.00732672638473786
0.007326736750841814
0.007326757343547207
0.007326759563896236
0.007326747727727631
0.007326748599428586
0.007326746429987127
0.007326734705235372
0.007326737126819251
0.007326735968513814
0.007326726273761713
0.007326729621317449
0.007326729241674225
0.008205957682816234
0.008205958961560721
0.00820595930799045
0.008205952433071768
0.008205954366708007
0.008205955596424844
0.008205949198519863
0.008205951373206189
0.008205953061175053
0.008205946853291009
0.008205949144818321
0.008205951043908422
0.008205945014519102
0.008205947331484879
0.008205949559915349
0.00820594350659664
0.00820594606016805
0.008205948263943236
0.008205942749145453
0.00820594466272216
0.008205947998597982
0.008205941029517889
0.008205945667677074
0.008205944923551374
0.008205943692637392
0.008205943049027026
0.008205931505845308
0.008205935162631657
0.008205926922415696
0.008205917519819826
0.0082059282569468
0.008205955907492329
0.008205949884225358
0.008205938898366934
0.008205952137632392
0.008205977774793463
0.008205975947985542
0.008205972309233762
0.00820596216965277
0.00820597187748536
0.008205985870916052
0.00820598137020846
0.008205980635321937
0.008205977699022789
0.008205967260448564
0.008205962287432641
0.008205967909896363
0.008205983705892076
0.008205990977882337
0.008205983753141986
0.008205983817926881
0.008205983095698699
0.008205974140159984
0.008205974349357905
0.008205973779156016
0.008205965869872862
0.008205966704392607
0.008205966840439219
0.009068860565598203
0.009068860444901993
0.009068860612179952
0.00906885522647813
0.00906885564547155
0.009068856461828482
0.009068851421155917
0.009068852134057396
0.009068853425339241
0.009068848592224127
0.009068849432561499
0.009068851094673661
0.009068846423318171
0.009068847321384108
0.009068849303831159
0.009068844652265691
0.009068845695809884
0.009068847884438097
0.009068843691565529
0.009068844419020533
0.009068847056087423
0.009068841894699729
0.009068844461202413
0.009068845077375418
0.009068843355898318
0.009068843330221394
0.009068833895943313
0.009068835357987113
0.009068830479317462
0.00906881944778805
0.009068824421637908
0.009068844377535683
0.009068843879005117
0.009068836205368403
0.009068844129809614
0.009068865104801923
0.009068867660346626
0.009068867300599226
0.009068860349990696
0.009068865442545333
0.009068878422860454
0.009068876827099743
0.009068877321317422
0.009068876096911921
0.009068868635591937
0.0090688628214411
0.009068865510203247
0.009068875817657258
0.009068885514994386
0.009068882037743231
0.009068882333770859
0.009068882843749817
0.009068876500083469
0.009068875741283991
0.009068875425484669
0.009068869153336137
0.009068868618534521
0.009068868493084234
0.009886994475946698
0.00988699369223729
0.009886993803355617
0.009886989326097618
0.009886988906994279
0.009886989085145218
0.009886985117222859
0.009886985190789843
0.009886985655747721
0.009886982008491961
0.009886982222492062
0.009886983066611836
0.009886979557268747
0.009886979796005054
0.009886980978774065
0.009886977557561755
0.009886977965480688
0.009886979425281606
0.009886976314343739
0.009886976409153566
0.009886978141149366
0.009886974484305144
0.009886975700798368
0.009886976939083825
0.009886975094154154
0.009886975107157305
0.009886967674173255
0.009886968102441293
0.009886965068499187
0.009886954731034849
0.009886956057503407
0.009886968001103091
0.009886970441794502
0.009886965581785256
0.009886970652505801
0.009886986177830612
0.009886990925913856
0.009886993226575293
0.009886989263570511
0.009886992227918235
0.009887002466115147
0.009887003044872783
0.009887004895187517
0.009887004785226399
0.009887000052158043
0.00988699486208953
0.009886995818040376
0.009887001733034174
0.009887011375882956
0.009887010576427621
0.009887011440350438
0.009887013105090011
0.009887008777928877
0.009887007837014601
0.009887007709606448
0.009887002962975157
0.009887001743123857
0.009887001631439629
0.01063974393665788
0.01063974294844485
0.01063974302034064
0.01063973928376992
0.01063973842664488
0.01063973833388756
0.01063973500698168
0.0106397345655242
0.01063973482039957
0.01063973162133199
0.01063973162426773
0.01063973178081825
0.01063972895537248
0.01063972899363365
0.01063972945699468
0.01063972678236734
0.0106397269512415
0.01063972768270638
0.01063972533282428
0.0106397251877116
0.01063972618452039
0.01063972353400622
0.01063972419636222
0.01063972523018164
0.01063972350314555
0.01063972348104318
0.01063971771117918
0.01063971779584616
0.01063971564960721
0.01063970677926479
0.01063970610081158
0.01063971196741725
0.01063971514278979
0.01063971216578737
0.01063971558176685
0.01063972647029699
0.01063973148472714
0.01063973539635775
0.01063973382700871
0.01063973594373343
0.01063974378984871
0.0106397452591495
0.01063974820952079
0.01063974916453703
0.01063974620301794
0.01063974243236763
0.01063974261743717
0.01063974585965901
0.0106397536578679
0.01063975474135152
0.01063975614484808
0.01063975877065721
0.01063975589997734
0.01063975528987871
0.0106397553487564
0.0106397518396634
0.01063975059071459
0.01063975047583869
0.0113150973114579
0.01131509645664653
0.01131509655012649
0.01131509336193812
0.01131509244594851
0.01131509222247414
0.01131508932165896
0.0113150887802288
0.01131508867886336
0.01131508590221276
0.01131508563795302
0.01131508579944399
0.01131508311994954
0.01131508306444904
0.01131508319266311
0.01131508086922677
0.01131508096915099
0.01131508110425486
0.01131507918685793
0.01131507903631419
0.01131507951996186
0.01131507746675956
0.01131507782015646
0.0113150783746874
0.01131507689073954
0.01131507678194585
0.01131507225516404
0.01131507226040885
0.01131507069289331
0.01131506347650659
0.01131506169337229
0.01131506381387199
0.01131506627434903
0.01131506437325899
0.01131506675399057
0.01131507426504227
0.0113150786757152
0.01131508281589814
0.01131508331535864
0.01131508504496196
0.01131509103764867
0.01131509267566502
0.01131509580883031
0.01131509800796442
0.01131509615888201
0.01131509408250517
0.01131509404623252
0.01131509593286243
0.01131510149327208
0.01131510349316804
0.01131510516554074
0.01131510841781251
0.01131510667026145
0.01131510672890637
0.01131510682859153
0.01131510437103066
0.011315103464592
0.01131510338227766
0.01190820095045981
0.01190820043003961
0.0119082005777215
0.01190819780386782
0.01190819707173729
0.0119081968058518
0.01190819420787337
0.01190819361551812
0.0119081936879715
0.01190819099400092
0.01190819060709131
0.01190819076097047
0.01190818821368425
0.01190818802404613
0.01190818820805988
0.01190818589653696
0.01190818621410566
0.01190818594558933
0.01190818415947303
0.01190818389730052
0.01190818406612701
0.01190818229027867
0.01190818266917026
0.01190818269316363
0.01190818156795671
0.01190818142060157
0.0119081777804641
0.01190817779778987
0.01190817661802041
0.01190817083021904
0.01190816843238947
0.01190816889069098
0.01190816995911229
0.01190816862432017
0.01190817014152244
0.0119081752465331
0.0119081786438599
0.01190818235369892
0.01190818343169799
0.01190818534666835
0.01190819031574828
0.01190819190647658
0.01190819483612321
0.01190819780553942
0.01190819674488895
0.01190819603172302
0.01190819585661091
0.01190819761269402
0.01190820117624902
0.01190820343854847
0.01190820519538058
0.01190820865107475
0.01190820805368548
0.01190820835861976
0.01190820897713202
0.01190820713470755
0.01190820681303916
0.01190820651982826
0.01241901176665003
0.01241901162089176
0.01241901179257295
0.01241900939931967
0.01241900899448706
0.01241900873566436
0.0124190063778855
0.0124190058967615
0.01241900604458584
0.01241900351597616
0.01241900329197339
0.01241900313527994
0.01241900084082396
0.01241900084595884
0.01241900073599609
0.01241899859665235
0.01241899883705134
0.01241899855402709
0.01241899675044044
0.0124189966636943
0.01241899657585657
0.01241899496207574
0.01241899534420383
0.0124189947633138
0.01241899422098317
0.01241899399968017
0.01241899095675805
0.01241899101650018
0.01241899011453431
0.01241898540547052
0.01241898276945384
0.01241898257678261
0.01241898236635254
0.01241898134987
0.01241898219602894
0.0124189855424755
0.01241898810653369
0.01241899102677765
0.01241899230227776
0.01241899407884165
0.01241899817740989
0.01241899970269882
0.01241900225364001
0.01241900556675699
0.01241900531901153
0.01241900552200768
0.01241900548278926
0.01241900695676382
0.01241900934642583
0.01241901148778183
0.01241901310071501
0.01241901622102184
0.01241901684054081
0.01241901725005552
0.01241901858622185
0.01241901717482708
0.01241901722604284
0.01241901698398064
0.01285008735877438
0.0128500872070321
0.01285008734934275
0.01285008542765182
0.01285008517955919
0.01285008529515885
0.01285008305446864
0.01285008288773236
0.01285008274116938
0.01285008059094474
0.01285008038386859
0.01285008047606203
0.0128500784035325
0.01285007828185308
0.01285007823377595
0.01285007608569615
0.01285007630482649
0.0128500760298113
0.01285007438297631
0.0128500740919674
0.01285007410628613
0.01285007270336244
0.01285007280495692
0.01285007202184952
0.01285007150423183
0.01285007155944629
0.01285006891778219
0.01285006909403543
0.01285006816458417
0.01285006429279027
0.01285006186695863
0.01285006161825634
0.01285006011176745
0.01285005977446818
0.0128500600470673
0.01285006175208022
0.01285006388160849
0.01285006574576941
0.01285006702627403
0.01285006851796479
0.01285007183209829
0.0128500732584624
0.01285007543239407
0.01285007830107875
0.01285007936894261
0.01285007964549116
0.01285008028638848
0.01285008102200859
0.01285008298063524
0.01285008484086786
0.01285008625722426
0.01285008899766812
0.01285008995213101
0.01285009079096514
0.01285009256616152
0.01285009170885816
0.01285009200643916
0.01285009213199017
0.01320499490518315
0.01320499485052686
0.01320499508661453