/*--------------------------------*- C++ -*----------------------------------*\
| =========                 |                                                 |
| \\      /  F ield         | OpenFOAM: The Open Source CFD Toolbox           |
|  \\    /   O peration     | Version:  v1812                                 |
|   \\  /    A nd           | Web:      www.OpenFOAM.com                      |
|    \\/     M anipulation  |                                                 |
\*---------------------------------------------------------------------------*/
FoamFile
{
    version     2.0;
    format      ascii;
    class       volScalarField;
    location    "10000";
    object      nuTilda_0;
}
// * * * * * * * * * * * * * * * * * * * * * * * * * * * * * * * * * * * * * //

dimensions      [0 2 -1 0 0 0 0];


internalField   nonuniform List<scalar> 
3770
(
0.0004952017615894393
0.0004950085711192897
0.0004951270863984515
0.0004951994797203487
0.0004950085763142666
0.0004951270861549979
0.0004951994789259243
0.0004950085655489368
0.0004951270864231479
0.0004951994790046446
0.0004950085775572493
0.0004951270743610681
0.0004951994646781721
0.0004950085750726817
0.0004951270800820503
0.0004951994799079016
0.0004950085752177146
0.0004951270717073943
0.0004951994626482561
0.000495008588843757
0.0004951270698894493
0.0004951997265570082
0.0004950357877848084
0.0004951375200120811
0.0004951510513544088
0.0004950336423742939
0.0004950021406386291
0.0005025517743191584
0.0005026503642666595
0.0004951528270917177
0.0004951281571521374
0.0004950338762227359
0.0004950037670026642
0.0005025386452168585
0.0005024779125396665
0.0005025706805866913
0.000502651171413594
0.0004951901526395899
0.0004951453586374872
0.0004951256439997956
0.0004950333112514494
0.0004950020732779548
0.0005025516962825222
0.0005026506882858958
0.0004951970636603239
0.000495156151253864
0.0004951786155217707
0.0004950085872048208
0.0004951270767626907
0.0004951994786657544
0.0004950085753138218
0.000495127087198733
0.0004951994789739271
0.0004950085731186729
0.0004951270851784506
0.0004951994804251031
0.0004950085778253211
0.0004951270366531391
0.0005499249248858238
0.0005489630113146576
0.0005493201191021205
0.0005499111050014195
0.0005489637814275484
0.0005493200971876533
0.0005499111534731996
0.0005489637370554981
0.0005493201085911675
0.0005499111793385005
0.0005489638672613716
0.0005493200296880819
0.0005499110898660692
0.0005489638817092671
0.0005493201476482798
0.0005499111688458822
0.0005489638801035337
0.000549320069619685
0.0005499110695434688
0.0005489638973898331
0.0005493200999739785
0.0005499111855612232
0.0005489689432853032
0.000549322214146759
0.0005499025544376963
0.0005489164799686507
0.0005507266479264982
0.0006570644543725296
0.0006535908058396186
0.0005501100376576727
0.0005499749531196895
0.0005489159503451675
0.0005507260318161691
0.0006562939564190815
0.0006559388810638083
0.0006571724118861462
0.0006536561991491863
0.0005499286217649473
0.0005500523185774793
0.0005499759997801757
0.000548915876047436
0.0005507257881767253
0.0006570626198485531
0.000653662439416074
0.0005499307293497307
0.0005500537967795509
0.0005499853530997344
0.0005489636975591223
0.0005493194874316024
0.0005499108773998424
0.0005489635300894741
0.0005493198690084728
0.0005499108948523237
0.0005489636762436107
0.0005493199552101648
0.0005499110266022287
0.0005489637394123151
0.0005493208189798531
0.0009452539551671977
0.0009436928309309895
0.0009443454605315425
0.0009452100140804101
0.0009436979654142251
0.0009443451614429415
0.0009452102879346729
0.0009436981359141446
0.0009443451814051555
0.0009452103355822155
0.0009436980877413235
0.0009443449741984672
0.0009452102753419691
0.0009436982406018502
0.0009443451660309329
0.0009452101345579825
0.0009436982300894531
0.000944345208136803
0.0009452100546614848
0.0009436979589780778
0.0009443452529926662
0.0009452103603537901
0.0009437036110519753
0.0009443469717166647
0.0009452023262781982
0.0009436353073573744
0.0009463760263193819
0.001011274508372549
0.001009062603237552
0.0009447380192623096
0.0009448086007023316
0.0009436266287788672
0.0009463360301324578
0.001010372371471018
0.001010321873045193
0.001011387972346988
0.001009110493036089
0.0009453432260774895
0.0009448632625736027
0.0009449765001231417
0.0009436326713588435
0.0009463745811716663
0.00101127484727162
0.001009119951893068
0.0009453466813801592
0.0009448660318766306
0.0009449860526979871
0.0009436960376468887
0.0009443437724944328
0.0009452094633087498
0.0009436973487751795
0.0009443445238571823
0.0009452095132853751
0.0009436977242393634
0.0009443447935597891
0.0009452098327039189
0.0009436980310317996
0.0009443505703294572
0.001374359793492014
0.001373885447357399
0.00137407239030019
0.001374341139089962
0.001373887480193232
0.001374072456835283
0.001374341226674972
0.001373887592591438
0.001374072503314587
0.001374341278254369
0.001373887603631653
0.001374072479925278
0.001374341270603512
0.001373887668658995
0.001374072492440895
0.001374341208089957
0.001373887622956971
0.001374072565884553
0.001374341116587825
0.001373887520064847
0.001374072184025369
0.001374341053609805
0.00137388811253438
0.001374071672734007
0.001374335183196015
0.001373857918985016
0.001374677390642618
0.001394684867187809
0.001393952526532721
0.001374218716000431
0.001374247279711476
0.001373853459184608
0.001374655212741101
0.001394426245030786
0.001394369826161854
0.001394697461388833
0.001393968940921848
0.001374350364430201
0.001374265106257267
0.001374295994319238
0.00137385592754435
0.001374677283603453
0.001394687860862487
0.001393973849387623
0.001374354552509431
0.001374261910836504
0.001374298505824864
0.001373886159670111
0.001374071687785028
0.001374340396869914
0.001373886966379932
0.001374071732288521
0.001374340633355886
0.001373886987064425
0.001374072091019196
0.001374340833030118
0.001373887181453517
0.001374074319263981
0.001776184584380289
0.001776052444894281
0.001776079650005112
0.00177617686313957
0.001776053409711277
0.001776079851709066
0.001776176925956415
0.001776053492641902
0.001776079901444153
0.001776176962858704
0.001776053510608575
0.00177607990427162
0.001776176955204093
0.00177605354757511
0.001776079872257313
0.001776176929743719
0.001776053457926485
0.001776079909716821
0.001776176767984976
0.001776053427703469
0.001776079289953334
0.001776176411216189
0.00177605234261105
0.001776077513193174
0.001776171036906874
0.001776025265877673
0.001776284279346343
0.001782263529686442
0.001782043159109274
0.001776213062821073
0.001776195880505727
0.001776027002596388
0.001776263158721926
0.00178225749824065
0.001782225699018067
0.001782268424695158
0.00178205466877906
0.001776175488338515
0.001776188554384981
0.00177620305669611
0.001776024475790486
0.001776284728607118
0.001782268303318679
0.001782056801212041
0.001776179631021538
0.001776180808743648
0.001776200948993025
0.001776055552770647
0.001776080801985432
0.001776176903027361
0.001776053607060069
0.001776079473853274
0.001776176709021493
0.001776053084192183
0.001776079751994766
0.001776176720375245
0.001776053188322528
0.001776079960414355
0.002157375029469198
0.002157346308618214
0.002157329001476715
0.002157371835327752
0.002157346899905445
0.00215732928693551
0.002157371941150141
0.002157346973644787
0.002157329328753631
0.002157371961555668
0.002157346968032326
0.002157329316610231
0.002157371935678297
0.002157346974900482
0.002157329263209493
0.002157371897637841
0.002157346852835875
0.002157329244209254
0.002157371711224044
0.002157346770213562
0.00215732862575809
0.002157371148242469
0.002157345279176543
0.002157325895917506
0.002157366992387208
0.002157314310972033
0.002157405080574985
0.002159217039014137
0.002159145242977205
0.002157447533967182
0.002157422755209486
0.002157318275551962
0.002157381926184479
0.002159278334692031
0.002159264901648029
0.002159223327734532
0.002159159175597251
0.002157372451918902
0.002157407804553508
0.002157421263805545
0.002157314473940323
0.002157406360285899
0.002159222583913778
0.002159160926387969
0.002157376311824664
0.002157397816944412
0.002157414992732062
0.002157353774529046
0.002157332755681829
0.002157373596621232
0.002157348244999905
0.002157329698178772
0.00215737235544077
0.002157346992277636
0.002157329589594436
0.002157372067807376
0.002157346974817695
0.002157329018971864
0.002529416575436819
0.002529416360841957
0.002529392300469817
0.002529413358433024
0.002529416236383752
0.002529392613390352
0.002529413504603202
0.002529416292233768
0.002529392628347323
0.002529413494752541
0.00252941625515328
0.002529392585029684
0.002529413440881194
0.002529416226715451
0.002529392508108001
0.002529413369091462
0.002529416074096139
0.002529392428710437
0.002529413187581599
0.002529415942553914
0.002529391847781072
0.002529412450866394
0.002529414473695086
0.002529388315372596
0.002529410634328336
0.002529381539807979
0.002529421889078427
0.002529971299680699
0.002529933215534141
0.002529487396476313
0.00252947889369532
0.002529402406700028
0.002529400337250404
0.002530041677134674
0.002530040051550149
0.002529978706278416
0.002529953291094126
0.002529413951936556
0.00252945218347521
0.002529471925080096
0.002529393506570335
0.002529428827547755
0.00252997670763622
0.00252995325170818
0.002529416576362056
0.002529448279320584
0.002529466724692506
0.002529429621314483
0.002529398623320741
0.002529417697424253
0.002529419252716446
0.002529394139812814
0.002529414783208605
0.002529416957832281
0.002529393474258813
0.002529414119331609
0.002529416665609886
0.002529392581152895
0.002901483280075831
0.002901493770059717
0.002901469431101972
0.00290148157614203
0.002901493936571075
0.002901469725192287
0.002901481710864024
0.002901493946902587
0.002901469700115839
0.002901481656944181
0.002901493866334637
0.002901469611113647
0.002901481562205177
0.002901493788875504
0.002901469499197364
0.002901481450935205
0.002901493613201621
0.002901469362282192
0.002901481252543521
0.002901493385880124
0.002901468878548865
0.002901480376696866
0.002901492171140001
0.002901464636871155
0.00290148037768808
0.002901460845684118
0.002901481671729346
0.002901648665272186
0.002901617295890341
0.002901545315192462
0.002901553452131217
0.002901492222939612
0.002901461923929153
0.002901714660116332
0.00290172515006694
0.002901665658922525
0.002901645357126595
0.00290148447144141
0.002901521161148195
0.002901547129066932
0.002901481410110984
0.002901494134026525
0.002901658021822256
0.002901643510681402
0.002901485772967065
0.002901519889974814
0.002901541025748623
0.002901514378034755
0.002901479558402567
0.002901488252042163
0.002901498575189351
0.00290147269466723
0.002901484092725243
0.00290149547331635
0.002901471310760828
0.00290148291733953
0.002901494807379139
0.002901470422636651
0.003284133709927017
0.00328414807531288
0.00328412559187882
0.003284132836173602
0.003284148392143777
0.003284125827862767
0.003284132930367794
0.003284148338314162
0.003284125741644702
0.003284132811730685
0.003284148196657037
0.003284125593568602
0.003284132664299037
0.003284148060949884
0.003284125437591722
0.003284132506288708
0.00328414786015789
0.003284125235430738
0.003284132300221423
0.003284147560055769
0.003284124852730127
0.003284131266116799
0.003284146662056838
0.003284119974849549
0.003284132485538664
0.003284116590049441
0.003284129582279801
0.00328418385855007
0.003284151154704234
0.003284183773443936
0.003284207150769353
0.003284158004404886
0.003284114160528468
0.00328424050303336
0.003284263885110289
0.003284209671080195
0.003284187234624835
0.003284137675252719
0.00328417039279904
0.003284202593986692
0.00328414588286238
0.003284147823013058
0.003284196570169411
0.003284182722733294
0.003284137181097563
0.003284170442903332
0.00328419520168812
0.003284175840125167
0.003284140342443563
0.003284142057950001
0.003284154950826184
0.003284130583704292
0.003284136653126772
0.003284150961339934
0.003284128321097132
0.00328413486201
0.003284149770611319
0.003284127271128938
0.003691646170922965
0.003691661658566464
0.003691642143896789
0.003691645415605951
0.003691661896446653
0.003691642248000783
0.003691645426724165
0.003691661755184776
0.003691642076351087
0.003691645225507584
0.003691661535832297
0.003691641849104977
0.003691645010845144
0.003691661324746594
0.003691641636145973
0.003691644789968363
0.003691661092615193
0.003691641362186379
0.00369164458380691
0.003691660700045292
0.003691641118416621
0.003691643380669655
0.003691660207423255
0.003691635665072161
0.003691645879141652
0.003691631864372208
0.003691639190086435
0.003691661831848094
0.003691628583079228
0.003691683712937977
0.00369171899702028
0.00369168111916141
0.003691629543473661
0.003691708613563136
0.003691743361432918
0.003691698210454219
0.00369167216736324
0.003691653472630158
0.003691679960993862
0.003691717331708183
0.003691669323865455
0.003691663868228113
0.003691678445051183
0.003691665095682869
0.003691651028866655
0.003691680538295908
0.003691708564358681
0.00369169579113361
0.00369166203342999
0.003691657487128228
0.003691670924171097
0.003691649186109796
0.003691650758172751
0.003691665763095958
0.003691645870190134
0.003691648270570755
0.003691663972826797
0.003691644544127905
0.00414224563701749
0.004142261056603713
0.004142245077989755
0.004142244570471337
0.004142260891620687
0.004142244961872816
0.004142244450336943
0.00414226062514422
0.004142244667822531
0.004142244131511982
0.004142260297289532
0.004142244336812468
0.004142243829693182
0.004142259992880667
0.004142244049608957
0.004142243529267227
0.004142259716574038
0.004142243688654832
0.004142243326777039
0.004142259246094865
0.004142243579041071
0.004142241924918164
0.00414225919644872
0.00414223764200898
0.004142245597335672
0.004142233650150089
0.004142236751247238
0.004142251299144602
0.004142216792309343
0.004142268596387679
0.004142313724893976
0.004142288855960647
0.004142233415829579
0.004142288066779756
0.004142330872397119
0.004142296044729515
0.004142268344684026
0.004142255629595917
0.00414227530765278
0.004142316147868934
0.004142278086625654
0.00414226791466837
0.004142271966066073
0.004142258178989001
0.004142250887053421
0.004142275679189423
0.004142306360691576
0.004142300474716099
0.004142270587863012
0.0041422601081209
0.00414227297224827
0.004142254569532751
0.004142251676201856
0.004142266407346324
0.004142250000855633
0.0041422484049595
0.004142263826592028
0.004142248169409847
0.004655786025888257
0.004655800444943042
0.004655788518024315
0.004655784336200001
0.004655799762119908
0.004655788055899853
0.004655784006626667
0.004655799308328012
0.004655787587663302
0.004655783532478336
0.004655798835149908
0.004655787115722059
0.004655783111339585
0.004655798405334845
0.004655786727419895
0.004655782706499431
0.0046557980671579
0.004655786267272058
0.004655782494951098
0.004655797493959813
0.00465578628299008
0.004655780960049584
0.004655797907139904
0.004655779974214715
0.004655785692242877
0.004655775960225736
0.004655774296357344
0.004655787287777835
0.004655753872606781
0.004655794348229527
0.004655844893560713
0.004655833183192105
0.004655779266011102
0.004655814659009764
0.004655862118676679
0.004655839986266631
0.004655812670737543
0.00465579930979389
0.004655811761896235
0.004655852797544438
0.004655825943249431
0.004655812430030433
0.00465581274718025
0.00465579993620309
0.004655791976702107
0.004655811226760259
0.004655842365424791
0.004655843804573274
0.004655819555898911
0.004655803991228013
0.004655815378579347
0.004655800845735521
0.004655793623790032
0.004655807279371187
0.004655794849716997
0.004655789409215868
0.004655803808552603
0.00465579231618741
0.005248884436415951
0.005248896952268321
0.005248889136193654
0.005248881898794857
0.005248895534845456
0.005248888172697276
0.005248881260148847
0.005248894807619722
0.005248887457047413
0.005248880566876921
0.005248894128823978
0.005248886796923115
0.005248879983758929
0.00524889353688979
0.005248886270014994
0.005248879445739592
0.005248893108203228
0.005248885696701346
0.005248879200117016
0.005248892438681994
0.005248885757053071
0.005248877599086895
0.005248893243761703
0.005248879395380661
0.005248882869584655
0.005248875951883709
0.005248870407176582
0.005248882759175064
0.005248850947805318
0.005248877387619902
0.005248928688128637
0.00524893148424368
0.005248883505910585
0.005248902459176401
0.005248948438489694
0.005248939197097852
0.005248915982486417
0.00524890032765407
0.005248905818285239
0.005248943946959604
0.005248929135350181
0.005248914975414467
0.005248913781931575
0.00524890102327363
0.005248890210526775
0.005248904165106676
0.005248933121028234
0.005248942457089269
0.005248924763014407
0.005248906001379809
0.005248915070009365
0.005248904631094857
0.005248893769001507
0.005248905439780916
0.005248897102260097
0.005248888466457494
0.005248900906380937
0.00524889357939214
0.00592879971194063
0.005928809452935171
0.005928805257958552
0.00592879628081482
0.005928807205239989
0.005928803645437467
0.005928795200104384
0.005928806090303969
0.00592880259139549
0.00592879421717232
0.005928805138389424
0.00592880168345136
0.005928793415400657
0.005928804331693896
0.005928800968964015
0.005928792707768051
0.005928803774386882
0.005928800276606902
0.005928792382376214
0.005928802996656687
0.005928800263325149
0.005928790831081808
0.005928804080980221
0.00592879443125316
0.005928795956395438
0.005928791594789172
0.005928782710455876
0.005928793788486758
0.005928766126804865
0.005928779804737823
0.005928824131707352
0.005928841628965853
0.005928802465526665
0.005928808037924925
0.005928847193767558
0.00592885132892387
0.005928834307607964
0.005928818075448138
0.005928816853315519
0.005928849105878616
0.005928845207371766
0.005928832721438367
0.005928830716263452
0.005928819043486131
0.005928805917848262
0.005928814475436236
0.005928838104989117
0.005928854275175058
0.005928843695992964
0.005928824574651672
0.005928830696429186
0.005928823998807104
0.005928810988590657
0.005928819801070131
0.005928815038342142
0.005928804564913711
0.005928814177859599
0.005928810339542112
0.006688732170281538
0.006688738688310984
0.006688736908185029
0.006688727950735569
0.006688735547352427
0.006688734578348284
0.006688726280106526
0.00668873392012028
0.006688733097814297
0.006688724920062817
0.00668873261167284
0.006688731877262937
0.006688723840112052
0.006688731537825687
0.00668873094201831
0.006688722918522839
0.006688730803693035
0.006688730075278018
0.006688722481251117
0.006688729897374912
0.00668873011961074
0.006688720931402693
0.006688731053903838
0.006688725233041986
0.006688725260028098
0.006688723081954071
0.006688712987740377
0.006688721599509296
0.006688698691374263
0.006688701581881013
0.006688734703544101
0.006688763619862225
0.006688735817112457
0.006688731764882573
0.006688760842277889
0.006688775677031392
0.006688765036495085
0.006688751041882708
0.006688744440411512
0.006688769380616058
0.006688774505034517
0.006688765442163473
0.006688763565926028
0.006688752678030953
0.006688738393794697
0.006688742275768842
0.006688759091404938
0.006688779365248175
0.006688775354079274
0.006688759356055014
0.006688762347809348
0.006688758439783581
0.006688745465870028
0.006688750870956525
0.006688748504933392
0.006688738027298647
0.006688744217707218
0.006688742711064332
0.007507273557272795
0.007507277115980876
0.007507276660218925
0.007507268734618306
0.007507273143033286
0.007507273759392827
0.007507266358610288
0.007507270896573548
0.007507271816908103
0.007507264543540441
0.007507269162411018
0.007507270245004031
0.00750726312500778
0.007507267764391853
0.007507269085994315
0.007507261945095838
0.007507266803860832
0.00750726800080203
0.007507261358253275
0.007507265627764216
0.00750726798612494
0.007507259747987543
0.007507266773683146
0.007507264022051672
0.007507263148020139
0.00750726236950968
0.007507252275682367
0.007507257894133946
0.007507240815912024
0.007507235688569228
0.007507257225802108
0.00750729013149283
0.007507273910907829
0.00750726462531943
0.007507284082418857
0.007507305102908958
0.007507300250570521
0.007507290686610352
0.007507281393496895
0.00750729826244702
0.007507309521201036
0.007507303760318527
0.007507302697378107
0.007507293686741205
0.007507280327391416
0.00750728017294308
0.007507290434785962
0.007507310485269304
0.007507312334892832
0.007507301017440767
0.007507301804352577
0.007507299800845152
0.007507288513342339
0.007507290842018088
0.007507289800285181
0.00750728046065077
0.007507283515841384
0.00750728321048587
0.008352775405955843
0.008352776683399506
0.008352776851511066
0.00835277016177631
0.008352772027504
0.008352773274898192
0.008352767066722833
0.008352769145244746
0.008352770822704605
0.008352764769298637
0.008352766962240788
0.008352768860434524
0.008352762987835913
0.008352765229853178
0.008352767437010189
0.008352761538915614
0.008352763996230415
0.008352766166125626
0.008352760764321631
0.008352762679852715
0.008352765842647096
0.008352759093896196
0.008352763511052255
0.008352762738915748
0.008352761215916859
0.008352761689738182
0.00835275275526296
0.008352755592889703
0.008352743459925071
0.008352733142295869
0.008352746328591955
0.008352775633760518
0.008352768902720346
0.008352759359829801
0.008352770909423896
0.008352792499103239
0.008352792135015847
0.008352787480109579
0.008352778806224592
0.008352788864017406
0.0083528026357888
0.008352799930303976
0.008352800169068567
0.008352793151659021
0.008352782045483885
0.008352778969721811
0.008352785056364633
0.008352800676089534
0.008352807508856031
0.00835280050360295
0.008352800555967634
0.008352799894822821
0.008352791150023629
0.00835279136848845
0.008352790868448213
0.008352783150453187
0.008352783819350042
0.008352784000387326
0.009190660969133018
0.009190660984372987
0.009190660929368601
0.009190655643982895
0.009190655969132069
0.009190656887238738
0.009190651964374722
0.009190652489624827
0.009190653961014879
0.009190649184366873
0.009190649916894179
0.009190651638985295
0.009190647052906767
0.009190647889436382
0.009190649916107727
0.009190645340244566
0.009190646331839521
0.009190648525188791
0.009190644379783064
0.009190645101593471
0.009190647621001283
0.009190642590245001
0.009190645024285146
0.009190645535625616
0.009190643561597036
0.009190644641877339
0.009190637259588489
0.009190638077443867
0.009190629751998658
0.009190617827002413
0.009190625182373496
0.009190646719196668
0.009190645767953932
0.009190639040383379
0.009190645832418722
0.009190663477027339
0.009190666818252348
0.009190665795183916
0.009190659911083084
0.009190665663835572
0.009190678416609352
0.009190678317634999
0.00919067935630362
0.009190674850889357
0.009190666683899479
0.009190662367798452
0.009190665614004015
0.009190675957546118
0.0091906852723778
0.009190681845985531
0.00919068199532919
0.009190682685558669
0.009190676386263899
0.009190675655480781
0.009190675393131465
0.009190669210855436
0.009190668520834826
0.009190668574236676
0.009990377412262476
0.009990376740387811
0.00999037654819329
0.009990372252858355
0.009990371846065913
0.009990372040936196
0.009990368162616692
0.009990368142070461
0.009990368647283364
0.009990365059827741
0.009990365264983604
0.009990366107934736
0.0099903626406057
0.009990362897390869
0.009990364080256917
0.009990360691315403
0.009990361086836581
0.009990362657445035
0.009990359463225448
0.009990359646315823
0.009990361191300626
0.009990357635419301
0.009990358753262351
0.009990359876071078
0.009990357885515574
0.009990358919332906
0.009990353286500581
0.009990353034348051
0.009990346974321844
0.009990335695142618
0.009990339218670643
0.009990352598334995
0.009990355194404988
0.009990350808414756
0.009990354967995071
0.009990367675768152
0.00999037255685205
0.009990374549710699
0.009990371329855849
0.009990375105019354
0.009990385330830794
0.009990387517484633
0.00999038954617508
0.009990386476180679
0.009990380916041807
0.009990376826794795
0.009990378444669417
0.009990384564521393
0.009990393957413505
0.00999039314440881
0.009990393749572847
0.009990395674453798
0.009990391324674601
0.009990390383260142
0.009990390309973443
0.009990385604353957
0.0099903842648485
0.009990384232873815
0.01072955096910794
0.0107295500958131
0.01072954981259549
0.01072954628603935
0.0107295454198232
0.0107295455120157
0.01072954212785548
0.01072954176318994
0.01072954176142712
0.01072953873090987
0.01072953870141232
0.01072953890400907
0.01072953617201481
0.01072953612240505
0.010729536658281
0.0107295340436419
0.01072953400827426
0.01072953510784643
0.0107295325182815
0.01072953253907897
0.01072953334291356
0.01072953072125198
0.01072953113309571
0.01072953224973099
0.01072953038756467
0.01072953128265279
0.01072952687061618
0.01072952653208859
0.01072952176088163
0.01072951201865002
0.01072951337945639
0.01072952034834447
0.01072952392466853
0.01072952111723983
0.01072952388747605
0.01072953252648479
0.01072953740036497
0.0107295412261269
0.01072954018820106
0.01072954307648579
0.01072955094077875
0.01072955361552086
0.01072955680694808
0.01072955536210216
0.01072955158756485
0.01072954864629626
0.01072954940209227
0.01072955305881768
0.01072956047266807
0.01072956157214213
0.01072956282062852
0.01072956553859386
0.01072956265396091
0.01072956209829781
0.01072956201686972
0.01072955863038805
0.01072955726689284
0.01072955722544322
0.01139483280084171
0.01139483208327666
0.01139483178356358
0.01139482881296157
0.01139482787680873
0.01139482791430736
0.01139482487858848
0.01139482422684249
0.01139482433201291
0.01139482147525393
0.01139482123931627
0.01139482121286996
0.01139481870179784
0.01139481854950559
0.01139481889304116
0.01139481660574274
0.01139481639694763
0.01139481683193632
0.0113948147489098
0.01139481479275171
0.01139481508882075
0.01139481304042893
0.01139481319506072
0.01139481386024947
0.0113948122840655
0.01139481305380955
0.01139480957763763
0.01139480941332102
0.01139480551963553
0.0113947974057743
0.01139479727820778
0.01139480044723061
0.01139480354488767
0.01139480161252081
0.0113948034916241
0.01139480903360475
0.01139481300173712
0.0113948172720742
0.01139481821098254
0.01139482079572472
0.01139482674581971
0.01139482937093108
0.01139483283439747
0.01139483295319635
0.01139483030649766
0.01139482876874026
0.01139482924123866
0.01139483169291409
0.01139483684808936
0.01139483888130655
0.01139484043706482
0.01139484373198027
0.01139484199783717
0.01139484191716986
0.01139484215934847
0.01139483967901792
0.01139483867629793
0.01139483865217742
0.0119804019144243
0.01198040150709696
0.01198040124465854
0.01198039869500916
0.01198039792507662
0.01198039799829024
0.0119803952198995
0.01198039465465562
0.01198039447279441
0.01198039196984072
0.01198039172314212
0.01198039158947393
0.01198038922460239
0.01198038912834593
0.01198038910287651
0.01198038699247702
0.01198038698292649
0.01198038693985343
0.01198038503280393
0.01198038513473308
0.01198038513332247
0.01198038339236571
0.01198038326582339
0.01198038366302352
0.01198038242385964
0.01198038301990691
0.01198038012198499
0.0119803800349211
0.01198037705832027
0.01198037044689511
0.01198036945135563
0.01198037094179484
0.01198037240291257
0.01198037099275469
0.01198037230120289
0.0119803756549675
0.01198037858938831
0.0119803825315719
0.01198038389614529
0.01198038670125567
0.01198039155502137
0.0119803939070417
0.01198039712327373
0.01198039844703253
0.01198039668376579
0.01198039622376039
0.01198039694472511
0.01198039840878179
0.01198040215801214
0.01198040436230293
0.01198040598636386
0.01198040949496674
0.01198040884600609
0.01198040898009291
0.01198040976883838
0.01198040790512678
0.01198040739953131
0.01198040744044586
0.01248553463221669
0.01248553453843177
0.01248553433297417
0.01248553215574624
0.01248553163011883
0.01248553177199388
0.01248552925764111
0.01248552887614577
0.01248552865188298
0.0124855263314192
0.01248552599271605
0.01248552613066337
0.0124855237466396
0.0124855236130242
0.01248552370584584
0.01248552155375305
0.01248552154908
0.01248552134798151
0.01248551969142664
0.01248551948364296
0.01248551948812738
0.01248551803610724
0.01248551784514775
0.01248551737389668
0.01248551685316463
0.01248551760189002
0.01248551506025722
0.01248551461077959
0.01248551248621896
0.01248550704239514
0.0124855055149928
0.01248550637760728
0.01248550654559172
0.01248550541834337
0.0124855061640278
0.0124855079840576
0.01248550987391852
0.01248551314084604
0.01248551465097528
0.01248551720256835
0.0124855213551842
0.01248552344772078
0.01248552627474487
0.01248552822505148
0.01248552748918413
0.012485527421024
0.01248552848978104
0.01248552954889546
0.01248553221099229
0.01248553431502817
0.01248553583883143
0.01248553897444126
0.01248553928843996
0.01248554012753565
0.0124855412309739
0.01248553992188836
0.01248553967781643
0.0124855396879884
0.01291231630633585
0.01291231647958261
0.0129123162956741
0.01291231448774398
0.01291231434342491
0.01291231420184631
0.01291231215700042
0.01291231187211695
0.0129123119832594
0.01291230971465315
0.01291230956540435
0.01291230942623985
0.01291230729914498
0.01291230765276228
0.0129123073855002
0.01291230529022056
0.01291230526802182
0.01291230501279055
0.01291230336365644
0.01291230336731126
0.012912303211834
0.01291230173992878
0.01291230194832819
0.01291230082681172
0.01291230096058081
0.01291230117171123
0.01291229902307218
0.01291229860076779
0.01291229688265658
0.01291229236467874
0.01291229083286312
0.012912291587261
0.01291229043444031
0.01291228980194022
0.01291228988071043
0.01291229078858381
0.01291229187139142
0.01291229433910075
0.01291229576147062
0.01291229786850013
0.01291230129888902
0.01291230313258964
0.01291230554341257
0.01291230736491053
0.01291230767530311
0.012912308485599
0.01291230894403869
0.01291231025941795
0.01291231211784358
0.01291231396745812
0.0129123153285111
0.01291231804677559
0.01291231891006297
0.01291231988973967
0.01291232150936232
0.01291232078442725
0.01291232061614478
0.01291232122734854
0.01326398925303187
0.01326398929694016
0.01326398954047978
0.01326398798936954
0.01326398800777316
0.01326398784362406
0.01326398614689949
0.01326398620521225
0.01326398607700733