/*--------------------------------*- C++ -*----------------------------------*\
| =========                 |                                                 |
| \\      /  F ield         | OpenFOAM: The Open Source CFD Toolbox           |
|  \\    /   O peration     | Version:  v1812                                 |
|   \\  /    A nd           | Web:      www.OpenFOAM.com                      |
|    \\/     M anipulation  |                                                 |
\*---------------------------------------------------------------------------*/
FoamFile
{
    version     2.0;
    format      ascii;
    class       volScalarField;
    location    "10000";
    object      nuTilda;
}
// * * * * * * * * * * * * * * * * * * * * * * * * * * * * * * * * * * * * * //

dimensions      [0 2 -1 0 0 0 0];


internalField   nonuniform List<scalar> 
3770
(
0.0005023956582453212
0.0005026017477440739
0.0005024728028840534
0.000502397957519488
0.0005026017568603566
0.0005024728050037995
0.0005023979604341179
0.0005026017654790449
0.0005024728054122424
0.0005023979614217637
0.0005026017570303619
0.0005024728195735724
0.0005023979792129355
0.0005026017611533242
0.0005024728056225271
0.0005023979615825495
0.000502601761383979
0.0005024728257228805
0.0005023979812550039
0.0005026017504524154
0.0005024728245780889
0.0005023976199014412
0.0005025645294924612
0.0005024577489394225
0.0005024288734694306
0.000502568553276323
0.0005026537036778035
0.0004950572259376259
0.0004950040311684583
0.0005025386484070502
0.0005024764194269553
0.0005025700628119204
0.000502650232837372
0.0004951531715557023
0.000495126709264833
0.0004950338795707167
0.0004950022015172201
0.0005024374384190863
0.000502564877160224
0.0005024808867275782
0.0005025712679542879
0.0005026537029327453
0.0004950573240240444
0.0004950022784013989
0.0005023990644210405
0.0005025020196623103
0.0005024243741434943
0.0005026017401436638
0.0005024727814422461
0.0005023979486271815
0.0005026017406635528
0.0005024727941277147
0.0005023979478012653
0.0005026017533591463
0.0005024727984679582
0.0005023979535191532
0.0005026017513012376
0.000502472849597832
0.000655009330665713
0.0006570635660048812
0.000656168686013298
0.0006550352235109012
0.0006570618352215192
0.0006561689502235675
0.0006550351629687846
0.0006570618375178968
0.0006561689756975716
0.0006550351775042604
0.0006570618582936722
0.0006561692162805017
0.0006550354113377024
0.000657061822067945
0.0006561689825674718
0.0006550352909632089
0.0006570618422165994
0.000656169296333236
0.0006550355138640559
0.0006570620037064916
0.0006561690511344227
0.0006550353588310383
0.0006570484620317239
0.0006561646658218685
0.0006550488768081598
0.0006571749299768667
0.0006535307691104474
0.0005489659795727309
0.0005507255527547718
0.0006562947787994199
0.0006559393691614104
0.0006571737214103293
0.0006535770663598722
0.0005500976380411982
0.0005499756127761309
0.0005489170672366019
0.0005506762326843693
0.0006549660322167276
0.0006564376133120207
0.0006559502760681398
0.0006571759959605208
0.0006535295650809009
0.000548966968870434
0.0005506749455837699
0.0006549557224001687
0.0006564188897558089
0.0006559293849131711
0.0006570625819555294
0.0006561679938140178
0.0006550348386306737
0.000657061312686315
0.0006561686728986174
0.0006550349140281176
0.0006570615500159934
0.0006561687480616293
0.0006550350337279934
0.0006570614918021067
0.0006561661726341171
0.001009977599934197
0.001011339677703562
0.001010749738523366
0.001010013093150574
0.001011336705505882
0.001010750063471755
0.001010012904683097
0.001011336576121214
0.001010750083244808
0.001010012938611405
0.001011336745696819
0.001010750233466744
0.001010013039190851
0.001011336599240697
0.001010750119582993
0.001010013212750285
0.001011336589251634
0.001010750281152066
0.001010013247106083
0.001011336956446162
0.001010749957051083
0.001010013192754901
0.001011330734084269
0.001010748266127626
0.00101001656770379
0.001011387968334081
0.001009027796955657
0.0009437913368991568
0.0009463257400524908
0.00101037321972252
0.001010322465909979
0.001011387788321206
0.001009056133974482
0.0009450217044724373
0.0009449685733965763
0.0009436300576475266
0.0009462764968846629
0.001009912273359572
0.001010455110411785
0.001010299329817052
0.001011387975258192
0.001009026434917407
0.0009437947774109627
0.0009462640694005886
0.001009909866669291
0.001010447169253084
0.001010291388050151
0.001011336849381298
0.001010749054769952
0.001010012349172519
0.001011335998715336
0.00101074958277005
0.0010100126773207
0.001011336166321736
0.001010749792358314
0.00101001277142635
0.001011336241461137
0.001010745716537669
0.001394225108337335
0.001394701058884958
0.00139447928275533
0.001394248160033074
0.001394699996990942
0.001394479475669795
0.001394248138366984
0.001394699990906451
0.001394479455600009
0.001394248179523612
0.001394700081284835
0.001394479529290631
0.001394248210911239
0.001394700059696852
0.001394479489230479
0.001394248329046532
0.001394699995299896
0.001394479572554419
0.00139424823655615
0.001394700191923577
0.001394479048395772
0.001394248024259115
0.0013946970298486
0.001394477700492554
0.001394245904100698
0.001394697770666577
0.001393951284346972
0.001373886870000489
0.001374653919301722
0.001394426938851505
0.00139437015081661
0.001394695614083364
0.001393947416269182
0.001374305040264363
0.001374299506765721
0.001373857695545305
0.001374642986759834
0.00139423005769966
0.001394422285770716
0.001394363184696529
0.001394695921864514
0.001393949564461598
0.001373890965823733
0.001374641362713999
0.001394230519786359
0.001394413425831238
0.001394359439825558
0.0013946992315082
0.001394478809151329
0.001394247408352212
0.001394699526706613
0.001394478730819746
0.001394247707351695
0.001394699503058591
0.001394479191603165
0.001394247892186649
0.001394699876762316
0.001394476717521203
0.001782125097371584
0.001782288524205342
0.001782201745746345
0.001782143235946814
0.001782288616898771
0.001782201755280092
0.001782143209251497
0.001782288665779476
0.001782201772615309
0.001782143247238208
0.001782288718758072
0.001782201798900995
0.001782143245376334
0.001782288716534115
0.001782201747373285
0.0017821432683736
0.001782288619205539
0.001782201815502403
0.001782143124511305
0.00178228859322
0.001782201132432802
0.001782142655568258
0.001782286470356438
0.001782199136732793
0.001782139302062753
0.001782265223968104
0.001782054980874973
0.001776049257048759
0.001776266352301384
0.001782257920644894
0.001782225443059539
0.001782266569147441
0.001782041615891291
0.001776231648351581
0.001776210282858914
0.001776031113688957
0.001776267156589604
0.001782124059197537
0.001782237859251008
0.001782215769148599
0.00178226561982723
0.001782055818884338
0.001776053848673246
0.001776270249987835
0.001782126538984177
0.001782221692309185
0.001782207361057099
0.001782290609388341
0.001782202594373616
0.001782143186745955
0.00178228887676337
0.00178220125977115
0.001782142989244794
0.001782288303144797
0.001782201726799017
0.001782143098554359
0.001782288695611531
0.001782200263467198
0.002159175413814606
0.002159247945351295
0.002159197041440933
0.002159188549904398
0.002159248543705132
0.002159197220451602
0.002159188633661026
0.002159248606949024
0.002159197248816152
0.002159188655681777
0.002159248620014092
0.002159197242970081
0.002159188630726178
0.002159248608098762
0.002159197185536756
0.002159188608364538
0.002159248483447209
0.002159197173832379
0.002159188426812135
0.002159248361022075
0.002159196581366271
0.002159187822606995
0.002159246598693569
0.002159193734587336
0.002159184280017306
0.002159212792873045
0.002159163580215324
0.002157340908716958
0.002157387319791316
0.002159277975525883
0.002159263720463421
0.002159222601175645
0.002159145738144594
0.002157452653842314
0.002157430104779765
0.002157322446197042
0.002157394431736584
0.002159173793728042
0.002159254105016035
0.002159252402459093
0.002159217950130577
0.002159167268668264
0.002157346327881266
0.002157400050532866
0.002159176717982037
0.002159245814607259
0.002159246705941818
0.002159256069221999
0.002159200666314127
0.002159190259909844
0.002159249921156379
0.002159197586238191
0.002159189051833801
0.002159248639906848
0.002159197540414606
0.002159188787882021
0.002159248778970045
0.00215919678297128
0.002529956927180889
0.002529991631305991
0.002529957540202502
0.00252996585787269
0.002529993331869236
0.002529957773977667
0.002529965978546627
0.002529993381560002
0.002529957791072758
0.002529965973689342
0.002529993356040637
0.002529957746606595
0.002529965919656218
0.002529993311673956
0.002529957662959974
0.002529965852668343
0.002529993164992594
0.002529957594644874
0.002529965659645106
0.002529992949077586
0.00252995708172985
0.0025299649053673
0.002529991464317604
0.002529953467868759
0.00252996087272768
0.00252995786253118
0.002529954182908998
0.002529407777662633
0.002529403251520933
0.002530040072950169
0.002530037586667255
0.00252998039584387
0.002529937269116281
0.002529492458955708
0.002529485725820838
0.002529405966799402
0.002529419067705128
0.002529957294780274
0.002530015190763943
0.002530027810663076
0.002529971474222705
0.002529962860635204
0.002529414664607197
0.00252942263216681
0.002529959950674724
0.002530011600462216
0.002530022569623246
0.002530008335010193
0.002529965128168561
0.002529969764030011
0.002529996171931095
0.002529959284318891
0.002529967264509399
0.0025299940442033
0.002529958638191189
0.002529966582213959
0.002529993867972019
0.002529958065143347
0.002901644325088869
0.002901666500099996
0.00290163873286828
0.002901648274383472
0.002901667381922803
0.002901638985723149
0.002901648394627032
0.002901667393030181
0.002901638965954711
0.002901648343080746
0.002901667316571848
0.002901638874877241
0.002901648249767461
0.002901667231302468
0.002901638757403206
0.002901648139094103
0.002901667060798674
0.002901638628280784
0.002901647940114777
0.00290166678070979
0.002901638188248726
0.002901647027166169
0.002901665581527004
0.002901633886931361
0.002901645314646332
0.002901633563779057
0.002901641158211942
0.002901483368226335
0.002901460675361264
0.002901711217139235
0.002901721117063586
0.002901665734324422
0.002901624903349913
0.002901552513853272
0.00290156171431101
0.002901496404409075
0.002901486641782142
0.002901646698105417
0.002901690978497479
0.002901714129054881
0.002901655263076136
0.002901654780314468
0.002901493171635187
0.002901486982255975
0.002901648061872089
0.002901689718733057
0.002901708002943513
0.002901688908231666
0.002901649724082037
0.002901654527779659
0.002901671881005155
0.002901641949174583
0.002901650772544058
0.002901668912763839
0.002901640569842932
0.002901649577358758
0.002901668292136016
0.002901639911838991
0.003284181807860832
0.003284200140956868
0.003284176556322595
0.003284183419457353
0.003284200769569913
0.003284176752020697
0.003284183497624119
0.003284200718461549
0.003284176673771402
0.003284183385008431
0.003284200580697673
0.003284176521501314
0.003284183240097852
0.003284200437269741
0.003284176360322489
0.003284183078010518
0.003284200242868727
0.003284176167997505
0.003284182879571502
0.00328419987716465
0.003284175844319365
0.003284181787105971
0.003284199022654198
0.003284170922723669
0.003284182385757861
0.00328416845650193
0.003284175955675525
0.003284136127854627
0.003284108671799825
0.003284235185708204
0.003284258071045471
0.003284209100232418
0.003284163427539479
0.003284193618146246
0.003284217465944902
0.003284162968633825
0.003284142076441083
0.003284187918057344
0.003284222104287654
0.003284253192824976
0.00328419842961868
0.003284195460876108
0.00328414912350677
0.00328413963977844
0.003284187714848952
0.003284222047354286
0.00328424569004924
0.003284228689874639
0.003284191725933016
0.003284192200280831
0.003284207165154123
0.003284181503781295
0.003284187195584397
0.003284203320750482
0.003284179241869736
0.00328418540949899
0.003284202211757927
0.003284178389153943
0.003691661440819145
0.003691678333510826
0.003691658492596182
0.003691661724470796
0.003691678687573644
0.003691658563037639
0.003691661727225063
0.003691678550834035
0.003691658398922005
0.003691661529407135
0.00369167833188117
0.003691658168451687
0.00369166131852853
0.003691678117065189
0.003691657951164322
0.003691661092742396
0.003691677889889809
0.003691657685120252
0.003691660898392235
0.003691677454912672
0.003691657479605679
0.003691659643908495
0.003691676993551067
0.003691651993559791
0.003691662031527405
0.00369164857365615
0.003691653510943868
0.003691649757808108
0.003691619107810865
0.003691700660904712
0.003691735519259779
0.003691696956928661
0.003691645616246274
0.003691696649134072
0.003691731799750704
0.00369168713751828
0.003691660745054373
0.003691670151985968
0.003691696534019129
0.003691733623571582
0.003691686417129603
0.003691679093789568
0.003691666210667137
0.003691655104171305
0.003691667997075972
0.00369169695852738
0.003691724839598651
0.003691712765844088
0.003691678717085446
0.003691673661847925
0.003691687649774172
0.003691665499382046
0.0036916670248258
0.003691682537629145
0.003691662181772786
0.00369166454712233
0.003691680790341106
0.003691660960473409
0.004142251789387337
0.0041422676312519
0.004142251706573275
0.00414225116505279
0.004142267594100903
0.004142251550873216
0.004142251031591014
0.004142267332879825
0.004142251266257764
0.004142250723025959
0.004142267010129687
0.004142250930102179
0.004142250424393459
0.004142266698736818
0.004142250638059533
0.004142250116133736
0.004142266428947838
0.004142250287990112
0.004142249925802477
0.004142265892516712
0.004142250238714915
0.004142248504170719
0.004142265917543903
0.004142244203244336
0.004142252354542676
0.004142240200161956
0.004142240706334558
0.004142248776974704
0.004142217902449024
0.004142277008733151
0.004142320659126923
0.004142293639399696
0.004142239789969131
0.004142285378344089
0.004142329374414604
0.004142296557254758
0.004142267156460586
0.004142263649115151
0.004142282325673549
0.004142322867513146
0.004142284993131173
0.00414227307503127
0.004142269211718984
0.004142258733178548
0.004142259361026328
0.004142282524107639
0.00414231296980346
0.004142307120105772
0.004142277349294518
0.004142266656492049
0.004142279670024335
0.004142261155361004
0.004142258259445099
0.004142273105502614
0.004142256585185088
0.004142254988396741
0.004142270607979707
0.004142254885533611
0.004655789927604897
0.004655804478387829
0.004655792636318139
0.004655788434772492
0.004655803874997297
0.004655792130217059
0.004655788093276264
0.004655803427879504
0.00465579167200896
0.004655787628228472
0.004655802957688539
0.00465579119516484
0.004655787210891859
0.004655802522750541
0.004655790802062026
0.00465578679826825
0.0046558021913429
0.004655790353090725
0.004655786602766008
0.004655801563173677
0.004655790418905261
0.00465578504867483
0.004655802043545285
0.004655784030174017
0.00465579001201806
0.004655780132783146
0.004655776442598792
0.004655788361815304
0.004655757741410227
0.004655799785389978
0.004655849278732092
0.004655835608744831
0.004655783430866173
0.004655815544598651
0.004655863838431534
0.004655843473108449
0.004655814346870446
0.004655804536313431
0.004655815966425759
0.004655856926943975
0.004655830281010347
0.004655815488108305
0.004655813565237732
0.004655803207208559
0.004655797579151602
0.00465581526503319
0.004655846479003869
0.004655847796864587
0.004655823711427784
0.004655808060866427
0.004655819501122487
0.004655804916515536
0.004655797719284796
0.004655811392820832
0.004655798918488223
0.004655793493496706
0.004655807977979391
0.004655796482795789
0.005248887987877987
0.005248900531211378
0.005248892855043525
0.005248885633957751
0.005248899261820051
0.005248891846261663
0.005248884974517886
0.005248898539938292
0.005248891142287362
0.005248884299679723
0.005248897871400872
0.005248890474453623
0.005248883719144613
0.005248897269497681
0.005248889942931582
0.005248883170417318
0.00524889684971663
0.005248889383281964
0.005248882945857784
0.005248896101385437
0.00524888951959471
0.005248881332316153
0.005248897012952012
0.005248883117496248
0.005248886979768511
0.005248879526096574
0.005248871118586423
0.005248884119808003
0.005248856573933469
0.005248883631530481
0.00524893288670185
0.005248932783025487
0.005248886907198413
0.0052489035385278
0.005248951138412882
0.005248944835854173
0.005248919001014161
0.005248905916309196
0.005248910001266067
0.005248947844817904
0.005248933004486941
0.005248917011364536
0.005248914906569117
0.005248905932299213
0.005248896461829433
0.005248908131945871
0.005248936987883654
0.005248945964733026
0.005248928514544332
0.005248909712753631
0.005248918816328521
0.005248908298970455
0.005248897501540306
0.005248909166036635
0.005248900768473192
0.00524889219287134
0.005248904748045804
0.005248897399455841
0.005928803556627892
0.005928813301935227
0.005928809247838531
0.005928800277156668
0.005928811191128691
0.00592880756950919
0.005928799179329263
0.005928810082024821
0.005928806527970944
0.005928798216808649
0.005928809141275039
0.005928805609915052
0.005928797417937622
0.005928808324623468
0.005928804892776782
0.005928796699577487
0.005928807777434787
0.005928804214843001
0.005928796402262051
0.00592880692648563
0.005928804284902054
0.005928794829263096
0.005928808121382144
0.005928798440138349
0.005928800382589725
0.005928795560816144
0.005928783937518747
0.005928796032185906
0.005928772313090312
0.005928786160704396
0.005928828515178778
0.005928843218461555
0.005928806203013023
0.005928810055312349
0.00592885050344001
0.005928857419983267
0.005928837933374714
0.005928823753258518
0.005928821164269017
0.005928853126614062
0.005928849388777896
0.005928835132549861
0.005928832582777785
0.005928824468442281
0.005928812195190896
0.005928818482890114
0.005928842209319046
0.005928857998483915
0.005928847674496251
0.005928828536054791
0.005928834701510715
0.00592882792011663
0.005928814984498705
0.005928823786078451
0.005928818952777705
0.005928808551895984
0.005928818273450217
0.005928814408725188
0.006688736459388319
0.006688742949760237
0.006688741350868814
0.006688732411147285
0.006688740001378955
0.006688738961570836
0.006688730719320259
0.006688738376280579
0.006688737493276915
0.00668872938819471
0.00668873708905052
0.006688736261181419
0.006688728308361556
0.006688735998954871
0.006688735325878475
0.006688727375762376
0.006688735277060681
0.006688734473517837
0.00668872697129004
0.006688734288820362
0.006688734609632146
0.006688725413714897
0.00668873558610345
0.00668872976762484
0.006688730244356162
0.006688727249197907
0.006688714094365321
0.00668872375961718
0.006688705679977266
0.006688709270074568
0.00668873970320951
0.006688765277098248
0.006688739490853032
0.00668873374257915
0.006688764343216063
0.006688782745163826
0.006688769773783144
0.006688757639449149
0.006688749606934707
0.006688773965303035
0.006688779010212751
0.006688767954455095
0.006688765238664285
0.00668875894811739
0.006688745763534582
0.006688747168125886
0.006688763780375894
0.006688783511138859
0.006688779796598381
0.006688763770492702
0.006688766821059368
0.006688762812737476
0.006688749932713758
0.006688755321418556
0.006688752877125795
0.006688742489679348
0.006688748829472587
0.00668874726801834
0.00750727839938426
0.007507281925806361
0.0075072816461615
0.007507273732988149
0.007507278134895819
0.007507278690101264
0.007507271329527903
0.007507275881191914
0.007507276758075706
0.00750726954372307
0.007507274175790026
0.007507275178591159
0.007507268125246162
0.007507272760205211
0.007507274019283965
0.007507266936749166
0.007507271813957571
0.007507272949949289
0.007507266389318259
0.007507270569887007
0.007507273013821871
0.007507264778645336
0.007507271864891979
0.007507269143542607
0.007507268695300844
0.007507267044526643
0.007507254311075179
0.007507260829694937
0.007507248206347279
0.007507243835881304
0.007507262776128547
0.007507292575420244
0.007507278023033815
0.007507267391203014
0.007507288127570196
0.007507312466559972
0.007507305613733492
0.007507297573435858
0.0075072870260577
0.00750730330545102
0.00750731450035062
0.007507306916454693
0.007507304970144742
0.007507300348635446
0.007507287935942171
0.007507285590519249
0.007507295471656189
0.007507315125138433
0.007507317266749427
0.007507305955481314
0.007507306791886128
0.007507304713540773
0.007507293514276835
0.007507295827515982
0.007507294715830006
0.00750728545604906
0.00750728866565864
0.007507288298692017
0.00835278078499116
0.008352782019251477
0.008352782363014542
0.008352775717859915
0.008352777587707217
0.008352778773647223
0.008352772588647172
0.00835277469263607
0.008352776322348422
0.008352770322607877
0.008352772539494485
0.008352774372465422
0.008352768544878824
0.008352770785071103
0.008352772936982333
0.008352767086382787
0.008352769556060692
0.008352771684840408
0.008352766356226112
0.008352768203028453
0.008352771431805656
0.008352764693917868
0.008352769182132281
0.008352768465409909
0.008352767292785116
0.008352766612672769
0.008352755334103313
0.008352758906679858
0.00835275115884343
0.008352742132101482
0.008352752365976678
0.008352778965889816
0.008352773189803087
0.008352762510611959
0.00835277537770847
0.008352800335082832
0.008352798494788805
0.008352795036399192
0.008352785172800024
0.00835279452394818
0.008352808041525519
0.008352803602958651
0.008352802842332738
0.008352800223545249
0.008352790183864953
0.008352785284065505
0.008352790686159592
0.008352805941105169
0.008352812982895814
0.008352805998296185
0.008352806061478878
0.008352805361192555
0.008352796706558941
0.00835279690797956
0.008352796353944151
0.008352788710140252
0.008352789524318364
0.008352789653252486
0.009190666941521063
0.009190666818597809
0.009190666990309491
0.00919066174241698
0.009190662154110128
0.009190662944927971
0.00919065803228525
0.00919065873387802
0.009190659984001105
0.009190655275890179
0.009190656098389129
0.009190657714355375
0.00919065316259977
0.009190654039467512
0.009190655967961038
0.009190651435855166
0.009190652453989718
0.009190654584806553
0.009190650500439492
0.009190651208965986
0.009190653781280518
0.009190648750591486
0.009190651254788207
0.009190651858906331
0.009190650192794934
0.009190650123821137
0.009190640856348234
0.00919064230551127
0.009190637692335463
0.009190626986778375
0.009190631734982158
0.009190651102608003
0.009190650635202927
0.009190643125987474
0.009190650886812944
0.009190671441978633
0.009190673899001132
0.009190673575098838
0.009190666765085566
0.009190671697311328
0.0091906843449217
0.009190682731663189
0.009190683191221759
0.009190682129504588
0.009190674892687047
0.009190669172052111
0.009190671767859263
0.009190681802498912
0.009190691259729034
0.009190687872006088
0.009190688166071879
0.009190688655457238
0.00919068247704527
0.009190681737109869
0.009190681427499894
0.009190675316914067
0.009190674802364435
0.009190674673105951
0.009990383905949128
0.009990383134903877
0.009990383253151188
0.009990378862430063
0.009990378451573691
0.009990378625537486
0.00999037473653132
0.0099903748115055
0.009990375265640269
0.009990371691623643
0.009990371901492139
0.009990372728268054
0.009990369289876778
0.00999036952313722
0.009990370681550389
0.009990367329777846
0.009990367729682766
0.009990369155986617
0.009990366111687632
0.009990366201804518
0.009990367903945158
0.009990364319259681
0.009990365513768446
0.009990366730143167
0.009990364927721278
0.009990364908763602
0.009990357572933456
0.009990358013508532
0.009990355135985261
0.009990345040604878
0.009990346271549388
0.009990357924647484
0.009990360310261693
0.009990355535601911
0.009990360530205768
0.009990375823345088
0.00999038046953777
0.009990382732385741
0.009990378827905337
0.009990381706045085
0.009990391733826426
0.009990392250747973
0.009990394057427663
0.009990394041629576
0.009990389431690767
0.009990384314306744
0.009990385230024403
0.009990391016870886
0.009990400468938366
0.00999039968636407
0.009990400540532724
0.009990402162919677
0.009990397925554804
0.00999039700402902
0.009990396877563854
0.009990392227390173
0.009990391036369914
0.009990390924510499
0.01072955794301111
0.01072955696838651
0.01072955704800141
0.01072955336844835
0.01072955252584056
0.01072955242998508
0.01072954915997919
0.01072954872395275
0.0107295489810239
0.01072954583105473
0.010729545834756
0.01072954598754038
0.01072954320685037
0.01072954324668033
0.01072954370049573
0.01072954106895026
0.01072954124013811
0.01072954195016484
0.01072953964547626
0.01072953949861635
0.0107295404836535
0.01072953787660114
0.01072953853420602
0.01072953954871109
0.01072953785385962
0.01072953780909296
0.01072953210131947
0.01072953219520236
0.01072953015066221
0.01072952145009191
0.01072952073173843
0.01072952647286139
0.01072952958522877
0.01072952665359728
0.01072953002884542
0.01072954079234484
0.01072954572670971
0.01072954957528654
0.01072954801875463
0.01072955008081623
0.01072955779567408
0.01072955921020929
0.01072956210534226
0.01072956310470326
0.01072956021297157
0.01072955648435339
0.0107295566520055
0.01072955982976793
0.0107295675076269
0.0107295685726465
0.01072956995663839
0.01072957253635918
0.01072956971388598
0.01072956911259114
0.01072956917401066
0.01072956572033779
0.01072956449508638
0.01072956438028166
0.01139484019887877
0.01139483935310804
0.01139483945353913
0.01139483630524836
0.0113948354024574
0.01139483517662083
0.01139483231909565
0.01139483178753287
0.01139483168324506
0.01139482894700237
0.01139482868583366
0.01139482884901796
0.01139482620335863
0.01139482615066429
0.01139482627256957
0.01139482398077965
0.01139482408579165
0.01139482421271527
0.01139482232553772
0.01139482217301258
0.01139482265385292
0.0113948206291858
0.01139482098182684
0.01139482152630048
0.01139482006498582
0.01139481993926494
0.0113948154535614
0.01139481546229294
0.01139481396547676
0.01139480686858008
0.01139480507555727
0.01139480714446869
0.01139480955725178
0.01139480768333312
0.01139481004139187
0.01139481748902605
0.01139482184747389
0.01139482592718085
0.01139482641044932
0.0113948280979765
0.01139483400797715
0.01139483560242447
0.01139483868495695
0.01139484089709529
0.01139483909054761
0.011394837031822
0.01139483698537385
0.01139483883382805
0.01139484432519433
0.01139484629649819
0.01139484794799459
0.01139485115401173
0.01139484943055222
0.011394849491304
0.01139484958660729
0.01139484716380001
0.01139484627202481
0.01139484618963676
0.01198040965041961
0.01198040913420886
0.0119804092875316
0.01198040654295991
0.0119804058203116
0.01198040555149001
0.0119804029879961
0.01198040240226953
0.01198040247845062
0.01198039981340213
0.01198039942860712
0.01198039958583633
0.01198039706586492
0.01198039687681736
0.01198039706240746
0.01198039477502768
0.01198039509469475
0.01198039482532902
0.01198039306286491
0.01198039279725957
0.0119803929671353
0.01198039121199817
0.01198039159547539
0.01198039161243216
0.01198039050280851
0.01198039034378223
0.0119803867339713
0.0119803867529764
0.01198038561987537
0.01198037991652449
0.0119803775221561
0.01198037795628678
0.01198037900476711
0.01198037768737928
0.01198037919012246
0.01198038426544678
0.01198038763031469
0.01198039129136768
0.0119803923512296
0.01198039422709057
0.01198039913853736
0.01198040069638287
0.01198040358563921
0.01198040654912549
0.01198040551392637
0.01198040480475364
0.01198040461554341
0.01198040635580236
0.01198040987317347
0.01198041210933367
0.01198041384745305
0.01198041726066032
0.01198041667138292
0.01198041697574174
0.01198041758374267
0.01198041576384519
0.01198041544936829
0.01198041515363962
0.0124855426274546
0.01248554248241471
0.01248554265830005
0.01248554028703066
0.01248553988843192
0.01248553962595466
0.01248553729573899
0.01248553681813609
0.01248553697033739
0.01248553446527626
0.01248553424548795
0.01248553408574985
0.01248553181711289
0.01248553182441125
0.01248553171237557
0.0124855295959742
0.01248552983773575
0.01248552955641004
0.01248552776964285
0.01248552768575362
0.01248552759737363
0.0124855259981594
0.0124855263853873
0.01248552580891873
0.01248552527200713
0.01248552503754947
0.01248552201895628
0.0124855220862038
0.01248552121336912
0.01248551656610285
0.01248551394038155
0.01248551373288836
0.01248551351864558
0.01248551251473773
0.0124855133535092
0.01248551668878837
0.01248551923637144
0.01248552212003467
0.01248552337822698
0.01248552512351858
0.01248552917766009
0.0124855306776691
0.01248553319708352
0.01248553649677202
0.01248553625946287
0.01248553646463611
0.01248553640812252
0.01248553787306251
0.0124855402329703
0.012485542352163
0.01248554394937758
0.0124855470362749
0.0124855476540932
0.01248554805238805
0.01248554937807303
0.01248554798004406
0.0124855480354359
0.01248554779191433
0.01291232471649513
0.01291232456151276
0.01291232470717198
0.01291232280231632
0.01291232255510895
0.01291232267331573
0.01291232045134157
0.01291232028791715
0.01291232013903718
0.01291231801120235
0.01291231780528139
0.01291231789993369
0.01291231584812401
0.01291231572074194
0.01291231567629657
0.01291231354811067
0.01291231376862333
0.0129123134959668
0.01291231186500215
0.01291231157253093
0.01291231158916722
0.01291231020073248
0.01291231029980556
0.01291230952912248
0.01291230900706346
0.01291230905949239
0.0129123064361032
0.01291230661931664
0.0129123057102077
0.01291230188499157
0.01291229946956091
0.01291229920874541
0.01291229771162992
0.01291229738184299
0.01291229765462338
0.01291229935476638
0.01291230147895126
0.01291230331645773
0.01291230458259674
0.01291230605104451
0.01291230933162594
0.01291231073838305
0.01291231288798326
0.01291231574422307
0.01291231681277069
0.01291231707894176
0.01291231771631411
0.01291231843647668
0.01291232037771677
0.0129123222202137
0.01291232362374917
0.01291232633815984
0.01291232728476239
0.01291232811349315
0.01291232987386769
0.01291232902289468
0.01291232932435032
0.01291232944167143
0.01326399779582383
0.01326399774033736
0.01326399797422988
0.01326399658106689
0.01326399634223627
0.0132639964228264
0.01326399484645083
0.0132639946066734
0.01326399453480552
0.0132639926448434
0.01326399278572496
0.01326399257133338