/*--------------------------------*- C++ -*----------------------------------*\
| =========                 |                                                 |
| \\      /  F ield         | OpenFOAM: The Open Source CFD Toolbox           |
|  \\    /   O peration     | Version:  v1812                                 |
|   \\  /    A nd           | Web:      www.OpenFOAM.com                      |
|    \\/     M anipulation  |                                                 |
\*---------------------------------------------------------------------------*/
FoamFile
{
    version     2.0;
    format      ascii;
    class       volScalarField;
    location    "10000";
    object      p;
}
// * * * * * * * * * * * * * * * * * * * * * * * * * * * * * * * * * * * * * //

dimensions      [0 2 -2 0 0 0 0];


internalField   nonuniform List<scalar> 
3770
(
-9.774203998598501e-11
-1.098790615934807e-06
5.264541248146673e-08
-5.081216359371001e-08
-1.191087954076935e-06
1.734140659297412e-07
8.821751744059694e-08
-1.093618984007211e-06
2.591051530040266e-07
1.515274892166737e-07
-1.029762175370445e-06
3.451768085614479e-07
2.412086013402494e-07
-9.207482612554417e-07
4.455121689226829e-07
3.517244617457165e-07
-8.299121983455592e-07
5.450696050466213e-07
4.499468722874677e-07
-5.948663324821576e-07
5.793927925075505e-07
6.69122665476066e-07
-4.89134811025113e-07
1.181796529398445e-06
8.433158799599811e-07
2.628114339908958e-06
1.147866030804784e-05
8.08536907912865e-06
-5.090181550108484e-06
-7.913380303105744e-06
-2.973968594177963e-06
4.669272474275952e-06
8.799338027406592e-06
7.257912730118856e-06
-2.279912945532929e-06
-4.336121201962406e-06
-5.214427946893571e-06
-8.427058733407758e-06
-3.451622669894951e-06
-3.9500442704277e-06
-9.540232398108704e-07
7.393964948847104e-06
5.684866312020006e-06
-7.094847248491007e-06
-8.868460792701488e-06
-3.945687927702807e-06
-3.868831423839009e-06
-2.742047374813503e-06
-1.088176072719678e-06
-1.167375480428583e-06
-2.060234047609882e-06
-6.800233580383812e-07
-6.736562917799627e-07
-1.821476231306953e-06
-4.083073719049408e-07
-5.112710746884903e-07
-1.807152637064266e-06
-4.362726301689046e-07
2.560261818321201e-08
-1.080285777491685e-06
6.420162938750607e-09
-2.163773335555969e-08
-1.172793961808918e-06
1.258479161402375e-07
1.175747109043527e-07
-1.075410191341314e-06
2.113937937478995e-07
1.809424898446305e-07
-1.011435652312702e-06
2.974165140818034e-07
2.705277748816528e-07
-9.024481020689957e-07
3.979272080611571e-07
3.810830821146052e-07
-8.117279166680545e-07
4.973461613079395e-07
4.79174390827534e-07
-5.771272715393942e-07
5.320269339680178e-07
6.976001439273939e-07
-4.716025088338866e-07
1.135430520377181e-06
8.716553131055385e-07
2.516606787105688e-06
1.071323914198607e-05
7.554480308736495e-06
-4.231657859568291e-06
-7.263731859146077e-06
-3.045971389755357e-06
4.516482169820099e-06
8.066811829582793e-06
6.690221027676329e-06
-2.23405794159338e-06
-4.294427892005101e-06
-4.484130231014364e-06
-7.758221578794046e-06
-3.476183744472795e-06
-3.944597565606925e-06
-1.096687534288422e-06
6.62956738214054e-06
5.153484086651478e-06
-6.285016089532728e-06
-8.215886739975241e-06
-3.970625341574518e-06
-3.862663706486786e-06
-2.757098594203927e-06
-1.133103038636784e-06
-1.138349511654753e-06
-2.042025916993717e-06
-7.278529485695157e-07
-6.443612191110938e-07
-1.803247335167687e-06
-4.55924818486709e-07
-4.817209687701296e-07
-1.78686198892657e-06
-4.841107737331395e-07
4.604563358342966e-08
-1.070996464964474e-06
-2.923555005017212e-08
3.83734262706972e-09
-1.160684712627898e-06
8.814996332053667e-08
1.433598484930206e-07
-1.063453874785909e-06
1.73422531901562e-07
2.06783716662711e-07
-9.992979813104605e-07
2.593878702283918e-07
2.962215403896628e-07
-8.9034132532697e-07
3.601936402301326e-07
4.068685678304006e-07
-7.998104300923902e-07
4.593592872125936e-07
5.047766985880217e-07
-5.657619501696877e-07
4.945393615687847e-07
7.226871989715672e-07
-4.605266091320127e-07
1.098634500078809e-06
8.97953933440873e-07
2.393249818811467e-06
9.074601709545572e-06
6.284278430093647e-06
-2.462909583747895e-06
-5.835886399821045e-06
-3.1747691994212e-06
4.336779723821044e-06
6.505681053708461e-06
5.317063555889525e-06
-2.218464240733981e-06
-4.188784475344802e-06
-2.881634574482186e-06
-6.315170163769937e-06
-3.521297984002511e-06
-3.952602025445482e-06
-1.252080329705478e-06
4.988376321256199e-06
3.877350730396408e-06
-4.582149714638034e-06
-6.792860748317269e-06
-4.017392669892515e-06
-3.873064008989623e-06
-2.780585037920992e-06
-1.167682646173258e-06
-1.113160434609321e-06
-2.030052888415883e-06
-7.660319547839393e-07
-6.187133459851827e-07
-1.791256823837641e-06
-4.937374741818922e-07
-4.55722039421711e-07
-1.771965121992482e-06
-5.190117348745617e-07
5.325203344729571e-08
-1.079152950086471e-06
-3.802686220353925e-08
1.776345144518199e-08
-1.163455135260772e-06
7.685137103143863e-08
1.575111421635675e-07
-1.066349026187909e-06
1.618887195037064e-07
2.210452042057673e-07
-1.001939481089994e-06
2.47777197055387e-07
3.103170710086458e-07
-8.931271273852035e-07
3.488343167724641e-07
4.21037417873487e-07
-8.027622471304286e-07
4.478132388740551e-07
5.186313894109167e-07
-5.700127448840466e-07
4.839656973254846e-07
7.36273442513291e-07
-4.648735788390928e-07
1.087709939384221e-06
9.150900597647564e-07
2.327709676759023e-06
7.354466813153992e-06
4.835425150928268e-06
-6.329032493539553e-07
-4.294670074534712e-06
-3.278219244053461e-06
4.199194105231242e-06
4.899316203970182e-06
3.763650598367155e-06
-2.25993989163008e-06
-4.054705871447135e-06
-1.18468916172389e-06
-4.783811027081081e-06
-3.545992183550884e-06
-3.956839489929839e-06
-1.328962982090464e-06
3.272845550836103e-06
2.419191599418154e-06
-2.805748993727708e-06
-5.274575334975749e-06
-4.046633066865445e-06
-3.881690065408148e-06
-2.802072089975095e-06
-1.17631881677011e-06
-1.100024765523857e-06
-2.032932775431986e-06
-7.780769264881723e-07
-6.046981429267775e-07
-1.794263526843514e-06
-5.052055787083838e-07
-4.413754595802401e-07
-1.770769518759243e-06
-5.249976922111225e-07
6.644480204026864e-08
-1.084643161345549e-06
-5.478579541707426e-08
3.811634288458067e-08
-1.164611459060871e-06
5.751571192174025e-08
1.780794858750253e-07
-1.067653075272781e-06
1.422481536571962e-07
2.416979755489809e-07
-1.002919102644041e-06
2.280549100847499e-07
3.307645033432956e-07
-8.943047069148931e-07
3.294227740149386e-07
4.416088718965307e-07
-8.041614544425946e-07
4.281650247854888e-07
5.387786082209955e-07
-5.731864031353894e-07
4.653857389953899e-07
7.562120781784856e-07
-4.685194665510455e-07
1.068700609921242e-06
9.371911845353635e-07
2.300325052471085e-06
6.353922821888974e-06
3.912032288911847e-06
4.435740513298934e-07
-3.325286153606698e-06
-3.328324794348269e-06
4.073771252371638e-06
3.997771510717758e-06
2.826789546110737e-06
-2.325205358204623e-06
-3.986106262041919e-06
-2.141300727549899e-07
-3.833528018926891e-06
-3.517152110109421e-06
-3.958634019330645e-06
-1.372985061964307e-06
2.276951204624047e-06
1.488085989128749e-06
-1.780976700489314e-06
-4.340853160969607e-06
-4.0265112705609e-06
-3.882788508384284e-06
-2.827982146259313e-06
-1.195151805053928e-06
-1.081378314426788e-06
-2.034535485823981e-06
-7.987480033716167e-07
-5.844705406034231e-07
-1.79583690469746e-06
-5.248075509098861e-07
-4.208621387498129e-07
-1.767788385135259e-06
-5.400485650196731e-07
7.625147204853159e-08
-1.093015049410891e-06
-7.043634068232505e-08
5.809645917343541e-08
-1.165745859098257e-06
3.849445876825181e-08
1.980695005174949e-07
-1.068911775052852e-06
1.229913874534474e-07
2.618805914949586e-07
-1.003709459850589e-06
2.086542512086514e-07
3.507184166935239e-07
-8.954645806000297e-07
3.103001214523586e-07
4.616534442894476e-07
-8.055115207703045e-07
4.089718629945949e-07
5.582424081189798e-07
-5.778550705561058e-07
4.485258198086273e-07
7.759184751200034e-07
-4.726075397925742e-07
1.05176575943053e-06
9.626405989764384e-07
2.285596144046599e-06
5.884634862069378e-06
3.44947644472341e-06
9.386584430711683e-07
-2.81505466200943e-06
-3.339424031397113e-06
3.908265492302001e-06
3.656152357799912e-06
2.396285178577516e-06
-2.396515159875612e-06
-3.90922283106994e-06
1.510477951970901e-07
-3.359182056297548e-06
-3.448776394026065e-06
-3.95337526235836e-06
-1.403366185953882e-06
1.830831214273337e-06
1.019400475454007e-06
-1.33587383857476e-06
-3.876888198854444e-06
-3.97217684739241e-06
-3.87884414520654e-06
-2.861074293844296e-06
-1.215527117026701e-06
-1.06413938269327e-06
-2.036618451481708e-06
-8.197048034519698e-07
-5.650115247403753e-07
-1.797668324901102e-06
-5.442998704289364e-07
-4.008786977713165e-07
-1.762855417280768e-06
-5.521325011907976e-07
7.852066896439196e-08
-1.102175840705688e-06
-8.098191428474608e-08
7.144421750196659e-08
-1.165143714014279e-06
2.434897723943954e-08
2.113331168261036e-07
-1.068415973269579e-06
1.086526746516871e-07
2.753361050033263e-07
-1.002697930220847e-06
1.941458403140235e-07
3.639563847045052e-07
-8.948872978726181e-07
2.960625296919788e-07
4.749825107369652e-07
-8.051168557747948e-07
3.947617331398517e-07
5.709867583014577e-07
-5.814884881779524e-07
4.373707031605869e-07
7.892914147576056e-07
-4.749385878735747e-07
1.041114573816106e-06
9.858470221815743e-07
2.278030234833589e-06
5.717876288511296e-06
3.273599352619975e-06
1.092427206201277e-06
-2.587209231958521e-06
-3.319346661443293e-06
3.726050634509767e-06
3.610588799058426e-06
2.264087232594957e-06
-2.445955487184594e-06
-3.817971217556877e-06
1.681321839813371e-07
-3.17722765292786e-06
-3.37471819736476e-06
-3.936274088190138e-06
-1.419775897445445e-06
1.694950743937789e-06
8.364732902827225e-07
-1.214423536517879e-06
-3.701695638370065e-06
-3.913977730779643e-06
-3.868772224313075e-06
-2.891673782260817e-06
-1.233851699228525e-06
-1.05436543635557e-06
-2.037644837311464e-06
-8.362259540737942e-07
-5.526102470309269e-07
-1.797984449485437e-06
-5.591231267688618e-07
-3.877876508583213e-07
-1.755731176983544e-06
-5.56704850397923e-07
7.090236585958884e-08
-1.112236334440124e-06
-8.90297505064293e-08
7.851941914281836e-08
-1.16012507309281e-06
1.191661398521339e-08
2.179345749625287e-07
-1.063354286606898e-06
9.632860527484058e-08
2.82358963517314e-07
-9.969947439801093e-07
1.815516729852763e-07
3.708096441974209e-07
-8.898528143315423e-07
2.835259541478764e-07
4.817588599388426e-07
-8.000811255476182e-07
3.826700257850704e-07
5.771674493911191e-07
-5.824704382852535e-07
4.30226747314113e-07
7.966507165824997e-07
-4.721938796144556e-07
1.034720511877889e-06
1.014462178415645e-06
2.263865925386132e-06
5.584385063033502e-06
3.158445232096446e-06
1.171188722344428e-06
-2.413399298359152e-06
-3.26307851796518e-06
3.485401272690197e-06
3.645015703972917e-06
2.184120926390969e-06
-2.476479139931287e-06
-3.659232209814325e-06
5.716498883255303e-08
-3.066521905894689e-06
-3.28838805005712e-06
-3.895766297434848e-06
-1.428427466775868e-06
1.625714398547608e-06
7.124963547287419e-07
-1.16837026328741e-06
-3.576070178991827e-06
-3.846911106956467e-06
-3.849101717004724e-06
-2.917998618899505e-06
-1.250510560573578e-06
-1.051362067229356e-06
-2.034467928376002e-06
-8.511643887004457e-07
-5.468710341568849e-07
-1.794045166752702e-06
-5.724540257407984e-07
-3.810505734125858e-07
-1.741596257068233e-06
-5.543007595915673e-07
5.831852471992397e-08
-1.118388745646231e-06
-9.727038562730531e-08
8.084589030425285e-08
-1.15023110905637e-06
-8.229875212848406e-10
2.196863000778406e-07
-1.053276528140222e-06
8.388781287848831e-08
2.845411795167963e-07
-9.863386109655145e-07
1.688159134941302e-07
3.729025474713888e-07
-8.798883415668643e-07
2.707098913663829e-07
4.837042677059809e-07
-7.900125426821069e-07
3.705229404319111e-07
5.786277255485707e-07
-5.788212707449276e-07
4.234952862284884e-07
7.995136654674227e-07
-4.639615751790762e-07
1.029114043979578e-06
1.044086238977374e-06
2.250914387889773e-06
5.473141458067286e-06
3.078268939116272e-06
1.210284668855062e-06
-2.278047903087065e-06
-3.18264840135269e-06
3.234486434909166e-06
3.697765463323455e-06
2.133820402194203e-06
-2.481180345022018e-06
-3.484130582698069e-06
-1.100961268594862e-07
-2.998023537744e-06
-3.206986324348606e-06
-3.841307739373554e-06
-1.428635914646428e-06
1.590200788064998e-06
6.224859271633612e-07
-1.157710030934061e-06
-3.485422209040847e-06
-3.785419393882825e-06
-3.820841937798976e-06
-2.936664021337835e-06
-1.269012843323694e-06
-1.053563737920389e-06
-2.026669600984422e-06
-8.664181683530989e-07
-5.461853992054325e-07
-1.78528535378227e-06
-5.862750155094379e-07
-3.793216575503833e-07
-1.722377811927654e-06
-5.509335791651554e-07
3.972398002662971e-08
-1.1223843148017e-06
-1.075068967052477e-07
7.974223017592616e-08
-1.134771666276881e-06
-1.587512601803141e-08
2.176099550855549e-07
-1.037491430237564e-06
6.940632816907154e-08
2.831536929927216e-07
-9.698855354788423e-07
1.539351920964983e-07
3.714887240391479e-07
-8.642844141253474e-07
2.555717066600069e-07
4.819736082859182e-07
-7.741230387000389e-07
3.564221125302507e-07
5.765109310814355e-07
-5.707763724531957e-07
4.162579699844241e-07
7.992992310519305e-07
-4.491561682302837e-07
1.023395165510248e-06
1.079884272009357e-06
2.229037391270429e-06
5.293118408834799e-06
2.958481613893007e-06
1.285771219624054e-06
-2.094117627515561e-06
-3.072903831089572e-06
2.939917534369138e-06
3.719916753178537e-06
2.034804514292949e-06
-2.472860290792505e-06
-3.257705001939353e-06
-2.840721801751722e-07
-2.898506805356529e-06
-3.114477346227458e-06
-3.767267861091608e-06
-1.42588535704859e-06
1.515693123668042e-06
4.968447479431134e-07
-1.116482931982418e-06
-3.345882383037803e-06
-3.713673548156787e-06
-3.78169828998492e-06
-2.949872690776785e-06
-1.289824384571608e-06
-1.059647102792979e-06
-2.013429704408574e-06
-8.840900619374138e-07
-5.493266168511978e-07
-1.771092935875494e-06
-6.026488496348282e-07
-3.810665511330327e-07
-1.695369189804262e-06
-5.46943351360968e-07
1.826802423008451e-08
-1.119629515837998e-06
-1.200691615647866e-07
7.444768759184064e-08
-1.113438593167609e-06
-3.284870616253233e-08
2.112965625091918e-07
-1.015698727607728e-06
5.316355991472335e-08
2.775293446560156e-07
-9.475485643928953e-07
1.372989191889584e-07
3.659124517522414e-07
-8.427304488557766e-07
2.38556968915006e-07
4.760398932346266e-07
-7.521989887009584e-07
3.406380114648124e-07
5.703626375877073e-07
-5.56274387537364e-07
4.071323592256441e-07
7.952945986332126e-07
-4.276474531165477e-07
1.016354963660948e-06
1.114694710107113e-06
2.208566772009821e-06
5.106384977889416e-06
2.843658330710101e-06
1.355117417070911e-06
-1.916261617516759e-06
-2.941148081030169e-06
2.657002346048194e-06
3.711136813971654e-06
1.937687557413313e-06
-2.438852813603778e-06
-3.038105594125018e-06
-4.615958201695565e-07
-2.808508199260017e-06
-3.029401831648123e-06
-3.682300108838413e-06
-1.417729294886884e-06
1.434039974813794e-06
3.776000505159434e-07
-1.078035999673097e-06
-3.211722788367076e-06
-3.647755902182613e-06
-3.733150210759597e-06
-2.953499384937101e-06
-1.315118843876397e-06
-1.070525505616138e-06
-1.994906330776341e-06
-9.038398027081564e-07
-5.570914074336871e-07
-1.751119916423407e-06
-6.212033546529474e-07
-3.873414830345277e-07
-1.663392529419678e-06
-5.456875602218263e-07
-8.449484208784735e-09
-1.111225618515857e-06
-1.362019501458488e-07
6.450140554961376e-08
-1.084789427083046e-06
-5.273258192930686e-08
2.000424241114412e-07
-9.865112018079943e-07
3.418344110940118e-08
2.672176598295177e-07
-9.177217038015352e-07
1.178799711771696e-07
3.556675664237354e-07
-8.13758383281817e-07
2.186528608866695e-07
4.65345943551826e-07
-7.227366033691164e-07
3.222239165294749e-07
5.596226440634465e-07
-5.345127252802179e-07
3.959213389059349e-07
7.873781576133582e-07
-3.974113684209855e-07
1.008319938843279e-06
1.152204867607856e-06
2.180075895240927e-06
4.869085841322453e-06
2.698507129953225e-06
1.441097177709396e-06
-1.7000398013838e-06
-2.777815296570653e-06
2.362462936309571e-06
3.649759644262603e-06
1.806041815909022e-06
-2.384757569302093e-06
-2.797397021964374e-06
-6.254000822562119e-07
-2.699590810894589e-06
-2.935774927133836e-06
-3.578382246654233e-06
-1.408136409937792e-06
1.313592853270011e-06
2.323591794813603e-07
-1.021201763647253e-06
-3.044715421048862e-06
-3.571136186852867e-06
-3.671343019546811e-06
-2.947540321561168e-06
-1.345198814554106e-06
-1.086539162118585e-06
-1.969818029509452e-06
-9.268266478833772e-07
-5.701198275119755e-07
-1.724054193400946e-06
-6.430219398945859e-07
-3.98389442747838e-07
-1.623241804121776e-06
-5.463486380017626e-07
-3.878530317059762e-08
-1.093282449395716e-06
-1.561704599275577e-07
4.873179684542326e-08
-1.047907432392541e-06
-7.540234175385725e-08
1.829934709635261e-07
-9.489783317525154e-07
1.251001706397736e-08
2.511421290834839e-07
-8.796393954724151e-07
9.581955157905028e-08
3.396842747461596e-07
-7.764191416228074e-07
1.960581137434498e-07
4.489513215679391e-07
-6.848543507100285e-07
3.012651014667266e-07
5.433625872752124e-07
-5.032480626963481e-07
3.816256293426069e-07
7.744968209079068e-07
-3.574714091391892e-07
9.981872731924066e-07
1.187402643698211e-06
2.15141020725693e-06
4.634001582901367e-06
2.563728596172895e-06
1.503067262567604e-06
-1.495428666456122e-06
-2.586260969220571e-06
2.096197760687197e-06
3.54433224416164e-06
1.682927884666478e-06
-2.297047501977291e-06
-2.576436789821889e-06
-7.849809837397472e-07
-2.60864520667256e-06
-2.849241516259794e-06
-3.459796831504754e-06
-1.394503443326457e-06
1.183976469293589e-06
9.937945216493728e-08
-9.775835933550413e-07
-2.894243843316095e-06
-3.497120310321536e-06
-3.597086330064259e-06
-2.9275698776886e-06
-1.381406746126213e-06
-1.1087063671711e-06
-1.937712582385714e-06
-9.528854525293087e-07
-5.896822030818537e-07
-1.688944862113046e-06
-6.680313062612972e-07
-4.156042383445496e-07
-1.576330835891913e-06
-5.512831580090552e-07
-7.422799590414587e-08
-1.067153366485704e-06
-1.807564983792321e-07
2.679255848349486e-08
-1.002241169325926e-06
-1.011910006748912e-07
1.597080847087276e-07
-9.025917487256987e-07
-1.21999898527694e-08
2.29050943382149e-07
-8.325985118444928e-07
7.075894892098816e-08
3.176573952404902e-07
-7.301136082270835e-07
1.704497175507523e-07
4.265430254384315e-07
-6.379326823658613e-07
2.774484140797747e-07
5.212540955991762e-07
-4.622696199967672e-07
3.644716762774549e-07
7.567172161115814e-07
-3.065466524541939e-07
9.862849816440796e-07
1.222041409179673e-06
2.11405126787589e-06
4.376459920921809e-06
2.417690419312569e-06
1.547453240250524e-06
-1.276064662049312e-06
-2.361421355382363e-06
1.844257772032064e-06
3.383398979517126e-06
1.546093841548195e-06
-2.181045239395757e-06
-2.35713143544069e-06
-9.286402051455524e-07
-2.519059636733372e-06
-2.757338070646745e-06
-3.320149372202877e-06
-1.379637062146937e-06
1.030439819543528e-06
-3.976648997351372e-08
-9.389091362013098e-07
-2.739273255468e-06
-3.41104613582247e-06
-3.506881141408697e-06
-2.892741174840728e-06
-1.42273235459162e-06
-1.136573184311149e-06
-1.898006426660603e-06
-9.823193049843565e-07
-6.161660430109046e-07
-1.645286340883432e-06
-6.966023115058268e-07
-4.389835311486513e-07
-1.520748052750615e-06
-5.595195069441558e-07
-1.131713526176723e-07
-1.032303534907566e-06
-2.092627849788535e-07
-1.063579380166449e-09
-9.48850000279252e-07
-1.294515903238579e-07
1.306458752963741e-07
-8.483435093712492e-07
-3.931814032960031e-08
2.01263049767929e-07
-7.777121839569067e-07
4.338393470331209e-08
2.89919722966778e-07
-6.758411080776386e-07
1.42553094949299e-07
3.985395462322007e-07
-5.829868066670933e-07
2.514653195626593e-07
4.937155311127987e-07
-4.119417388034832e-07
3.447787900913816e-07
7.342674997175922e-07
-2.453862229592616e-07
9.721018672378474e-07
1.253265893765916e-06
2.072691323822521e-06
4.123548373802804e-06
2.283047940464405e-06
1.558026775111272e-06
-1.070707895508051e-06
-2.111916684630777e-06
1.623738800001358e-06
3.181306996806952e-06
1.418851276901141e-06
-2.033213459906301e-06
-2.15904097536605e-06
-1.06398166676872e-06
-2.447733534855063e-06
-2.669566379586436e-06
-3.164570287815421e-06
-1.362100964511295e-06
8.704427492778375e-07
-1.641157311043753e-07
-9.19680742212364e-07
-2.604676122441873e-06
-3.322077996916901e-06
-3.404053109371766e-06
-2.84243509356299e-06
-1.467767083798696e-06
-1.169179569294466e-06
-1.851696283691442e-06
-1.014240980522422e-06
-6.492226381183938e-07
-1.59402128653784e-06
-7.280598058214799e-07
-4.682830922407829e-07
-1.458704988245011e-06
-5.715858415033919e-07
-1.549555431956853e-07
-9.917929581521719e-07
-2.410291605509975e-07
-3.367295782657407e-08
-8.899550347233988e-07
-1.592784126509736e-07
9.69923962201967e-08
-7.884623857565537e-07
-6.79425482876483e-08
1.690453579268956e-07
-7.170884936361555e-07
1.460372727892843e-08
2.577051350907442e-07
-6.15762423170742e-07
1.132998170965124e-07
3.661720552642976e-07
-5.221720233880253e-07
2.242272931231942e-07
4.619542442916793e-07
-3.546180293565808e-07
3.237234994264212e-07
7.083255065037844e-07
-1.759034246564249e-07
9.56015047904479e-07
1.280175598831067e-06
2.022040863050766e-06
3.864398864254435e-06
2.148167704128033e-06
1.541209737507377e-06
-8.673601842155982e-07
-1.844472384872786e-06
1.426935816971539e-06
2.94038411830227e-06
1.290506507547792e-06
-1.864674731362399e-06
-1.975521199700084e-06
-1.180147117226384e-06
-2.382016782635766e-06
-2.578152986992097e-06
-2.993946410602432e-06
-1.344276449096124e-06
7.005753894551225e-07
-2.825790744257886e-07
-9.140805900413051e-07
-2.478065975973457e-06
-3.221222669067911e-06
-3.288765022161182e-06
-2.778642167811064e-06
-1.513439251898805e-06
-1.204270381389542e-06
-1.800443272411135e-06
-1.047396214290682e-06
-6.87314715079998e-07
-1.537279713894794e-06
-7.613532734034777e-07
-5.018667411794749e-07
-1.39161609164038e-06
-5.860003220211741e-07
-1.975522921742743e-07
-9.478569358862568e-07
-2.742080235557561e-07
-6.938966656206483e-08
-8.286749425159153e-07
-1.892181550823809e-07
6.049446459288283e-08
-7.260249440085969e-07
-9.661865736793507e-08
1.340522374072565e-07
-6.538780582340291e-07
-1.411172088995455e-08
2.226870614196014e-07
-5.529738218428868e-07
8.41821948162069e-08
3.311411449881738e-07
-4.585728322107946e-07
1.972063638112942e-07
4.27682843602611e-07
-2.932956104911719e-07
3.027055269826582e-07
6.802117265522527e-07
-1.01488341782971e-07
9.382056207039414e-07
1.300813969776378e-06
1.965436877965331e-06
3.611988521653875e-06
2.023702769916325e-06
1.499693328444702e-06
-6.795723863590183e-07
-1.573885068193811e-06
1.256866817346909e-06
2.680095440809879e-06
1.1723157980809e-06
-1.682396170082589e-06
-1.814403793479003e-06
-1.280613444329775e-06
-2.325470072493227e-06
-2.4883326737559e-06
-2.817060872023514e-06
-1.32636766590033e-06
5.309513299034783e-07
-3.863365300111446e-07
-9.231091113830558e-07
-2.367488800084004e-06
-3.115065786038634e-06
-3.166981020178684e-06
-2.705199011827778e-06
-1.557077330660439e-06
-1.239906673079768e-06
-1.746835400477559e-06
-1.080006841686136e-06
-7.284053804470622e-07
-1.478002297263278e-06
-7.948581024910046e-07
-5.379634125852702e-07
-1.323018894879325e-06
-6.018343381302953e-07
-2.395636312179354e-07
-9.038895448404191e-07
-3.072289428859884e-07
-1.064851669648424e-07
-7.682578062380476e-07
-2.17791515936268e-07
2.298425552888551e-08
-6.643095200053596e-07
-1.23884414153532e-07
9.813341827076571e-08
-5.913098437766285e-07
-4.130517368619087e-08
1.867117635430896e-07
-4.907514195412198e-07
5.665739315602807e-08
2.952724123175719e-07
-3.954575352558697e-07
1.718087445725375e-07
3.927445124186323e-07
-2.315352925520052e-07
2.831478875119975e-07
6.513379768507933e-07
-2.60090880543922e-08
9.190681561724294e-07
1.313509223418266e-06
1.901090985757633e-06
3.363827998898526e-06
1.904391953360121e-06
1.441872492668339e-06
-5.038910675682439e-07
-1.311036096526077e-06
1.108977662871688e-06
2.410654914720633e-06
1.059350131470656e-06
-1.499924371643332e-06
-1.67284737272936e-06
-1.358366203929059e-06
-2.269386522617248e-06
-2.396487590230713e-06
-2.639382636730077e-06
-1.309819043000044e-06
3.634614452891238e-07
-4.798694224255389e-07
-9.407734211615207e-07
-2.265680328552777e-06
-3.000504192654124e-06
-3.040886415793529e-06
-2.625520459399962e-06
-1.595806308582197e-06
-1.274092208482798e-06
-1.69338183617219e-06
-1.110316823728651e-06
-7.703462281619517e-07
-1.419219359923252e-06
-8.268592058152999e-07
-5.745426259019722e-07
-1.255719814643308e-06
-6.173993136137059e-07
-2.794693910612284e-07
-8.621290945420449e-07
-3.383170713559651e-07
-1.433040500725736e-07
-7.114370707596041e-07
-2.437600070889957e-07
-1.383489567322513e-08
-6.060724280766094e-07
-1.485245969979019e-07
6.293681872167806e-08
-5.321968258205062e-07
-6.577953320845015e-08
1.514452922861356e-07
-4.31896693591338e-07
3.193173450882983e-08
2.602340417775193e-07
-3.356150579270889e-07
1.491889541151925e-07
3.587830009075644e-07
-1.723159559991562e-07
2.662062837833511e-07
6.228571308965015e-07
4.700284483666492e-08
8.991464171299822e-07
1.317694014767303e-06
1.832578358867103e-06
3.127313190172225e-06
1.795144275900889e-06
1.375465675697411e-06
-3.468455021308667e-07
-1.066852010489353e-06
9.824467295607097e-07
2.148188200077689e-06
9.558622328479666e-07
-1.325120496206478e-06
-1.551407739593236e-06
-1.416990796746019e-06
-2.214705530241144e-06
-2.306705600484402e-06
-2.468856179310394e-06
-1.294471242769222e-06
2.043303744831018e-07
-5.605134846804097e-07
-9.639858888883739e-07
-2.174613538366834e-06
-2.883832709085026e-06
-2.9158864537097e-06
-2.543614430421825e-06
-1.628121161540175e-06
-1.305612735411857e-06
-1.642493519146011e-06
-1.137074278632423e-06
-8.114028423762714e-07
-1.363540304080587e-06
-8.559451627839311e-07
-6.100461298014681e-07
-1.192595275785847e-06
-6.316090426433427e-07
-3.164733403898715e-07
-8.24473905822671e-07
-3.665264698756683e-07
-1.787111541866831e-07
-6.600131740175659e-07
-2.663473371340937e-07
-4.878729690495374e-08
-5.531580020458106e-07
-1.698043107392046e-07
2.965067276845188e-08
-4.783610617542759e-07
-8.682162331417468e-08
1.180682005140249e-07
-3.782874818368381e-07
1.071776606741538e-08
2.271899028325725e-07
-2.809518035334951e-07
1.299781812609209e-07
3.269178344156214e-07
-1.177801154029351e-07
2.525088257702296e-07
5.955424508310916e-07
1.147646023874628e-07
8.787068164692849e-07
1.312896651461094e-06
1.759757277669544e-06
2.901726769495253e-06
1.692451136187362e-06
1.305944253393512e-06
-2.0706992890535e-07
-8.465355357486166e-07
8.744995423172249e-07
1.899050457063016e-06
8.576118982478988e-07
-1.166060348250336e-06
-1.44633107468076e-06
-1.454003460412911e-06
-2.156733084548079e-06
-2.217718558382911e-06
-2.308881937259995e-06
-1.280502454501535e-06
5.539206072989986e-08
-6.314985266324981e-07
-9.886424686987247e-07
-2.090017667941069e-06
-2.764917927939969e-06
-2.793190682486729e-06
-2.46145772247642e-06
-1.652792584141111e-06
-1.333359471887429e-06
-1.595703846913023e-06
-1.159599660708114e-06
-8.502710056342727e-07
-1.312782765390905e-06
-8.812668079333924e-07
-6.432450446093206e-07
-1.135227681112473e-06
-6.435478419007901e-07
-3.499865238800114e-07
-7.916189257560067e-07
-3.912374617664883e-07
-2.118432890832439e-07
-6.148038661550697e-07
-2.853038025215508e-07
-8.113234053749114e-08
-5.064000077264135e-07
-1.874732638133657e-07
-1.041711699216276e-09
-4.30680444870561e-07
-1.04217786817117e-07
8.728527726823548e-08
-3.308034242453291e-07
-6.772320030516002e-09
1.968216970941399e-07
-2.32392258859332e-07
1.143674992288912e-07
2.978894288084198e-07
-6.900162207365254e-08
2.421975629631617e-07
5.699060798911117e-07
1.756984610352443e-07
8.581220998310976e-07
1.300273662557667e-06
1.685993244597566e-06
2.690954684965825e-06
1.598462306407032e-06
1.237988696078407e-06
-8.657784904954381e-08
-6.529572855049387e-07
7.829690313000635e-07
1.670840595604727e-06
7.664571213624572e-07
-1.025140375371908e-06
-1.355530227401444e-06
-1.474483681020912e-06
-2.09725185564268e-06
-2.132609157455044e-06
-2.163096603825252e-06
-1.26738686132342e-06
-8.086154941578328e-08
-6.924177843328516e-07
-1.01270723298164e-06
-2.012763710583963e-06
-2.648834038101251e-06
-2.67616183509999e-06
-2.381503520895643e-06
-1.670016112911171e-06
-1.357030702793937e-06
-1.55393052707318e-06
-1.177869447824173e-06
-8.861622470100467e-07
-1.267871644647727e-06
-9.026257842916557e-07
-6.735233583274663e-07
-1.084580559016143e-06
-6.530298407426038e-07
-3.799132424832282e-07
-7.638625153776875e-07
-4.125624989033689e-07
-2.423054794341217e-07
-5.759481205253025e-07
-3.008128684279523e-07
-1.105075780863113e-07
-4.659453294272793e-07
-2.016904703098188e-07
-2.879283961749052e-08
-3.892864096779627e-07
-1.181342246315387e-07
5.943965059024052e-08
-2.895920499329086e-07
-2.073599711215626e-08
1.694368957851026e-07
-1.901161780891751e-07
1.021215456908619e-07
2.719792104848251e-07
-2.635198158991594e-08
2.349635915159505e-07
5.46113905697098e-07
2.290270659183328e-07
8.373802510333283e-07
1.280308805233484e-06
1.611016441087358e-06
2.493309997095024e-06
1.510074254658979e-06
1.172826124245284e-06
1.670384596980522e-08
-4.856799953442416e-07
7.05054185037427e-07
1.463570658197613e-06
6.795573975706878e-07
-9.043603881124183e-07
-1.275768799834356e-06
-1.478204009625581e-06
-2.033994600723471e-06
-2.049920841057339e-06
-2.031313528802879e-06
-1.255008521333251e-06
-2.04483824187679e-07
-7.458916618228159e-07
-1.034470445880746e-06
-1.940276035743788e-06
-2.535227203043987e-06
-2.564435407107871e-06
-2.30404807591184e-06
-1.679827179214418e-06
-1.376363249629677e-06
-1.517230405082865e-06
-1.192098082795553e-06
-9.186520648206677e-07
-1.228990606543834e-06
-9.202005792659458e-07
-7.005949093186372e-07
-1.040685755242822e-06
-6.601286254104629e-07
-4.062727357989185e-07
-7.408290506925231e-07
-4.306780150035071e-07
-2.698779788574403e-07
-5.430731964384876e-07
-3.132847822399494e-07
-1.367901395830379e-07
-4.314410900216671e-07
-2.128694799923244e-07
-5.3499921797568e-08
-3.538535611748908e-07
-1.289890666264335e-07
3.463826457184899e-08
-2.543170940832434e-07
-3.159003995709309e-08
1.451216047229268e-07
-1.537702392243754e-07
9.282783247864931e-08