/*--------------------------------*- C++ -*----------------------------------*\
| =========                 |                                                 |
| \\      /  F ield         | OpenFOAM: The Open Source CFD Toolbox           |
|  \\    /   O peration     | Version:  v1812                                 |
|   \\  /    A nd           | Web:      www.OpenFOAM.com                      |
|    \\/     M anipulation  |                                                 |
\*---------------------------------------------------------------------------*/
FoamFile
{
    version     2.0;
    format      ascii;
    class       surfaceScalarField;
    location    "10000";
    object      phi;
}
// * * * * * * * * * * * * * * * * * * * * * * * * * * * * * * * * * * * * * //

dimensions      [0 3 -1 0 0 0 0];
oriented        oriented;


internalField   nonuniform List<scalar> 
7417
(
-0.0007907770777967098
-9.71951349322758e-11
-0.0007907757920764236
-1.508518074544674e-09
-0.0007907794975443787
3.627209303958462e-09
-0.0007907763264157297
-3.08268960665913e-09
-0.0007907745309970882
-1.781531661578463e-09
-0.0007907796214217403
4.963240084387702e-09
-0.0007907762562744926
-3.306659384510025e-09
-0.0007907745054878268
-1.694183560391968e-09
-0.0007907795828009323
5.069584154388363e-09
-0.0007907762247746145
-3.339599196417248e-09
-0.0007907745223754752
-1.779877803877053e-09
-0.0007907795808710071
5.098562706666552e-09
-0.0007907762466004314
-3.280883838208654e-09
-0.0007907744917801247
-1.764227918118535e-09
-0.0007907795611721458
4.960836625216578e-09
-0.0007907762075801789
-3.324226748941326e-09
-0.0007907744659350506
-1.705298900588247e-09
-0.0007907795302350536
5.0465674112796e-09
-0.0007907764019139644
-3.277344566310407e-09
-0.0007907741060874087
-1.437325839492982e-09
-0.0007907795431660415
4.581749908310654e-09
-0.000790776167141201
-3.274112922777439e-09
-0.0007907743813947944
-1.830879893695453e-09
-0.0007907778196348525
3.845277140193214e-09
-0.0007907723931748106
-6.086578014364141e-09
-0.0007908042293119224
2.726501326118359e-08
-0.000791078068001679
2.610452869972769e-07
-0.000791269238605662
1.86817024056431e-07
-0.0007909839871944866
-2.754646300924179e-07
-0.0007907628395317957
-2.1484359141493e-07
-0.0007907798403021825
1.763535418075952e-08
-0.0007907933276960683
3.693780418266833e-08
-0.0007910700295689843
2.458271129775855e-07
-0.0007912946312238105
2.190678699292313e-07
-0.0007912877691876159
-7.9739158550455e-09
-0.0007912750543457221
-3.544832106799428e-08
-0.0007909950123377228
-2.459374922364274e-07
-0.0007907662326356562
-2.230136732071122e-07
-0.0007907746820893704
1.120521769156404e-08
-0.0007907711948413806
-2.243117707507031e-09
-0.0007908035060531311
2.823414123302982e-08
-0.0007910819445546204
2.619575510543425e-07
-0.0007912735000100862
1.891239140251628e-07
-0.0007909940479325175
-2.733026030839308e-07
-0.0007907684672217107
-2.142430574051257e-07
-0.0007907764118058686
1.221030656400154e-08
-0.0007907762371282367
3.480426713807581e-10
-0.0007907750500390845
8.600731756257291e-10
-0.0007907799925964818
3.839303009357801e-09
-0.0007907766394533469
-3.151526506859838e-09
-0.000790774812025294
-1.826758629940014e-09
-0.0007907798047476157
5.095764049965242e-09
-0.0007907764309621093
-3.32170751678263e-09
-0.0007907746575902357
-1.773025324120386e-09
-0.0007907797191526997
4.974964347416784e-09
-0.0007907761050927759
-3.491251386825599e-09
-0.0007907723590530962
-3.605028837811002e-09
4.653028120893081e-09
-0.0004882494334548919
1.601213391418472e-09
-0.0004882493732824723
-1.771964761703256e-09
-0.0004882503998386547
3.495769853922574e-09
-0.0004882512889984233
-1.501969970170712e-09
-0.0004882489973989444
-3.411649715160901e-09
-0.0004882503606418817
4.958596353788138e-09
-0.0004882512091567746
-1.802065935197855e-09
-0.0004882489362594014
-3.276796656493241e-09
-0.000488250298980221
5.157146459389147e-09
-0.0004882511696111054
-1.824732025074881e-09
-0.0004882489362058055
-3.407348321800107e-09
-0.0004882502648540686
5.18660451907235e-09
-0.0004882511599950914
-1.7323997588005e-09
-0.0004882488895443188
-3.395558261443362e-09
-0.0004882502271856077
4.945544449791198e-09
-0.0004882510816046466
-1.829645256583511e-09
-0.0004882488023267266
-3.307978958540874e-09
-0.0004882501313001325
5.102109426801625e-09
-0.0004882511515348742
-1.82287146517378e-09
-0.000488248342278053
-3.048909178591215e-09
-0.000488249987335852
4.433441922120925e-09
-0.0004882505466088715
-2.000857983282349e-09
-0.0004882479724695771
-3.811939976889323e-09
-0.0004882478743196554
3.095602986195132e-09
-0.0004882449637648782
-8.006536804524095e-09
-0.0004882538477087128
2.734439850305493e-08
-0.0004886077010910787
5.365029191648407e-07
-0.0004889150192425242
4.338120752669043e-07
-0.0004885627526232066
-5.539801398104735e-07
-0.0004882478543287499
-4.634401268962935e-07
-0.0004882510052844978
2.188174467830772e-08
-0.0004882425405559209
3.866916385609117e-08
-0.0004885996453392138
5.172489349027689e-07
-0.0004889371763778091
4.90348831214137e-07
-0.0004889445502424886
-2.367684086906762e-09
-0.000488932696246715
-5.661847259044444e-08
-0.0004885707768089739
-5.198150427872838e-07
-0.0004882536514736244
-4.753630762587705e-07
-0.000488253032424552
1.502344108938643e-08
-0.0004882481485606237
-3.330419932576597e-09
-0.0004882541375312442
2.658782302443253e-08
-0.0004886131212948289
5.410697475006405e-07
-0.0004889212040699134
4.389145094634513e-07
-0.0004885725401526373
-5.517800653019522e-07
-0.0004882556753481534
-4.614478390927208e-07
-0.0004882549675007567
1.698066311232452e-08
-0.0004882546873315376
1.693369406338334e-09
-0.0004882495098044809
-2.503636427580418e-09
-0.0004882514288621163
3.895574629618734e-09
-0.0004882519471123307
-1.790720032739211e-09
-0.0004882496146869325
-3.498847729855519e-09
-0.0004882507985422637
5.095429081930679e-09
-0.0004882516398332833
-1.822221867959603e-09
-0.0004882492974978394
-3.473731126841345e-09
-0.0004882506206264645
4.965637958884101e-09
-0.0004882513009190404
-2.009499709841359e-09
-0.0004882483957422141
-5.247022465935043e-09
3.17013030671509e-09
-0.0002193883520600886
6.228317511354893e-09
-0.0002193903355553194
1.362943416889151e-10
-0.0002193847311735759
-1.925525640898616e-09
-0.0002193895456244922
3.139363626491143e-09
-0.0002193905525581573
-2.542299135315412e-09
-0.0002193846292691738
-5.854151372148921e-10
-0.0002193894581812355
2.927509023227429e-09
-0.0002193904684054211
-2.457199272331784e-09
-0.0002193845492241318
-4.5907700396052e-10
-0.000219389412253625
2.866571327486271e-09
-0.0002193904577083725
-2.610701937599872e-09
-0.000219384499037502
-4.240784924563093e-10
-0.0002193893819773995
2.950045547858357e-09
-0.0002193904041442727
-2.530755519424065e-09
-0.0002193844535451423
-6.079728456508167e-10
-0.0002193892873258439
2.872946203776696e-09
-0.0002193902840367204
-2.523108033122079e-09
-0.0002193843365244641
-5.54010786832085e-10
-0.0002193892915368851
2.86012753067296e-09
-0.0002193898245956857
-1.919494289014882e-09
-0.0002193841342865521
-1.686088636162902e-09
-0.0002193886521298456
2.438110794894883e-09
-0.0002193892608234387
-3.485401764919071e-09
-0.0002193825413485795
-3.081175027808355e-09
-0.0002193845677667025
-7.290605179658915e-09
-0.0002193655861136527
6.574651516290777e-09
-0.000219256882929494
4.445621683873622e-07
-0.0002191919457973595
3.793454750000522e-07
-0.0002193230754332631
-4.408306251056426e-07
-0.0002194133701424615
-3.841817335816583e-07
-0.0002193948517120916
3.476804409115473e-09
-0.0002193569453276931
2.373271538575055e-08
-0.0002192621092458531
4.140596390282875e-07
-0.000219194799126783
4.343934660122318e-07
-0.0002192079060655728
1.041559745207557e-08
-0.0002192231764814829
-6.402685841245235e-08
-0.0002193182745076787
-4.13178790454209e-07
-0.0002194098319304693
-3.946120107409519e-07
-0.0002193961216248116
2.651858465419336e-09
-0.0002193920924161164
-7.071612263614941e-09
-0.000219366392745926
-9.27261020967003e-10
-0.0002192622291595318
4.430789509272558e-07
-0.0002191966308173664
3.868663509369081e-07
-0.0002193204984851299
-4.396899508159221e-07
-0.0002194118352773704
-3.84530771827374e-07
-0.0002193979642831805
5.809623661156486e-09
-0.000219397054313528
8.739822319350341e-10
-0.0002193912067172673
-6.593297669741449e-09
-0.0002193861672559743
-1.817750983388953e-09
-0.0002193904652324623
2.508076964391851e-09
-0.0002193914147323336
-2.799283770489809e-09
-0.000219385267526422
-6.480319390231475e-10
-0.0002193900799603164
2.786019893180826e-09
-0.0002193909913130005
-2.706463760337155e-09
-0.000219384987973432
-6.204865758750569e-10
-0.0002193897339350933
2.65335297442303e-09
-0.000219390581106322
-4.628996537785975e-09
-3.512082455587879e-09
-2.500268975750497e-05
9.531431506702068e-09
-2.500342030300223e-05
3.580839760451974e-10
-2.499826387168388e-05
-7.349454574731556e-09
-2.500255753118021e-05
7.610567719401998e-09
-2.500367535310544e-05
-1.236962673478789e-09
-2.499816011924713e-05
-6.436325365892594e-09
-2.50024752191279e-05
7.415204754264716e-09
-2.500359729187476e-05
-1.163808564835041e-09
-2.499808517243896e-05
-6.313842503872121e-09
-2.500242595318201e-05
7.383676432203891e-09
-2.500357247329486e-05
-1.297408047634673e-09
-2.499803041137339e-05
-6.292102123943771e-09
-2.50023814368143e-05
7.447491490749637e-09
-2.500350870981647e-05
-1.228712702812552e-09
-2.499796986708061e-05
-6.474920749263896e-09
-2.500228914918937e-05
7.35951864405282e-09
-2.500339109172323e-05
-1.255558173337532e-09
-2.499785689904159e-05
-6.426402498573067e-09
-2.500222248971865e-05
7.261507104142887e-09
-2.500300356862588e-05
-7.601589807816063e-10
-2.499761870217552e-05
-7.601650015667041e-09
-2.500168535449684e-05
6.72800233685513e-09
-2.500234967204939e-05
-2.705163231519979e-09
-2.499639637437846e-05
-8.974422086996084e-09
-2.499967022184065e-05
-3.445124386230318e-09
-2.498792268367255e-05
-9.195836586152046e-09
-2.471535813622398e-05
1.495103029996713e-07
-2.448249663905954e-05
1.27618009393912e-07
-2.477096127716796e-05
-1.343776922342208e-07
-2.502296266435353e-05
-1.110115195351687e-07
-2.50101132312098e-05
-7.875192870351769e-09
-2.498293012753151e-05
2.446046620976625e-10
-2.472800156629267e-05
1.326789954184252e-07
-2.448761721042658e-05
1.732575530436388e-07
-2.448587026339299e-05
6.81188898073901e-09
-2.450186431995732e-05
-5.101984282599147e-08
-2.476359563097332e-05
-1.238901015409015e-07
-2.501496884994214e-05
-1.235469228981827e-07
-2.500836355253015e-05
1.646873027834981e-10
-2.500655908730463e-05
-6.501766542733135e-09
-2.498998278876262e-05
-2.04602215652883e-08
-2.472026311758303e-05
1.481903003323421e-07
-2.448593908596101e-05
1.347169896930921e-07
-2.476519582909816e-05
-1.413464242269619e-07
-2.501689441826676e-05
-1.124350078018238e-07
-2.500980870186858e-05
3.270231947660376e-09
-2.500906530867694e-05
7.807140635019148e-10
-2.500488456522973e-05
-1.006171096755463e-08
-2.499992378113501e-05
-7.295276427377383e-09
-2.500363463769936e-05
6.529160147435675e-09
-2.500467319346825e-05
-1.59874948958829e-09
-2.499891477989968e-05
-6.700730653855667e-09
-2.500318723501761e-05
7.209435622610338e-09
-2.500418641830729e-05
-1.532964374459768e-09
-2.499858457750075e-05
-6.536564672718283e-09
-2.500280296825066e-05
7.157947879557507e-09
-2.500405987368016e-05
-2.718443152831322e-09
-8.4421291355782e-09
0.0001002941527992214
1.201559306187063e-08
0.0001002948306217281
-1.826492153561214e-10
0.0001002969914788362
-9.274511214724045e-09
0.0001002941409345742
1.025726025750462e-08
0.0001002946458319056
-1.909875616010074e-09
0.0001002970829919047
-8.455216723590301e-09
0.0001002942160323335
1.014075232333447e-08
0.0001002947173151405
-1.872384710974254e-09
0.0001002971523873925
-8.396531181782206e-09
0.0001002942714464323
1.008360285256916e-08
0.0001002947584712312
-2.003913989991004e-09
0.0001002972109726043
-8.365516425289292e-09
0.0001002943244132798
1.012055221444425e-08
0.0001002948248026948
-1.907352081787375e-09
0.000100297282412187
-8.503426171298497e-09
0.0001002944136668538
1.006479912444247e-08
0.0001002949388385271
-2.003448418297026e-09
0.0001002973901173144
-8.533815512506994e-09
0.0001002945269601583
9.902164533491747e-09
0.0001002952546210543
-1.262787374112753e-09
0.0001002976814822672
-1.008957573309859e-08
0.0001002949834788528
9.278470348388003e-09
0.000100295987303197
-3.975354629202356e-09
0.0001002986898383541
-1.131088229696891e-08
0.0001002968262860124
-2.725018373681827e-09
0.0001003001215191371
-1.195961006155223e-08
0.0001004159274742226
5.567707332342384e-08
0.000100520760259815
3.758955753986523e-08
0.0001003947703948368
-2.966893233063197e-08
0.0001002804971730005
-1.323330552562163e-08
0.000100287643035081
-1.569254551415432e-08
0.0001003020636402815
-1.199403154459226e-09
0.0001004048727014788
3.528428196143676e-08
0.0001005082945823331
8.628763405666484e-08
0.0001005156924635262
1.452200767277181e-10
0.0001005106811042891
-5.891847587193794e-08
0.0001003998283218298
-1.693397885490819e-08
0.0001002873957148279
-2.683171661661554e-08
0.0001002867258129276
3.232252245877035e-10
0.000100290012298955
-1.033857771466174e-08
0.0001002970942320136
-2.747199412353326e-08
0.0001004115445207302
4.752625511891681e-08
0.0001005173143912596
4.397237084486986e-08
0.0001003988743548311
-3.938232707397673e-08
0.0001002859995828515
-1.872655122463271e-08
0.0001002861012923626
3.433812995414347e-09
0.0001002881559208992
-1.487753118101359e-09
0.0001002927587841878
-1.378279167378386e-08
0.0001002951233236802
-9.852519400812576e-09
0.0001002928985668025
8.639423164482547e-09
0.0001002935267750586
-2.477151142855696e-09
0.0001002962312772895
-8.995790826595772e-09
0.0001002934342317618
9.789249666411101e-09
0.0001002940722407647
-2.338608781804089e-09
0.0001002965930180269
-8.618662270691405e-09
0.0001002938377729808
9.742513256904594e-09
0.0001002941971736323
-3.488974141313196e-09
-1.064370584406217e-08
0.0001848494515368246
1.337077659160744e-08
0.0001848506385954484
-1.81735166329283e-09
0.0001848515220670313
-1.014215459166043e-08
0.0001848493646120343
1.242577214476208e-08
0.0001848505141732199
-3.043718228563917e-09
0.0001848516055265312
-9.545428483869515e-09
0.0001848494368127673
1.231514732616415e-08
0.0001848505853023635
-3.024115128438815e-09
0.000184851674828308
-9.506741647113742e-09
0.0001848494983727195
1.227804408968395e-08
0.0001848506376591092
-3.125949751926834e-09
0.0001848517373606099
-9.481584429544246e-09
0.000184849557583858
1.229113405664099e-08
0.0001848507057612969
-3.045591955785103e-09
0.0001848518153692657
-9.609717408269914e-09
0.0001848496461243025
1.224169249470693e-08
0.000184850820060739
-3.180847728052107e-09
0.000184851920410215
-9.650396264571609e-09
0.0001848497799385282
1.198212438587776e-08
0.0001848510891954264
-2.559001056459157e-09
0.000184852239363085
-1.126288488023216e-08
0.0001848501795154977
1.138315207000531e-08
0.0001848518475757753
-5.667740330998845e-09
0.0001848530748346587
-1.232938229359157e-08
0.0001848521257565702
-1.417622276322782e-09
0.000184852829737936
-1.438236254923496e-08
0.0001848868312420553
1.85133169137993e-08
0.0001849202903353132
7.411142298693197e-10
0.000184877904606139
1.28395556543007e-08
0.0001848384709251059
3.047481338095005e-08
0.0001848434949694539
-1.980318149284788e-08
0.0001848528730564918
-1.117851474670376e-08
0.000184877785567159
6.964728949351236e-09
0.0001849062012305358
5.408797250887171e-08
0.0001849134659781406
-8.19414487276515e-09
0.0001849129313941317
-5.730428614498463e-08
0.0001848808498512773
1.88569704807432e-08
0.0001848441738630226
1.285945967614727e-08
0.0001848413881380757
5.797731994374855e-09
0.0001848451014944725
-1.270084320921798e-08
0.0001848491970080348
-3.251709679394666e-08
0.000184882753684122
9.624511572966353e-09
0.0001849166816920771
6.994714364828392e-09
0.0001848803730766966
-1.511816823280034e-09
0.0001848432162104092
2.140681535557e-08
0.0001848413593127597
8.113835848679736e-09
0.0001848433528562817
-3.268229302136383e-09
0.0001848479744933052
-1.829813374565803e-08
0.000184849392977357
-1.124507025237878e-08
0.0001848479147614903
1.02094526307799e-08
0.0001848492489864631
-3.812473061715105e-09
0.0001848506374541202
-1.038728574588856e-08
0.0001848485674403275
1.185377603597183e-08
0.0001848498674966253
-3.63177728115584e-09
0.0001848510467577757
-9.786666021616229e-09
0.0001848490010949423
1.187211853432416e-08
0.0001848500653541464
-4.228069598487114e-09
-1.141885381626839e-08
0.0002500249796874183
1.501813943671049e-08
0.0002500261331515998
-2.772676748317933e-09
0.0002500267241606983
-1.059183517377445e-08
0.0002500249408197759
1.406520341158544e-08
0.0002500260530311221
-4.262983884788013e-09
0.0002500268080114801
-1.001501820830305e-08
0.0002500250146923925
1.402336555140755e-08
0.0002500261276634331
-4.276832813174774e-09
0.0002500268801855603
-1.003446009766585e-08
0.0002500250816579296
1.395289882561394e-08
0.0002500261882411283
-4.379946642891781e-09
0.0002500269473051722
-9.997233482691678e-09
0.0002500251472234051
1.394567544521541e-08
0.0002500262599998407
-4.272149674178521e-09
0.0002500270311658155
-1.008712661925745e-08
0.0002500252367723251
1.393324481290884e-08
0.0002500263761217447
-4.474028269236243e-09
0.0002500271352729051
-1.018903524786327e-08
0.0002500253841071091
1.359447104056154e-08
0.0002500266153666163
-3.651944610890604e-09
0.0002500274597997495
-1.21415347822676e-08
0.0002500257348134915
1.300516926433224e-08
0.0002500273656357247
-7.491275793466512e-09
0.0002500281466288224
-1.293333051840807e-08
0.0002500276196026085
-1.87507943047557e-09
0.000250027920087932
-1.392822561257904e-08
0.000250036281702538
2.613602257853039e-08
0.0002500464711301601
5.612247123448746e-10
0.0002500307250787326
1.390430893368594e-08
0.0002500155598050262
3.414015561682077e-08
0.0002500192757516888
-2.436841552405796e-08
0.0002500265761149358
-9.950407096550077e-09
0.0002500286422559389
9.509227001346397e-09
0.0002500332290800588
6.067337274574319e-08
0.0002500387890726705
-1.272747382496332e-08
0.0002500395132042411
-6.658428443606428e-08
0.0002500321182661703
2.258909848080887e-08
0.0002500202705641319
1.411088647101004e-08
0.0002500172331782851
7.71324017051408e-09
0.0002500204171037922
-1.639316776341438e-08
0.0002500236919162912
-3.556616956280933e-08
0.0002500322339581344
1.127537875178464e-08
0.0002500427518619302
6.875662503940428e-09
0.0002500319199952901
-1.340873134590464e-09
0.0002500195218759203
1.983407857194646e-08
0.0002500174688663498
9.724940452879276e-09
0.0002500188154380364
-4.837773957755076e-09
0.0002500229357260517
-2.182746273083831e-08
0.0002500243031428932
-1.271623251524479e-08
0.0002500232590025069
1.117433477572991e-08
0.0002500246227588711
-5.351097978822096e-09
0.0002500257068216546
-1.120711889525796e-08
0.0002500240414845153
1.337085468554063e-08
0.000250025324362488
-5.019246596569387e-09
0.0002500261750154917
-1.033681061315393e-08
0.0002500245091438333
1.341776943602611e-08
0.0002500255867390074
-5.649562248781308e-09
-1.22820807555362e-08
0.0003103163816689458
1.588958864150576e-08
0.0003103173396876701
-4.061074454004188e-09
0.000310317888844555
-1.111152848665522e-08
0.0003103164314077839
1.551152863602349e-08
0.0003103173043109712
-5.14373472050792e-09
0.0003103179781679863
-1.064641239514071e-08
0.0003103165111046034
1.547383062195762e-08
0.0003103173868127147
-5.177719015684273e-09
0.0003103180576774707
-1.068294734604407e-08
0.0003103165858400783
1.541828136090326e-08
0.0003103174557270597
-5.25333072502284e-09
0.0003103181306518023
-1.064788562640768e-08
0.0003103166581571398
1.539164839737917e-08
0.0003103175320645835
-5.158090130875853e-09
0.0003103182204195086
-1.073234948869198e-08
0.0003103167507855124
1.538920085113864e-08
0.0003103176532700219
-5.40076376112194e-09
0.0003103183262500145
-1.083641567540967e-08
0.0003103169054138251
1.495430616551075e-08
0.0003103178742740817
-4.669690571926522e-09
0.0003103186557093862
-1.286898033398546e-08
0.0003103172222339332
1.445552377409434e-08
0.0003103186097592621
-8.914160358053808e-09
0.0003103192371820393
-1.337797345029318e-08
0.0003103188826097273
-1.306310387316181e-09
0.0003103190644864961
-1.522720733715982e-08
0.000310320461751202
2.449519136487893e-08
0.0003103243835136704
-4.283664571841352e-09
0.0003103167412257002
1.954064143877433e-08
0.0003103084521057424
4.386206111026132e-08
0.0003103106383460845
-2.609971288393085e-08
0.0003103166497894063
-1.728752479607771e-08
0.0003103138910026567
1.249011002107551e-08
0.0003103123227538707
6.125792318124705e-08
0.000310316405027775
-1.735738013877042e-08
0.0003103173300436432
-6.578486248059451e-08
0.000310316700410584
2.312768788930641e-08
0.0003103122135895568
1.891544371881963e-08
0.0003103092361019155
1.265910727355719e-08
0.0003103115584362732
-1.774728495986859e-08
0.0003103143009608602
-3.884792780929679e-08
0.0003103163056791311
8.637702947933112e-09
0.0003103204965267501
1.983510096325337e-09
0.0003103168460430735
1.563174978699839e-09
0.0003103116309044594
2.53606854238426e-08
0.0003103095673802622
1.384246801231384e-08
0.0003103101956713681
-5.344986906070366e-09
0.0003103136580676694
-2.529376514726991e-08
0.0003103151574651939
-1.411039803932687e-08
0.0003103144964966649
1.188618712942667e-08
0.0003103156861596474
-6.561573625366192e-09
0.000310316722996586
-1.221037738235941e-08
0.0003103154132085745
1.465761217244832e-08
0.0003103164784268424
-6.099773183263138e-09
0.0003103172605186668
-1.106858419811639e-08
0.0003103159325770066
1.479072910011071e-08
0.0003103168113137809
-6.31845207330496e-09
-1.272044600362165e-08
0.0003786200718765975
1.69619529296805e-08
0.0003786208013252488
-4.544224539999331e-09
0.0003786213473571076
-1.157256496895212e-08
0.0003786201905377099
1.657488089103297e-08
0.0003786207992652728
-5.823374958264925e-09
0.0003786214520279065
-1.111901836959138e-08
0.0003786202828629475
1.659618970155998e-08
0.0003786208941662788
-5.875365771724091e-09
0.0003786215425264573
-1.118128416286581e-08
0.000378620367532347
1.651248270529709e-08
0.0003786209731985797
-5.957482347862293e-09
0.0003786216244475604
-1.113203358159403e-08
0.0003786204493315358
1.647327576299483e-08
0.0003786210576331794
-5.843184194014853e-09
0.0003786217231675587
-1.121026272775921e-08
0.0003786205485065485
1.649807742120608e-08
0.000378621187123971
-6.140314463464127e-09
0.000378621833733861
-1.133458333103026e-08
0.0003786207146675994
1.5973245475112e-08
0.0003786214024777681
-5.253634277881828e-09
0.0003786221678960116
-1.367800243480136e-08
0.0003786210057648959
1.553902583867399e-08
0.0003786221221184676
-1.017719266856359e-08
0.0003786226657713231
-1.386321278871232e-08
0.0003786223811660548
-1.852819143518116e-09
0.000378622676885068
-1.478943344705529e-08
0.00037862247541758
3.526817626734827e-08
0.0003786245699975791
8.227879222101472e-10
0.0003786194603933877
1.526931739966927e-08
0.0003786132788198128
4.141564101545782e-08
0.0003786142143494159
-2.797564768196569e-08
0.0003786193570487916
-1.646114514063768e-08
0.0003786164342644918
1.821461525542053e-08
0.0003786137274899945
7.196565376509313e-08
0.0003786163383408179
-1.872107208867559e-08
0.0003786168959814482
-7.236867822942499e-08
0.0003786181939680412
1.968085308123922e-08
0.0003786160745276225
1.362679471232784e-08
0.0003786133609214638
1.429118041591733e-08
0.0003786148731051846
-1.969111972258899e-08
0.000378617268723258
-4.108342875307821e-08
0.0003786179446437628
1.461009108520325e-08
0.0003786204304028875
6.355211677431953e-09
0.000378618574223032
-3.671622144197709e-09
0.0003786156068378208
1.909444332071018e-08
0.0003786137636018281
1.492702851175224e-08
0.0003786137982181761
-5.590935786249872e-09
0.0003786166107796058
-2.764059983378078e-08
0.0003786182404430336
-1.580602984683218e-08
0.0003786179510616724
1.212973498832771e-08
0.0003786189424453799
-7.66890863884705e-09
0.0003786199982133192
-1.307868921105636e-08
0.0003786190194102778
1.554175463129802e-08
0.0003786198461854684
-6.992368492315579e-09
0.0003786206236006161
-1.165210138124082e-08
0.0003786196052139139
1.572239465567934e-08
0.0003786202399357757
-7.271412136446233e-09
-1.350550518677508e-08
0.0004691723231302932
1.734215519670407e-08
0.0004691728380650993
-5.272701715018577e-09
0.0004691733799758596
-1.211335765346521e-08
0.0004691725296485242
1.741105277748781e-08
0.0004691728790859505
-6.181664786667019e-09
0.0004691735093815056
-1.17092467240371e-08
0.0004691726427928967
1.744694368995825e-08
0.0004691729938124257
-6.249429013180448e-09
0.0004691736181342424
-1.177977371536044e-08
0.0004691727435780819
1.737544318628889e-08
0.0004691730874902298
-6.308560325637677e-09
0.0004691737134768681
-1.172881239964641e-08
0.0004691728386623036
1.732228529991927e-08
0.0004691731842240263
-6.20221771896277e-09
0.0004691738257084326
-1.181085768710163e-08
0.000469172949482707
1.735876457531426e-08
0.0004691733282281183
-6.542984942706711e-09
0.0004691739459407122
-1.19250336080019e-08
0.0004691731287371292
1.673133358432591e-08
0.0004691735494701427
-5.713517083057027e-09
0.0004691742958252326
-1.438480005405139e-08
0.0004691734095498024
1.64346659688306e-08
0.0004691742630738372
-1.106928534236139e-08
0.0004691747515210276
-1.421933694279033e-08
0.0004691744428648218
-1.529481694273264e-09
0.0004691747145818746
-1.599144421932347e-08
0.0004691742805144947
3.583850233468433e-08
0.0004691759694614491
-1.357416111979933e-09
0.0004691721161162095
1.723690938427567e-08
0.0004691667012794305
4.757063933968117e-08
0.0004691661868150411
-2.734658415927482e-08
0.0004691705630552237
-2.165108978250725e-08
0.0004691684723579687
2.049133130938753e-08
0.0004691660623342009
7.39528142791146e-08
0.0004691675573597816
-2.033451571980289e-08
0.0004691674550891973
-7.109265916749797e-08
0.0004691695078150962
1.758671658526393e-08
0.0004691684189217548
1.460125381594652e-08
0.0004691659515969069
1.826947272949983e-08
0.0004691666462576626
-1.960066195609308e-08
0.000469168574952889
-4.348677372813595e-08
0.000469169172537899
1.405881086098597e-08
0.0004691714305842104
3.821385436137874e-09
0.000469170204578792
-3.249945865369787e-09
0.0004691680853432489
2.12220969179238e-08
0.0004691664076168952
1.828323647084619e-08
0.0004691658744485589
-4.920537041616059e-09
0.0004691680414400059
-2.975762454017721e-08
0.0004691697778481972
-1.744847612247433e-08
0.0004691698838195696
1.20720637118992e-08
0.0004691706910947304
-8.495020164752151e-09
0.0004691717784495552
-1.412471461237567e-08
0.0004691711442261686
1.615421183782621e-08
0.0004691717454833269
-7.608191037973464e-09
0.0004691725258445937
-1.238247483027747e-08
0.0004691718342873797
1.644949693029811e-08
0.0004691722293035613
-7.537155236976307e-09
-1.397030469381763e-08
0.0005980031161333475
1.772963364016366e-08
0.0005980034181515915
-5.3373454900783e-09
0.0005980039174435678
-1.256214661593022e-08
0.0005980034199165058
1.784260762822301e-08
0.0005980035058031727
-6.314759320321069e-09
0.0005980040881781938
-1.21706449761466e-08
0.0005980035680862614
1.794667981460246e-08
0.0005980036514224291
-6.387650517162876e-09
0.0005980042245374446
-1.225243190746541e-08
0.000598003691902009
1.784970228857537e-08
0.0005980037659764437
-6.458019577574518e-09
0.0005980043404331129
-1.218673001925695e-08
0.0005980038069739598
1.779056876493446e-08
0.0005980038821709125
-6.330441308408406e-09
0.0005980044733759309
-1.227337315867959e-08
0.0005980039366689531
1.785404518860605e-08
0.0005980040480091911
-6.727081377077838e-09
0.0005980046090343142
-1.238498303429245e-08
0.0005980041370139141
1.711936260984874e-08
0.0005980042888734573
-5.776539144958445e-09
0.000598004979013688
-1.513047233427578e-08
0.0005980044139305587
1.693540809353085e-08
0.000598004990103144
-1.178375341709308e-08
0.000598005408474395
-1.465572254413734e-08
0.0005980050187429735
-1.941056055053209e-09
0.0005980053544142151
-1.579124595165799e-08
0.0005980053205003527
4.356576000932473e-08
0.000598006746513618
2.402131754794443e-09
0.0005980034431771056
1.400789424655347e-08
0.0005979985359120057
4.596738725538485e-08
0.0005979966725262277
-2.636977521039302e-08
0.0005980003745587767
-2.062806749001078e-08
0.0005979992775951249
2.356232485527172e-08
0.0005979978005118682
8.109719880127576e-08
0.0005979980509691025
-1.924178893356615e-08
0.0005979968060869494
-7.469582398132781e-08
0.0005979994156452774
1.349162891336842e-08
0.0005979989443587132
9.972597668476989e-09
0.0005979969015474629
1.920105645238173e-08
0.0005979968068488382
-1.974104139794474e-08
0.0005979982375523897
-4.48653699813766e-08
0.0005979992575131006
1.782544994561773e-08
0.000598001619500194
6.668137445477184e-09
0.0005980003919401056
-6.707793551153322e-09
0.0005979987341612118
1.616320017791711e-08
0.0005979974304357986
1.888493879347922e-08
0.0005979964069403223
-4.066331694333129e-09
0.0005979978708963884
-3.07862141305966e-08
0.0005979996462069873
-1.926008422467117e-08
0.0005980002152719708
1.149341069278513e-08
0.0005980008501668644
-9.211089103075285e-09
0.0005980019633729264
-1.509838161254366e-08
0.0005980017307469931
1.63222762724091e-08
0.0005980021129402315
-8.030025322296464e-09
0.0005980028807896675
-1.301468219969915e-08
0.0005980025645872763
1.671105111720907e-08
0.0005980027065048122
-7.95470849908334e-09
-1.46797961043069e-08
0.0007809799323478314
1.736978207463031e-08
0.0007809800204123139
-5.511634400603665e-09
0.0007809804275984715
-1.299304244048551e-08
0.0007809803842639598
1.786194436087816e-08
0.0007809801840579023
-6.125348739942451e-09
0.0007809806603509515
-1.260376538393184e-08
0.0007809805859345268
1.80106168997604e-08
0.0007809803763771745
-6.200089753855321e-09
0.0007809808389918674
-1.268404456016582e-08
0.0007809807447782085
1.792418566925166e-08
0.0007809805210761683
-6.252567230548388e-09
0.0007809809839734735
-1.261144608022903e-08
0.0007809808873795385
1.785761912650049e-08
0.0007809806645689203
-6.12419682690311e-09
0.0007809811458723405
-1.270926721992323e-08
0.0007809810444409526
1.793793466283003e-08
0.0007809808612266275
-6.572970052746039e-09
0.0007809813037920673
-1.279657192026318e-08