/*--------------------------------*- C++ -*----------------------------------*\
| =========                 |                                                 |
| \\      /  F ield         | OpenFOAM: The Open Source CFD Toolbox           |
|  \\    /   O peration     | Version:  v1812                                 |
|   \\  /    A nd           | Web:      www.OpenFOAM.com                      |
|    \\/     M anipulation  |                                                 |
\*---------------------------------------------------------------------------*/
FoamFile
{
    version     2.0;
    format      ascii;
    class       volVectorField;
    location    "10000";
    object      U;
}
// * * * * * * * * * * * * * * * * * * * * * * * * * * * * * * * * * * * * * //

dimensions      [0 1 -1 0 0 0 0];


internalField   nonuniform List<vector> 
3770
(
(-0.8346053966579436 1.317049662760593e-08 -9.044317918367598e-06)
(-0.8345991825981365 1.342002776419351e-08 -9.044923245337464e-06)
(-0.8346019807714944 1.126525807178331e-09 -9.044591451218981e-06)
(-0.8346079463768407 -1.613118858223371e-08 -9.044211157226702e-06)
(-0.8345952649023943 -1.066046085520469e-10 -9.04495540962944e-06)
(-0.8346024065108981 1.867128333444084e-08 -9.044556608134592e-06)
(-0.8346079042454474 -1.891582244077969e-08 -9.044193407421922e-06)
(-0.8345952544256052 1.23062134694379e-10 -9.044935379759779e-06)
(-0.8346024154589645 1.85736486395353e-08 -9.044540744014539e-06)
(-0.8346078739403584 -1.878651096914538e-08 -9.044176805338411e-06)
(-0.8345952199561023 2.061680416342197e-10 -9.044920046781079e-06)
(-0.8346024116997647 1.845878589244882e-08 -9.044527261385074e-06)
(-0.8346078658192437 -1.878999524542359e-08 -9.0441639444187e-06)
(-0.8345952143317191 2.580200318346955e-10 -9.044907611419753e-06)
(-0.8346023718875488 1.859194442631615e-08 -9.044514214638765e-06)
(-0.8346078400763146 -1.899947336520663e-08 -9.044152665564301e-06)
(-0.8345952006146968 1.162120158204585e-10 -9.044897326107623e-06)
(-0.834602331298638 1.827097566402053e-08 -9.044505429523374e-06)
(-0.834607789075184 -1.844229581460352e-08 -9.044143953184644e-06)
(-0.8345952705769457 -7.846858205404952e-10 -9.04489588944368e-06)
(-0.8346020859630038 1.823437677719031e-08 -9.044497839991865e-06)
(-0.8346076495032693 -2.33083448557573e-08 -9.044151919336259e-06)
(-0.8345951502659796 4.344964397281222e-09 -9.044898068692304e-06)
(-0.8346018296022338 5.414038254588447e-08 -9.044556827238075e-06)
(-0.8346054088467845 1.864229964584636e-08 -9.044285230827754e-06)
(-0.83458493465309 -7.6624806578043e-07 -9.04486755064997e-06)
(-0.8346506621563536 -3.452892046578276e-06 -9.040660264675787e-06)
(-0.8351964222647796 -8.337745107581496e-07 -9.01228955696315e-06)
(-0.8350925909598444 4.096874893743364e-06 -9.0186395713456e-06)
(-0.8345487677434391 1.442040814947262e-06 -9.047415672543401e-06)
(-0.8346036456322217 -5.982547576296566e-07 -9.044562021234275e-06)
(-0.8345919704231101 -6.150903245167934e-07 -9.04496619489136e-06)
(-0.8346397295830725 -3.538945581020388e-06 -9.040716817909065e-06)
(-0.8351790358836274 -1.764033252976577e-06 -9.012576271071878e-06)
(-0.8351411571844487 8.635357165989234e-07 -9.01502662308078e-06)
(-0.8351537593947027 8.046972865635154e-07 -9.014571286422906e-06)
(-0.8351078416834984 3.419028329590935e-06 -9.018232308433904e-06)
(-0.8345645177376306 1.42476421124407e-06 -9.046543351272857e-06)
(-0.834597211551438 -7.546585237700396e-07 -9.044707982748187e-06)
(-0.8346016380667971 2.871262701323171e-07 -9.044552431107764e-06)
(-0.8345866423716412 -7.464377922749154e-07 -9.044765884173708e-06)
(-0.834650760744625 -3.45752212012621e-06 -9.04052430926753e-06)
(-0.8351985719274526 -8.173848826618408e-07 -9.012176889759497e-06)
(-0.8350977753575732 4.178270928958777e-06 -9.018317395330525e-06)
(-0.8345667815456853 1.290199764704641e-06 -9.046482765692226e-06)
(-0.8345986291626862 -7.637524116206517e-07 -9.044597459653139e-06)
(-0.834603543839649 2.495985727604035e-07 -9.044398703806122e-06)
(-0.8345969203068809 2.680594723293854e-08 -9.044760732093015e-06)
(-0.8346025572587442 8.422978663834645e-09 -9.044373380501962e-06)
(-0.834608103064571 -1.468486262557373e-08 -9.044009162187175e-06)
(-0.8345955899249117 -2.20428220328468e-09 -9.044792234295768e-06)
(-0.8346025608538434 1.924857907792449e-08 -9.044339707442293e-06)
(-0.8346081004797009 -1.943356432931638e-08 -9.044062809733983e-06)
(-0.8345953396226853 4.996426699310597e-10 -9.044700455028341e-06)
(-0.8346025584183943 1.876878112508567e-08 -9.044447072874566e-06)
(-0.8346080423494021 -1.986398126413021e-08 -9.043916718883209e-06)
(-0.8345951863429011 -1.963764767955827e-08 -9.044915850183639e-06)
(-0.8345979173778016 4.084871792520324e-09 -9.044310026879367e-06)
(-0.5152436570850204 3.241475970190513e-07 -2.659559157600613e-05)
(-0.5152465395875626 2.566677702448728e-07 -2.659561312291824e-05)
(-0.5152428692022515 -5.691843197747564e-07 -2.659575414469617e-05)
(-0.5152495296659549 3.245026132436075e-07 -2.659518564196779e-05)
(-0.5152448243200833 2.383523406571111e-07 -2.659557121394865e-05)
(-0.5152429233743283 -5.630060520225884e-07 -2.659566787148748e-05)
(-0.5152495153198903 3.228691467842657e-07 -2.659512638011477e-05)
(-0.5152447718585388 2.386904616269859e-07 -2.659551101989356e-05)
(-0.5152429018830095 -5.625888011456211e-07 -2.659561809786717e-05)
(-0.5152494692669158 3.233483637574048e-07 -2.65950771178601e-05)
(-0.5152447360441186 2.386270125378775e-07 -2.659546527665502e-05)
(-0.5152428604820536 -5.630854928899691e-07 -2.659557686855902e-05)
(-0.5152494305396821 3.231571110304646e-07 -2.659503793977995e-05)
(-0.5152446914232384 2.385584662643617e-07 -2.659542798427261e-05)
(-0.515242826048471 -5.633563818635578e-07 -2.659553882464043e-05)
(-0.5152493607471247 3.222440138194218e-07 -2.659500406802381e-05)
(-0.5152446412921836 2.379379365275888e-07 -2.659539601677892e-05)
(-0.5152426924665379 -5.639662805837338e-07 -2.659551099556214e-05)
(-0.515249264078544 3.211935270419687e-07 -2.659497526206349e-05)
(-0.5152444755686862 2.352042227968616e-07 -2.659538513783372e-05)
(-0.5152424977920141 -5.671275963998014e-07 -2.659548713475404e-05)
(-0.5152487245209871 3.101314810422749e-07 -2.659499102888523e-05)
(-0.5152439838288086 2.277999013717726e-07 -2.659540591961653e-05)
(-0.5152411991727002 -5.724092530665702e-07 -2.659560478564478e-05)
(-0.5152467403352564 1.46697743613382e-07 -2.659516800024147e-05)
(-0.5152296973388089 -2.985777503757943e-06 -2.659586297475938e-05)
(-0.5152444854403468 -2.431472208125454e-05 -2.659361047586065e-05)
(-0.516008670601567 -1.621932889663093e-05 -2.655265929935287e-05)
(-0.5159300003304277 2.666002477707122e-05 -2.655870051672451e-05)
(-0.5152223724037758 1.890415911598225e-05 -2.659663661862837e-05)
(-0.5152434468108289 -1.909642470717873e-06 -2.659551255318321e-05)
(-0.5152344472043923 -3.063059822388916e-06 -2.659611787966897e-05)
(-0.515235856023207 -2.458443872352762e-05 -2.659343071502554e-05)
(-0.515988568607333 -1.865881448477804e-05 -2.655301836951152e-05)
(-0.5159754594355799 2.692740247792629e-06 -2.655492581904105e-05)
(-0.5159950308531395 2.320306000825013e-06 -2.655393757812997e-05)
(-0.5159412328913617 2.419593875429205e-05 -2.65584011970955e-05)
(-0.5152358064211987 1.886005063891262e-05 -2.659598749401604e-05)
(-0.5152445556287307 -1.980202726221139e-06 -2.659503247913453e-05)
(-0.5152521669076625 6.447995113497813e-07 -2.65948648971879e-05)
(-0.5152315110901298 -3.185783466285153e-06 -2.659574160470916e-05)
(-0.515246770930322 -2.428223718416972e-05 -2.659322902617391e-05)
(-0.5160115632678792 -1.617040211110484e-05 -2.65524148786661e-05)
(-0.5159384258888904 2.64887503815218e-05 -2.655818539691789e-05)
(-0.5152366719482763 1.86560607123776e-05 -2.659589076276157e-05)
(-0.5152468064424242 -1.947185630173226e-06 -2.659480476460763e-05)
(-0.5152536822529658 7.793971754681192e-07 -2.659464853181824e-05)
(-0.5152451907446601 2.786530289938672e-08 -2.659514847453819e-05)
(-0.5152443534979112 -5.67800259685413e-07 -2.65951278223702e-05)
(-0.515249894478115 3.252090941817249e-07 -2.659456578067947e-05)
(-0.5152456605469116 2.328364115716217e-07 -2.659509944473273e-05)
(-0.5152432708601352 -5.643421507029779e-07 -2.659501110646077e-05)
(-0.5152500531857845 3.211562446194703e-07 -2.659475215965106e-05)
(-0.515245050919082 2.369003648364958e-07 -2.659480012689064e-05)
(-0.5152432875047753 -5.636443838581635e-07 -2.659535977474189e-05)
(-0.5152497873501624 3.231760607991156e-07 -2.659427725107043e-05)
(-0.5152450956802274 2.339112448871134e-07 -2.659539106975832e-05)
(-0.5152414064099606 -5.827317899300247e-07 -2.659472070630217e-05)
(-0.2314163679698335 5.776926572228729e-07 -4.225920416472301e-05)
(-0.2314307048127386 4.275010952233808e-07 -4.225841865618157e-05)
(-0.2314200644263846 -1.010718405788138e-06 -4.225910771240473e-05)
(-0.2314193716130347 5.943470196121848e-07 -4.22588224130782e-05)
(-0.2314304547299582 4.132851267750991e-07 -4.225828200563675e-05)
(-0.2314199678282877 -1.008542122294677e-06 -4.225897392809761e-05)
(-0.2314193606988479 5.914199666423546e-07 -4.225871895397292e-05)
(-0.2314303787342194 4.139970454937932e-07 -4.225818222354922e-05)
(-0.2314199183835916 -1.008494833169805e-06 -4.225888824248897e-05)
(-0.2314192991828756 5.920154494599596e-07 -4.225863807700356e-05)
(-0.2314303444539261 4.143060264621726e-07 -4.22581074043432e-05)
(-0.2314198583431786 -1.009339678982772e-06 -4.225882028230234e-05)
(-0.2314192459617293 5.910615888467799e-07 -4.225857333488154e-05)
(-0.2314302741681685 4.13867205290155e-07 -4.225804727390813e-05)
(-0.2314198327981968 -1.009384226387845e-06 -4.225876048529401e-05)
(-0.2314191529554281 5.901326699456524e-07 -4.225851842610341e-05)
(-0.2314302110866022 4.118848942475597e-07 -4.225799314790469e-05)
(-0.2314196430670595 -1.011152176436359e-06 -4.225871149064012e-05)
(-0.2314190690361042 5.867386550475492e-07 -4.225846856672812e-05)
(-0.2314299197517802 4.061332654497431e-07 -4.225797041835898e-05)
(-0.2314195353112675 -1.020286342431495e-06 -4.225866220257243e-05)
(-0.2314183485597818 5.661507175968937e-07 -4.225847210247349e-05)
(-0.2314295199482722 3.769962547215199e-07 -4.225796535264338e-05)
(-0.2314177939276241 -1.061606432423506e-06 -4.225877792009486e-05)
(-0.2314178092569047 3.986712351157473e-07 -4.225858503509606e-05)
(-0.231417436230594 -2.955024895526706e-06 -4.225858963966141e-05)
(-0.2313626031103076 -3.947024940123838e-05 -4.226134143154217e-05)
(-0.2312125595370032 -3.191616078530442e-05 -4.227089259505839e-05)
(-0.2312519200829014 4.176978766956987e-05 -4.226847595033093e-05)
(-0.2314595194487276 3.439860267164579e-05 -4.225540734502964e-05)
(-0.2314251345572391 -1.35945599252788e-06 -4.225814755351375e-05)
(-0.2314207292116454 -3.442050985863375e-06 -4.225904510344484e-05)
(-0.2313596987641297 -3.952197063565306e-05 -4.226073403037142e-05)
(-0.2312157116399992 -3.395357113131967e-05 -4.226985396204403e-05)
(-0.2312394380937138 2.106690678232066e-06 -4.226899386059682e-05)
(-0.2312396375448553 2.183932332226968e-06 -4.22691241605648e-05)
(-0.2312580385540389 3.95055883926666e-05 -4.226860001103566e-05)
(-0.2314499353750552 3.401441878781557e-05 -4.225615407137556e-05)
(-0.2314294594950789 -1.554941519526104e-06 -4.225745888725176e-05)
(-0.2314324496504753 9.756975296407472e-07 -4.225754970295472e-05)
(-0.2314192037023401 -3.238812446154484e-06 -4.22584125420667e-05)
(-0.2313658075517858 -3.94258667446861e-05 -4.226071336249108e-05)
(-0.2312147272269378 -3.186168249865648e-05 -4.227057921930518e-05)
(-0.2312580345996605 4.141909402954425e-05 -4.226809238896526e-05)
(-0.231449916662866 3.39651823385314e-05 -4.225597026515399e-05)
(-0.2314325349137645 -1.508668922920519e-06 -4.225711958570405e-05)
(-0.2314329913866983 1.068785826522134e-06 -4.22573743516071e-05)
(-0.2314302362809533 9.288838552799923e-08 -4.225760531968206e-05)
(-0.2314221994603891 -1.004338349193839e-06 -4.225815085534714e-05)
(-0.2314199663921864 5.819310168127592e-07 -4.225779034320124e-05)
(-0.2314316237592168 4.049029606925409e-07 -4.225754698558963e-05)
(-0.2314205065376381 -1.01588605419097e-06 -4.225789515300386e-05)
(-0.2314201311063767 5.866651720677788e-07 -4.225814483295052e-05)
(-0.2314308329188173 4.083015235673822e-07 -4.225701283249269e-05)
(-0.2314204752893153 -1.011058337630826e-06 -4.225851552968748e-05)
(-0.231419691678507 5.894680614663131e-07 -4.225730262257565e-05)
(-0.2314310001531777 4.166961489958687e-07 -4.225802054695978e-05)
(-0.2314195064746151 -1.027350310787535e-06 -4.22572447410569e-05)
(-0.02633626193694357 5.60921785301881e-07 -5.362059206480361e-05)
(-0.02634680140564265 2.795344060609848e-07 -5.361985976458519e-05)
(-0.02633753402686177 -8.858388815908129e-07 -5.362054097618167e-05)
(-0.02633609376570327 5.934049785267058e-07 -5.362028035583633e-05)
(-0.02634687148658761 2.917978013152114e-07 -5.361965876906974e-05)
(-0.02633741384177345 -8.869500043516791e-07 -5.362036213394781e-05)
(-0.0263360692850685 5.88906140899107e-07 -5.362013931577957e-05)
(-0.0263467967184968 2.926521144749342e-07 -5.361952885653729e-05)
(-0.02633736340764683 -8.87323980146767e-07 -5.362024921501249e-05)
(-0.02633600440976409 5.894029504419538e-07 -5.362003508272774e-05)
(-0.02634675825614411 2.932801539378396e-07 -5.361943264777312e-05)
(-0.0263372966399593 -8.881505819166566e-07 -5.362016028032058e-05)
(-0.02633595043917101 5.88080536708749e-07 -5.361995098269448e-05)
(-0.02634667371436844 2.925056760818134e-07 -5.361935369165821e-05)
(-0.02633725864031775 -8.884976441019065e-07 -5.362008362631706e-05)
(-0.02633584444119311 5.871182796112274e-07 -5.36198791183413e-05)
(-0.02634661839304439 2.891079172384091e-07 -5.36192834777964e-05)
(-0.02633706665644071 -8.911442780067921e-07 -5.36200191877561e-05)
(-0.02633577819520359 5.808056044416625e-07 -5.361981301238837e-05)
(-0.02634625912080615 2.799717173984154e-07 -5.361924025437606e-05)
(-0.02633703030884771 -9.067475324391497e-07 -5.361995733995399e-05)
(-0.02633501557103143 5.552605997673005e-07 -5.361979937408647e-05)
(-0.02634605842207202 2.29380771892815e-07 -5.361921212577026e-05)
(-0.02633514196634172 -9.718544691988425e-07 -5.362004841242095e-05)
(-0.02633510990601872 3.760075606929167e-07 -5.361985325600667e-05)
(-0.02633879043228675 -1.397247132554159e-06 -5.361970118801651e-05)
(-0.02630282656817073 -2.025134170177068e-05 -5.362145667926122e-05)
(-0.02577837770304879 -1.801657542013708e-05 -5.365177249418121e-05)
(-0.02582460749015811 2.082244644833843e-05 -5.364929875562399e-05)
(-0.02637245725487832 1.967094302106834e-05 -5.361708639680662e-05)
(-0.02634563106365572 -2.25347488458261e-07 -5.361894711578977e-05)
(-0.02634177447185166 -2.186981018834584e-06 -5.361993180180689e-05)
(-0.02630300207215414 -2.01765940593277e-05 -5.362106109695624e-05)
(-0.02579699500799117 -1.74291562829809e-05 -5.364979410073908e-05)
(-0.02580926275069781 5.229628496950506e-07 -5.36497041817578e-05)
(-0.02579435743998641 -1.282261395262468e-07 -5.365102100855536e-05)
(-0.02582909922720628 1.992054762290895e-05 -5.364919432311835e-05)
(-0.0263569839861125 1.914412377770317e-05 -5.361821165396039e-05)
(-0.02634591473783164 -5.62973238115728e-08 -5.361864387775147e-05)
(-0.02634759897603261 5.646230235410847e-07 -5.361870507777855e-05)
(-0.02634124460613643 -1.821394759825449e-06 -5.361941494178561e-05)
(-0.02630714754837775 -2.019889697390604e-05 -5.362079573967889e-05)
(-0.02578000796736267 -1.791770734564024e-05 -5.365135766676831e-05)
(-0.0258290642807798 2.041700982635091e-05 -5.364883289772361e-05)
(-0.02635730285347289 1.925943196699199e-05 -5.361802842055942e-05)
(-0.02634873809800357 -9.067148081179289e-09 -5.361824214127574e-05)
(-0.0263476397967451 6.154359899675074e-07 -5.361858560801208e-05)
(-0.02634725538112718 -2.038690631101695e-07 -5.36186654001083e-05)
(-0.02634002325009464 -8.744420081586858e-07 -5.361937021099475e-05)
(-0.02633687895484237 5.613333042392785e-07 -5.361892840229138e-05)
(-0.02634822384147647 2.795459172359428e-07 -5.361873971508347e-05)
(-0.02633808175178789 -9.027895014403533e-07 -5.361896279446744e-05)
(-0.02633696262303448 5.802097392729593e-07 -5.361943344003898e-05)
(-0.02634733814196256 2.818095544516989e-07 -5.361800661238534e-05)
(-0.02633799423996487 -8.92121027034951e-07 -5.361981244658297e-05)
(-0.0263364440123454 5.832439945962752e-07 -5.36182818637025e-05)
(-0.02634738236868829 3.029829202786688e-07 -5.361937774667387e-05)
(-0.02633772822844413 -8.830106852948056e-07 -5.361801779315084e-05)
(0.1053044940553034 4.765809440163123e-07 -6.093722669065625e-05)
(0.1052999588110829 1.81385444071543e-08 -6.093681103371621e-05)
(0.1053060535368383 -5.719917687628312e-07 -6.093732919707489e-05)
(0.1053044795538629 5.199626637380027e-07 -6.093691544383331e-05)
(0.1052998282294507 5.192262435486414e-08 -6.093655967184607e-05)
(0.1053061679104408 -5.755434315925339e-07 -6.093712289469729e-05)
(0.1053045135048495 5.148022005735055e-07 -6.093674986887844e-05)
(0.1052999029238501 5.287100768300926e-08 -6.093641004709948e-05)
(0.1053062174538399 -5.759742864655583e-07 -6.093699160143477e-05)
(0.1053045825100776 5.15098449288931e-07 -6.09366300038871e-05)
(0.1052999503440231 5.341402761877155e-08 -6.093630001839063e-05)
(0.1053062902930225 -5.766869340367729e-07 -6.093688935733416e-05)
(0.1053046360234199 5.137566042095281e-07 -6.093653349336397e-05)
(0.1053000371834427 5.263895233898851e-08 -6.093620905626275e-05)
(0.1053063359334537 -5.77838981226556e-07 -6.093680215707116e-05)
(0.1053047507361686 5.125496897322842e-07 -6.093645098018161e-05)
(0.1053000878699561 4.794482697295661e-08 -6.093612814028424e-05)
(0.1053065242572378 -5.807058672181672e-07 -6.093672685610599e-05)
(0.1053048019164908 5.031184469329867e-07 -6.093637500283413e-05)
(0.1053004578985721 3.735723144326894e-08 -6.093607290656093e-05)
(0.1053065483776116 -6.043588086607136e-07 -6.093665519556424e-05)
(0.1053055803104884 4.765145203091689e-07 -6.09363483501314e-05)
(0.1053005305249103 -3.490996335850866e-08 -6.09360245148232e-05)
(0.1053084751730312 -6.795408925139217e-07 -6.093672684652297e-05)
(0.1053052819350243 2.154326707950522e-07 -6.093634375917495e-05)
(0.1053065918622332 -7.899252411581813e-07 -6.09365384357407e-05)
(0.1053156069755544 -6.035916853830768e-06 -6.093704517256868e-05)
(0.1055423364365992 -6.036552623133301e-06 -6.09502858273396e-05)
(0.1055305535514703 6.471470965719525e-06 -6.094943192126693e-05)
(0.1052835328080344 7.433257257508243e-06 -6.093426939817102e-05)
(0.1052958078926459 -2.428750084093944e-07 -6.093529851037414e-05)
(0.1053023166611419 -1.719761099405071e-06 -6.093655122192511e-05)
(0.1053152443705611 -5.752022976245014e-06 -6.093676813474686e-05)
(0.1055244952229072 -4.354516385675e-06 -6.094839788605619e-05)
(0.1055255680491422 -2.142656888430967e-07 -6.09486692930953e-05)
(0.1055379358755528 -1.039180283234605e-06 -6.094991281302414e-05)
(0.1055253164982101 6.00513787374317e-06 -6.094915183158152e-05)
(0.1052966142642325 6.768938438049703e-06 -6.09352595305142e-05)
(0.1052961437845238 4.285503317561521e-07 -6.093515227698491e-05)
(0.1052937946095761 7.356340096052568e-08 -6.093507987030687e-05)
(0.1053034891654385 -1.29808190896132e-06 -6.093612066223961e-05)
(0.1053107738399323 -6.001359864534286e-06 -6.093632470393587e-05)
(0.1055407904216739 -5.915184892225074e-06 -6.094980415410851e-05)
(0.1055256204363846 6.032381875820293e-06 -6.094882173604512e-05)
(0.105296120980891 6.983072915927855e-06 -6.093505225351641e-05)
(0.1052943240655397 4.667284795163767e-07 -6.093475849698509e-05)
(0.1052944085376143 1.720309252061045e-07 -6.093504808510873e-05)
(0.1052984749726293 -5.451028680326073e-07 -6.093530271595143e-05)
(0.1053032854921669 -5.689979863778375e-07 -6.093601218075273e-05)
(0.105303468834775 4.64590885015476e-07 -6.093534778433713e-05)
(0.1052983160725973 3.417564272141494e-08 -6.093551858463385e-05)
(0.1053053828250299 -6.012183423372158e-07 -6.093551104276132e-05)
(0.1053035296254207 5.017988905134651e-07 -6.09359599675019e-05)
(0.1052992880494729 3.616955778727341e-08 -6.093465474792836e-05)
(0.1053055228823556 -5.836384852099089e-07 -6.093651779046e-05)
(0.1053040902148353 5.052074694498338e-07 -6.093459821115106e-05)
(0.1052993622677615 6.648042815488927e-08 -6.09362696101969e-05)
(0.1053056843282627 -5.546491423705972e-07 -6.09343760035423e-05)
(0.1924239036151924 4.995896411749068e-07 -6.578715731815309e-05)
(0.1924219083377869 -1.272816801849638e-07 -6.578686662208636e-05)
(0.1924264664175701 -4.702411117441761e-07 -6.578729364652691e-05)
(0.1924237571823101 5.52783193353568e-07 -6.57868487935209e-05)
(0.1924217882007654 -8.318386470977193e-08 -6.578659310176105e-05)
(0.1924265759843979 -4.756626344388034e-07 -6.578706901555849e-05)
(0.192423794541565 5.472396160594832e-07 -6.578666708637053e-05)
(0.1924218664469098 -8.229233098405269e-08 -6.578643146040595e-05)
(0.1924266274610199 -4.759216532696085e-07 -6.578692659912743e-05)
(0.1924238687246012 5.474755734788643e-07 -6.578653768695954e-05)
(0.1924219207766377 -8.186297525475886e-08 -6.578631272891179e-05)
(0.1924267052089731 -4.765942130572904e-07 -6.578681578820921e-05)
(0.1924239234660872 5.460833395129025e-07 -6.578643330336814e-05)
(0.1924220095794186 -8.256859439088096e-08 -6.57862138067851e-05)
(0.1924267542136257 -4.78621976558892e-07 -6.578672128643247e-05)
(0.1924240438384941 5.446292539780836e-07 -6.578634365590111e-05)
(0.1924220578864018 -8.858658839847697e-08 -6.578612613965005e-05)
(0.1924269435711917 -4.813165751768352e-07 -6.57866396593816e-05)
(0.1924240824812405 5.31947483486337e-07 -6.578626071504743e-05)
(0.1924224230804671 -9.993750058089628e-08 -6.578606051325367e-05)
(0.1924269569800869 -5.133777138016062e-07 -6.578656284092001e-05)
(0.1924248635275366 5.052967864247807e-07 -6.578622608013399e-05)
(0.1924224013803374 -1.945070473788897e-07 -6.578599913390902e-05)
(0.1924288766365944 -5.871348051358299e-07 -6.57866219734557e-05)
(0.1924243607227776 1.576296690049302e-07 -6.578618358265001e-05)
(0.1924282694094867 -7.006595917781486e-07 -6.57865157421024e-05)
(0.1924277305998564 -1.340616760450322e-06 -6.578641142616784e-05)
(0.1924943647322361 -1.923283610052989e-06 -6.57903736849386e-05)
(0.192494703014729 2.12399364492864e-06 -6.57904294343164e-05)
(0.1924091903775751 3.415272787732151e-06 -6.578460693873213e-05)
(0.1924157848146615 -5.128218901498544e-07 -6.578508607778658e-05)
(0.1924226583531796 -1.788082581563704e-06 -6.578628138840113e-05)
(0.1924275513482518 -8.430369880172487e-07 -6.578631346739062e-05)
(0.1924791121384065 2.238232873642199e-07 -6.578869193122876e-05)
(0.1924824717085897 -5.525924228320507e-07 -6.578899597607328e-05)
(0.1924924221011929 -1.349255582610591e-06 -6.579020405914177e-05)
(0.192488701026386 1.575170415382283e-06 -6.578995140892749e-05)
(0.1924194860988655 2.608738303289897e-06 -6.578539201805232e-05)
(0.1924166302200228 5.777991507048924e-07 -6.578506273789816e-05)
(0.1924131673756059 -2.195683997248514e-07 -6.578483793713601e-05)
(0.1924246489527798 -1.323212136883269e-06 -6.578599888324639e-05)
(0.19242270108985 -1.330713309662873e-06 -6.578569740832364e-05)
(0.1924928439323936 -1.783380040682945e-06 -6.578986182310931e-05)
(0.1924892465176977 1.548571113191217e-06 -6.578968379423531e-05)
(0.1924190944435352 2.894361285847275e-06 -6.578521380654874e-05)
(0.1924154674754854 5.946561731095878e-07 -6.578467138960401e-05)
(0.192414334112327 -4.616761643752195e-08 -6.578485742145588e-05)
(0.1924194869192378 -8.016184979488505e-07 -6.57851248522473e-05)
(0.1924234140652369 -4.863836101998647e-07 -6.57858720997707e-05)
(0.1924224761545428 4.704634302182697e-07 -6.578513337413103e-05)
(0.1924201111067327 -1.086037417976463e-07 -6.578546736781339e-05)
(0.1924256549484474 -5.127439406206553e-07 -6.57853148956253e-05)
(0.192422714527598 5.294179645096236e-07 -6.578581898457153e-05)
(0.1924211666011531 -1.055357256549577e-07 -6.578452125799646e-05)
(0.1924258645644286 -4.8691715867069e-07 -6.578642496922619e-05)
(0.1924233152856576 5.337666189163929e-07 -6.578432285626052e-05)
(0.1924213258367322 -6.745651905069084e-08 -6.578630057145547e-05)
(0.1924261020615608 -4.50417010520607e-07 -6.578407123374809e-05)
(0.2552872799472552 5.605505715925246e-07 -6.928520237561575e-05)
(0.2552860176316653 -2.095044051130559e-07 -6.92849360992282e-05)
(0.2552897132652082 -4.612176033119472e-07 -6.928529976112769e-05)
(0.2552872295830306 6.227112010471016e-07 -6.928489889492309e-05)
(0.2552859219558196 -1.630509325931993e-07 -6.92846474071238e-05)
(0.2552898263325427 -4.686187508019833e-07 -6.92850653675345e-05)
(0.2552872703731834 6.171779483441884e-07 -6.928470737398219e-05)
(0.2552860049740394 -1.623234424765194e-07 -6.928447815719146e-05)
(0.2552898813014219 -4.687218685423875e-07 -6.928491563801686e-05)
(0.2552873486590563 6.173363412049632e-07 -6.928457143888559e-05)
(0.255286063987481 -1.62024259873683e-07 -6.928435340536358e-05)
(0.2552899632952117 -4.693517135138823e-07 -6.928479919818678e-05)
(0.2552874055327929 6.158313799174062e-07 -6.928446173063368e-05)
(0.2552861565091373 -1.625862443083625e-07 -6.928424941199051e-05)
(0.2552900149070684 -4.721862705748521e-07 -6.928469977619059e-05)
(0.2552875303378914 6.14282784765756e-07 -6.928436733265686e-05)
(0.2552862023083444 -1.700056497592188e-07 -6.928415679053544e-05)
(0.2552902060480811 -4.745576795187218e-07 -6.928461350703197e-05)
(0.2552875589572825 5.982019718257494e-07 -6.928427937284603e-05)
(0.2552865682584511 -1.813253614016881e-07 -6.928408641504855e-05)
(0.2552901945733695 -5.155340291785006e-07 -6.928452986986369e-05)
(0.2552883309846639 5.725672850359512e-07 -6.928423873473422e-05)
(0.2552864591254441 -2.992499525819287e-07 -6.92840116874291e-05)
(0.2552920784041185 -5.815574372658197e-07 -6.928458082140627e-05)
(0.2552876184092938 1.427791989898795e-07 -6.928415693915385e-05)
(0.2552920233719336 -7.111705287447135e-07 -6.928452038064191e-05)
(0.255289586110783 -5.965153073792978e-08 -6.928436096536063e-05)
(0.2553056016135009 -8.68101260139835e-07 -6.928528670528409e-05)
(0.2553085509264633 1.225150022424554e-06 -6.928548505458708e-05)
(0.2552756200537638 2.538303230615909e-06 -6.928279551696763e-05)
(0.2552798894170829 -7.499655892918494e-07 -6.928305012353714e-05)
(0.2552855245417127 -1.964607914449056e-06 -6.928415700262845e-05)
(0.2552890020043007 5.93610003329842e-07 -6.92842658510272e-05)
(0.2552931152813349 1.61687596665923e-06 -6.928383671994684e-05)
(0.2552953016510729 -7.887590223497623e-07 -6.9283926841537e-05)
(0.2553030734020522 -1.548140936999707e-06 -6.928497482025637e-05)
(0.255302258723884 4.811806839810134e-07 -6.928494078545289e-05)
(0.2552834183217334 1.569933799132373e-06 -6.928339494287153e-05)
(0.255281154390438 7.047315583279751e-07 -6.928310528674935e-05)
(0.2552769184037631 -4.136163680047944e-07 -6.928277771904516e-05)
(0.2552878775421699 -1.462631135303153e-06 -6.928391062959988e-05)
(0.2552842787922752 -9.503017898091276e-08 -6.928360463812152e-05)
(0.2553041012502282 -7.114098235678869e-07 -6.928475828148049e-05)
(0.2553028823080014 4.740069301322144e-07 -6.928466598749011e-05)
(0.25528317670683 1.905361204810694e-06 -6.928322626139247e-05)
(0.2552802093752043 6.916771042376784e-07 -6.92827061688646e-05)
(0.2552783866769281 -1.533947788770652e-07 -6.928283412950957e-05)
(0.2552828614984827 -1.008155294307067e-06 -6.928302233226258e-05)
(0.2552863982029944 -5.088350629443804e-07 -6.9283795195913e-05)
(0.2552856762598785 5.100096620419831e-07 -6.928307591018322e-05)
(0.2552840877400632 -1.99052030025556e-07 -6.928345757035354e-05)
(0.2552887667200109 -5.190247601322965e-07 -6.928320964332369e-05)
(0.2552860930242359 5.935231542566783e-07 -6.928381382066508e-05)
(0.2552852182921856 -1.928089268224913e-07 -6.928245891600851e-05)
(0.2552890520907152 -4.834670147198845e-07 -6.92843901872388e-05)
(0.2552867310416472 5.992393157357015e-07 -6.92822287119236e-05)
(0.2552854299797565 -1.481680287238872e-07 -6.928434532411644e-05)
(0.2552893685324619 -4.47799317457089e-07 -6.928189416055418e-05)
(0.3047170191579418 6.223120242046842e-07 -7.202867720970472e-05)
(0.3047160347425892 -2.629893209816034e-07 -7.202841819452978e-05)
(0.3047189778697037 -4.805221742966939e-07 -7.20287241864486e-05)
(0.3047171078407003 6.935995930229577e-07 -7.20283886758186e-05)
(0.3047159868390747 -2.160471248625523e-07 -7.202812603543987e-05)
(0.3047190972606239 -4.897953051957681e-07 -7.202848419237158e-05)
(0.3047171525733885 6.881761321574424e-07 -7.202819094691055e-05)
(0.3047160757490347 -2.155853605646848e-07 -7.202795217880161e-05)
(0.3047191579679697 -4.897253030033928e-07 -7.202832996816001e-05)
(0.3047172361365833 6.883355978215176e-07 -7.202805087782655e-05)
(0.3047161396056614 -2.153461150715417e-07 -7.202782340275217e-05)
(0.3047192435833297 -4.903021654051221e-07 -7.202820951851617e-05)
(0.3047172955250136 6.866711027802659e-07 -7.202793735330788e-05)
(0.3047162351074729 -2.157665941297806e-07 -7.202771557531049e-05)
(0.3047192965534284 -4.939280277141793e-07 -7.202810628105673e-05)
(0.3047174230766338 6.851242009680799e-07 -7.20278393037765e-05)
(0.304716279136 -2.246463619924899e-07 -7.202761932093802e-05)
(0.3047194905746872 -4.957993731013617e-07 -7.20280168596589e-05)
(0.3047174427461581 6.655641164679714e-07 -7.202774727894224e-05)
(0.304716638750074 -2.355989836368729e-07 -7.202754410127932e-05)
(0.3047194590752288 -5.456704615781257e-07 -7.202792867897604e-05)
(0.3047182008105542 6.421987258584464e-07 -7.202770224729298e-05)
(0.3047164614456764 -3.769810413484472e-07 -7.202745968608531e-05)
(0.3047212815655964 -5.998653355408107e-07 -7.202797253769078e-05)
(0.3047173454770322 1.381461315724262e-07 -7.202759515379428e-05)
(0.3047214113109968 -7.348605621877023e-07 -7.202792358511864e-05)
(0.304718795204223 3.304711432695042e-07 -7.202773487123979e-05)
(0.3047212761305022 -6.380903159990823e-07 -7.202782735781455e-05)
(0.3047250217294951 1.158446582855043e-06 -7.202816156040753e-05)
(0.304708039483722 2.502199912937789e-06 -7.20264777398549e-05)