/*--------------------------------*- C++ -*----------------------------------*\
| =========                 |                                                 |
| \\      /  F ield         | OpenFOAM: The Open Source CFD Toolbox           |
|  \\    /   O peration     | Version:  v1812                                 |
|   \\  /    A nd           | Web:      www.OpenFOAM.com                      |
|    \\/     M anipulation  |                                                 |
\*---------------------------------------------------------------------------*/
FoamFile
{
    version     2.0;
    format      ascii;
    class       volVectorField;
    location    "10000";
    object      wallShearStress;
}
// * * * * * * * * * * * * * * * * * * * * * * * * * * * * * * * * * * * * * //

dimensions      [0 2 -2 0 0 0 0];


internalField   uniform (0 0 0);

boundaryField
{
    inlet
    {
        type            cyclic;
    }
    outlet
    {
        type            cyclic;
    }
    bottomWall
    {
        type            calculated;
        value           nonuniform List<vector> 
58
(
(-0.01074848086434099 -1.740497747002112e-09 5.877620917023263e-07)
(-0.01074888503599327 4.551361023050023e-10 5.878014494009315e-07)
(-0.01074870301937133 -4.248668657016618e-09 5.877798784052279e-07)
(-0.01074831501311702 4.578796397961942e-09 5.877551456760683e-07)
(-0.0107491398916039 2.633253163326087e-09 5.878035518777637e-07)
(-0.01074867533524144 -7.60460951540456e-09 5.877776127336848e-07)
(-0.01074831774120579 5.026701042701929e-09 5.877539923028704e-07)
(-0.01074914057496455 2.589158400863064e-09 5.878022502314397e-07)
(-0.01074867475315278 -7.586757664981108e-09 5.877765817459392e-07)
(-0.01074831971249599 5.036061498354186e-09 5.877529134796247e-07)
(-0.01074914281682306 2.56938360122229e-09 5.878012538963016e-07)
(-0.01074867499760437 -7.58928509301546e-09 5.877757055634947e-07)
(-0.01074832024084358 5.037246871885249e-09 5.877520777137912e-07)
(-0.01074914318275213 2.579901492995188e-09 5.878004457783448e-07)
(-0.01074867758696149 -7.591293812367129e-09 5.877748578201847e-07)
(-0.01074832191506925 5.043037718187245e-09 5.877513448164163e-07)
(-0.01074914407488198 2.599220998750572e-09 5.877997774106471e-07)
(-0.0107486802275202 -7.545822120736405e-09 5.877742870294406e-07)
(-0.0107483252319707 4.942395018869507e-09 5.877507787850218e-07)
(-0.0107491395238404 2.769331654872055e-09 5.877996838281061e-07)
(-0.01074869618229567 -7.443402802855599e-09 5.877737945745459e-07)
(-0.01074833431394581 5.304814958344675e-09 5.877512969157103e-07)
(-0.01074914737830683 2.380169888233443e-09 5.877998258259604e-07)
(-0.01074871288316758 -9.550305063598846e-09 5.877776287718381e-07)
(-0.01074847948202012 6.387130410048907e-09 5.877599674027709e-07)
(-0.01074980932046003 4.496006990520757e-08 5.877978744166807e-07)
(-0.01074553656508095 9.552740068348985e-09 5.875242510626352e-07)
(-0.01071004375396412 -1.370779173377158e-07 5.856788333285821e-07)
(-0.01071679355225745 -4.822237008900504e-08 5.860918220004394e-07)
(-0.01075216089002049 1.066424700332664e-07 5.879635818005209e-07)
(-0.01074859328971919 3.137488428490607e-08 5.877779606496104e-07)
(-0.0107493520634332 3.620553558650365e-08 5.878042630542139e-07)
(-0.01074624689380523 2.857701488385907e-08 5.875279603578785e-07)
(-0.01071117238724205 -8.46541581640507e-08 5.856975198489028e-07)
(-0.01071363484479873 -6.285201369053466e-08 5.858568776378881e-07)
(-0.01071281514430549 -5.394597062519274e-08 5.858272477110706e-07)
(-0.01071580041571725 -1.71554637191117e-08 5.860653079770591e-07)
(-0.01075113681841188 1.184107032138478e-07 5.879068431964227e-07)
(-0.01074901244089191 4.7808114493936e-08 5.877874663019821e-07)
(-0.01074872533706698 -1.987305482263252e-08 5.877773436783707e-07)
(-0.01074969804967181 4.141075805691694e-08 5.877912621013059e-07)
(-0.01074553015008659 9.744600637464577e-09 5.875154154383265e-07)
(-0.01070990399372893 -1.409069988632348e-07 5.856715047941473e-07)
(-0.01071645622143545 -6.278944766851219e-08 5.86070868743364e-07)
(-0.01075098902547967 1.246311151453805e-07 5.879028988642016e-07)
(-0.01074892030282987 4.876567929458918e-08 5.87780279328058e-07)
(-0.0107486019339642 -2.08180959139599e-08 5.877673474752489e-07)
(-0.01074903202150905 -1.855409170386634e-09 5.877908952262832e-07)
(-0.01074866551389471 -6.026675234253724e-09 5.877657048693755e-07)
(-0.01074830481485834 4.572582344379326e-09 5.877420181582285e-07)
(-0.0107491187502441 2.816125857402852e-09 5.877929466060182e-07)
(-0.01074866529729298 -7.593629798853848e-09 5.877635165507154e-07)
(-0.01074830497721803 5.104314616830782e-09 5.877455045534503e-07)
(-0.01074913503391798 2.581762183405697e-09 5.877869829372605e-07)
(-0.01074866545347723 -7.64307995365023e-09 5.87770493903929e-07)
(-0.0107483087442741 5.213058901094673e-09 5.877360107448539e-07)
(-0.01074914499371079 6.49738592500782e-09 5.878009812773119e-07)
(-0.01074896736276109 -5.190174222357331e-09 5.877616021852316e-07)
)
;
    }
    topWall
    {
        type            calculated;
        value           nonuniform List<vector> 
58
(
(-0.001074299503062996 -3.153560244870475e-10 2.352872557059303e-07)
(-0.001074298512377604 9.654354155812558e-11 2.35285839303027e-07)
(-0.0010742996548851 6.308737883213138e-12 2.35287256977905e-07)
(-0.001074297643578421 5.537554784073925e-11 2.352863749901608e-07)
(-0.001074298767793983 -3.205307386427944e-11 2.352876544112157e-07)
(-0.0010742975250917 4.418521693774273e-11 2.352866077158005e-07)
(-0.001074298273806171 -3.13943725797089e-11 2.352878478817101e-07)
(-0.001074297590303392 2.679841677442645e-11 2.352867203849665e-07)
(-0.001074297883183978 -1.034817341300033e-11 2.352879732874183e-07)
(-0.001074297514835198 1.477287552458474e-11 2.352867889949138e-07)
(-0.001074297614005246 -5.818066218452043e-12 2.352880716766281e-07)
(-0.001074297276934802 1.417037936765581e-11 2.352868358508388e-07)
(-0.001074297454227066 -1.080434489010428e-11 2.352881543665015e-07)
(-0.001074296905767496 1.647820878783256e-11 2.352868667172108e-07)
(-0.001074297317786949 -1.183594394635137e-11 2.352882265463234e-07)
(-0.001074296358931081 2.627919751292794e-11 2.352868852136739e-07)
(-0.001074297265390415 -4.309951063087168e-11 2.35288291003032e-07)
(-0.001074296337622151 3.830325878241267e-11 2.352868940308053e-07)
(-0.001074296616460275 -1.065826503994415e-11 2.352883429362471e-07)
(-0.001074295357261726 4.385792904024534e-11 2.352868951314945e-07)
(-0.001074296577155516 -5.392846915407918e-11 2.352883920078859e-07)
(-0.001074295268319589 5.592729072488663e-11 2.352868884404622e-07)
(-0.001074296353113075 -6.442352670007399e-11 2.35288433758833e-07)
(-0.001074295683292006 5.423798362609704e-11 2.352868772040508e-07)
(-0.001074296370945021 -5.794136777241971e-11 2.35288468420087e-07)
(-0.001074297409414948 1.459789523214435e-11 2.352868630518174e-07)
(-0.001074297635603513 -2.549550133062123e-11 2.352885102939923e-07)
(-0.001074300434733164 -4.21474962143343e-11 2.352868502340604e-07)
(-0.001074299515007247 5.798878093914358e-11 2.352885598522104e-07)
(-0.001074302785890443 -7.353600612144307e-11 2.352868367828119e-07)
(-0.00107430303330127 -1.629229703577144e-11 2.352886302978078e-07)
(-0.001074306337981996 -5.62491487354159e-11 2.352868127391491e-07)
(-0.001074303514086945 1.181914728122827e-10 2.35288677584863e-07)
(-0.001074307557755305 -8.545532942231011e-11 2.35286789687562e-07)
(-0.001074304912729635 6.225473077420357e-11 2.352887398564909e-07)
(-0.00107431035102706 -1.209612919112179e-10 2.352867596855382e-07)
(-0.001074304709998788 1.629992489841122e-10 2.352888076551381e-07)
(-0.001074308550706631 -1.287138243270251e-10 2.352867130519828e-07)
(-0.001074305268404812 9.475891633034589e-11 2.352888786097142e-07)
(-0.001074306413000565 -6.801183137349845e-11 2.35286651123772e-07)
(-0.001074305000906496 2.054046598223451e-11 2.352889353376271e-07)
(-0.001074306650188649 -5.181919072262041e-11 2.35286586990581e-07)
(-0.001074304078851306 6.306690831832912e-11 2.352889925877781e-07)
(-0.001074306571580476 -6.034496566017201e-11 2.352865274995551e-07)
(-0.001074303591128518 9.008488955908275e-11 2.352890526192959e-07)
(-0.001074305855758571 -6.167459887020335e-11 2.352864709603484e-07)
(-0.001074303959678007 3.654389277431723e-11 2.352891233671799e-07)
(-0.001074304650240503 -2.427360637164762e-11 2.352864065811052e-07)
(-0.001074302849785008 4.053432085739922e-11 2.35289180352431e-07)
(-0.001074302050489831 8.644357832250773e-12 2.352863420031483e-07)
(-0.001074301379591317 6.922709992258455e-12 2.35289220521028e-07)
(-0.001074300305047046 2.249197172810823e-11 2.352862917201783e-07)
(-0.001074299979729458 6.710039588557753e-12 2.352892418897908e-07)
(-0.001074298736310201 2.125805415073874e-11 2.352862720714005e-07)
(-0.001074299463949673 -2.816825108506407e-11 2.352892121054848e-07)
(-0.001074297856008914 3.371031379837556e-11 2.352860882651516e-07)
(-0.001074299360400837 -1.048866281451894e-11 2.352890328266612e-07)
(-0.001074294370109852 1.694228610277366e-10 2.352881369238654e-07)
)
;
    }
    left
    {
        type            cyclic;
    }
    right
    {
        type            cyclic;
    }
}


// ************************************************************************* //
