/*--------------------------------*- C++ -*----------------------------------*\
| =========                 |                                                 |
| \\      /  F ield         | OpenFOAM: The Open Source CFD Toolbox           |
|  \\    /   O peration     | Version:  v1812                                 |
|   \\  /    A nd           | Web:      www.OpenFOAM.com                      |
|    \\/     M anipulation  |                                                 |
\*---------------------------------------------------------------------------*/
FoamFile
{
    version     2.0;
    format      ascii;
    class       volScalarField;
    location    "0";
    object      nut;
}
// * * * * * * * * * * * * * * * * * * * * * * * * * * * * * * * * * * * * * //

dimensions      [0 2 -1 0 0 0 0];


internalField   nonuniform List<scalar> 
1856
(
0.0001263444249988029
9.756051043271255e-07
5.502556090440659e-07
7.724026014790278e-07
6.885327941530553e-07
1.085687291307663e-07
3.668201934449165e-07
1.915356810468866e-07
1.84149948166164e-07
1.217237910440461e-06
1.153876224577883e-06
1.175833713352109e-06
1.090586884937013e-06
8.20090074723169e-07
1.683201204071044e-06
5.691009288348938e-07
1.384203936342843e-06
3.890745299168303e-06
1.897539297562966e-05
1.39659891114818e-05
5.672651455627562e-06
4.549039446082103e-06
6.093773265727179e-06
7.170133539247449e-06
1.503887378647592e-05
3.536050388002963e-05
3.062374615858968e-05
4.483999794573523e-05
5.960549892631009e-06
1.310040858014699e-05
1.821291630513005e-05
7.322809064397084e-06
4.474437303289057e-06
4.681255051402788e-07
1.105440228801444e-06
5.425883406082918e-07
6.459426101360382e-07
2.482290317474509e-07
3.61457156964997e-06
4.595842709061053e-07
1.254178152026195e-06
1.176923323595915e-05
1.424783862983231e-06
4.579122852064909e-07
1.149064622650422e-07
1.688378398259588e-08
2.078658834053249e-08
9.33700845229167e-07
2.133908696623336e-06
7.954869869978003e-06
4.238578834963122e-06
6.691415667622915e-08
1.327236001089626e-07
3.522053489709011e-07
9.267893655803928e-07
4.548069256980392e-07
1.893574532047363e-07
6.881029198577093e-06
4.859330971117436e-05
5.490884294133072e-06
1.954843904905994e-06
1.238569273453332e-05
2.07660975570515e-06
4.700497449206881e-06
4.562990971333741e-06
3.54815255763206e-06
1.090553772848167e-06
4.216076315137887e-06
3.256932679969454e-06
3.914640609342828e-06
1.422558428825873e-05
3.732723807386979e-05
2.85777369014243e-05
6.295864708591758e-06
8.626381515632945e-06
2.248848082545479e-05
7.255389787916984e-05
6.628013617315075e-05
4.697428876743814e-05
4.024452660269845e-05
1.605549418593681e-05
2.446873786889841e-05
2.258500960780217e-05
0.0001050530015230508
6.24004041595122e-05
7.099855689808858e-05
3.117449067224381e-05
2.103119733930319e-05
2.943238589352664e-05
1.988975395735724e-05
4.969957437998006e-06
1.441181879710347e-06
2.987644736337619e-06
3.386622476589304e-06
7.056013218090952e-06
1.782723385582884e-06
8.283184953510039e-06
2.014338259292394e-05
8.356271386437753e-06
3.541043775555232e-05
3.122772130284795e-05
1.165566224796658e-05
9.835703117585218e-06
1.688666749917611e-06
3.049164443144321e-06
3.52597654164296e-06
7.852986836851837e-06
3.576028079340153e-05
1.75473821870349e-05
2.309261070120842e-06
1.374337097722281e-06
4.021135096580295e-06
2.913472236903521e-06
3.969934796630704e-06
2.213247597358714e-06
1.012153517485769e-05
9.873572738710024e-05
3.804677324626169e-05
5.101012586653025e-06
7.592115020044046e-05
1.100700848750614e-05
1.360671968783078e-05
1.693107924844914e-05
1.511399829138655e-05
5.439928022342619e-06
1.098325480089442e-05
5.462898649779416e-06
5.047094652623878e-06
1.180323080834333e-05
7.032552786278505e-05
0.0001125871304411897
7.926766163334848e-05
1.180049582783857e-05
1.888729146761476e-05
8.980730810330599e-05
8.773109586351749e-05
0.0001310996735219893
5.528467383367362e-05
4.382635814803543e-05
4.405807899585156e-05
4.028552821900651e-05
0.0003327199491553825
6.265401782208892e-05
8.81580353560715e-05
3.074790558372342e-05
5.986915142055433e-05
5.15907357460248e-05
1.750568641906731e-05
1.513870294766666e-05
1.573943331903609e-05
8.050627019041075e-06
1.458548405315506e-05
1.219022233197482e-05
2.157498308215446e-05
1.320811654361684e-05
9.471689647428933e-06
1.941895205013309e-05
4.587503893984204e-05
8.846335365653483e-05
4.721066444262423e-05
6.114408022612222e-05
1.848255151711672e-05
1.555465318032574e-05
4.886255015033709e-06
3.617918456536229e-06
2.572541934644004e-05
4.440226332993552e-05
1.052398411048689e-05
6.97715484808006e-06
2.016900974284197e-05
1.00890242757456e-05
9.68024026219528e-06
1.473203275109731e-05
1.641132030342715e-05
4.128216702168002e-05
5.914247273853106e-05
1.573972450641831e-05
0.0001270642058152433
4.241507721940015e-05
1.894582460978769e-05
3.013206117595625e-05
2.519401382593191e-05
1.114748678555969e-05
2.389171756431855e-05
1.791490764580904e-05
1.250225798516599e-05
8.444287908524681e-06
2.283673482782123e-05
6.285861683203272e-05
0.0001434132866707769
8.596579842964994e-06
2.091391775439682e-05
0.0001021950432789958
8.202755585282387e-05
0.0001395196684133943
0.0001540506522554043
4.693429604572849e-05
9.43451935188608e-05
5.078230436537005e-05
0.000221313479257921
4.640179405081739e-05
5.061687241112862e-05
8.581604339197706e-05
9.116277993645292e-05
8.937514717289065e-05
2.239064744711658e-05
2.009546416660402e-05
2.364315249540756e-05
1.676305217641876e-05
2.616534089544124e-05
1.352440418888764e-05
2.766041134738679e-05
2.36196371925896e-05
1.514629589139921e-05
1.702300216797846e-05
8.379356757409587e-05
7.325183221526494e-05
7.556963699946817e-05
7.122125866777396e-05
8.894151357448576e-05
3.691411343957382e-05
1.082449567714501e-05
1.757554383999898e-05
3.713034877282322e-05
5.923243439902586e-05
3.033134181892608e-05
2.348874603384864e-05
4.898778127087071e-05
3.870695594188805e-05
2.278252863429755e-05
9.893742291329665e-06
1.809118181144416e-05
5.898599091705096e-05
9.275651920474231e-05
4.860189699411119e-05
0.0001213077015895638
0.000101945303742449
3.347245707075493e-05
2.755613479345845e-05
3.924307388009927e-05
2.211464824664467e-05
4.536490595698786e-05
2.602558892783808e-05
1.047055027761157e-05
1.64638806680932e-05
8.958063396702397e-06
1.666639446938746e-05
0.0001149523950349636
2.073987719087273e-05
2.881211505848266e-05
8.635688456029247e-05
0.0001296719700995154
0.0001100412125057059
0.0001655098235752578
4.707921460288093e-05
0.0001004779414748778
8.131298145121972e-05
8.797162990185859e-05
8.064802281610681e-05
4.435198705491017e-05
0.0001026336000091394
0.0001061213296309508
9.676435219353888e-05
5.49109888161538e-05
4.897164289000596e-05
3.827695328715304e-05
2.365312740486331e-05
8.068594892839218e-05
1.324800924287936e-05
3.549427650957018e-05
2.646771015010593e-05
2.066405104874056e-05
1.72672429583302e-05
0.0001645456279818251
6.70873828361224e-05
0.0001142576463179084
3.534938997109755e-05
6.971246639052054e-05
2.318867938533481e-05
2.836213664884256e-05
3.973535695556887e-05
3.923605309622149e-05
0.0001115762557879967
3.716286432877279e-05
4.638247478241211e-05
3.223625711137633e-05
1.822125273003628e-05
3.901269918975752e-05
2.290977071277596e-05
1.692417099372559e-05
4.651241022178614e-05
0.0001636427641968307
0.0001289153977405168
4.389983630509971e-05
0.0001326710745095851
4.930834134371951e-05
3.215020949883746e-05
5.445366503502515e-05
3.063720199934376e-05
6.576665796697091e-05
3.678916601709993e-05
6.915163359302343e-06
1.61624907023575e-05
1.541906210834677e-05
4.296043877584851e-05
1.598778369044817e-05
3.421412124258945e-05
1.481947716995818e-05
6.228017935504138e-05
0.0002630768242839745
4.648222720550509e-05
0.0001538410799344647
7.114052668703285e-05
6.394535258941255e-05
0.0001396699389225741
4.700986326528778e-05
0.0001749097619608731
7.035356487134956e-05
5.46076814131643e-05
5.23881979835413e-05
7.032338642762185e-05
3.446566606547994e-05
3.590714033148673e-05
4.262194900666301e-05
2.968342375255141e-05
0.0001093317922470826
2.84967317455186e-05
4.693826170369468e-05
5.212540207880767e-05
3.948010634308357e-05
2.248133058828307e-05
0.0001783620720255312
9.619619139213491e-05
0.0001389235849709783
6.206456206618832e-05
6.53230963621323e-05
1.391157988172135e-05
1.784831818424901e-05
8.556805169574444e-05
7.362779788151737e-05
0.000143400869224869
9.070862554344709e-05
6.225151343909445e-05
1.358550898376495e-05
3.158304405913009e-05
4.720272139450211e-05
3.056532319248653e-05
1.729537639328751e-05
8.83186302056783e-05
0.0001617363813579436
0.0001134747469831118
3.839213267104634e-05
0.0001205079013241892
7.065193834517849e-05
4.559030560086088e-05
2.821791253273682e-05
1.142301768615122e-05
6.750353814231777e-05
4.174587486375451e-05
1.704691841670901e-05
1.210215025146982e-05
2.643545621415601e-05
6.067038970973777e-05
4.171673600963248e-05
1.528044618323058e-05
1.619144451764884e-05
3.979636054840536e-05
0.0001968434758274328
3.645892412492235e-05
3.938204854782385e-05
0.0001032483821217756
3.116711180698994e-05
0.0001503897585950259
7.266107582637701e-05
0.0002516670651416168
0.0001542534846207095
2.451570287732227e-05
4.788444373980532e-05
7.263558595972956e-05
2.736197602297265e-05
3.216612476138106e-05
4.371761811986201e-05
3.222058579488931e-05
9.911381980677602e-05
4.618151648586244e-05
3.919619750458415e-05
9.827448985679474e-05
3.673782981858553e-05
1.980949977201402e-05
0.0001679108747316998
0.0001410995571814897
8.10857783010976e-05
8.88144545391396e-05
9.521854377167859e-05
2.880013838155591e-05
1.072659418195659e-05
0.0001121489965542368
0.0001263015449726292
0.0001142196870013019
8.48869959030008e-05
8.770178708246505e-05
1.300082516784218e-05
4.080036402325082e-05
3.524532656279072e-05
4.080771898375811e-05
2.503418528443725e-05
4.350049154539891e-05
0.0001075678497599459
5.339622044462234e-05
0.0001036186192936565
0.00017266793309889
7.486621323817947e-05
5.511096354606055e-05
2.962906822369591e-05
1.84225109715815e-05
3.86890751107894e-05
6.336040238363482e-05
4.306186694019784e-05
2.227177895546792e-05
4.390076009623067e-05
0.0001051530946861915
4.410288206998555e-05
5.111326142618519e-05
4.790423204080429e-05
3.11738534230766e-05
0.0001307431388006448
2.27730136703262e-05
2.71769725047938e-05
6.787322272001198e-05
2.380362577351027e-05
9.581651711814863e-05
0.0001814949799522664
0.0002040422760492139
0.000203443940669591
2.614791112776858e-05
4.005484789986725e-05
0.0001033773391068243
6.376989837321181e-05
2.026982056227068e-05
1.820092954637699e-05
1.486217533145031e-05
4.298695076013889e-05
4.107649841347545e-05
3.751257047847269e-05
0.0001416527458845644
4.043156069746259e-05
2.630640098674906e-05
0.0001113733914352939
0.0001991320344596537
8.387120478862254e-05
9.689633897933657e-05
0.0001420235029646865
5.120124999543744e-05
1.310922749049548e-05
0.0001163870554095157
0.0001294903108412055
7.10232835739101e-05
0.0001860042186880316
0.0001095663646607515
6.012842397717922e-05
4.498703953003488e-05
3.590539837256478e-05
4.308094177091506e-05
4.192006924632087e-05
2.502558560153797e-05
4.432633004765434e-05
2.32120007579004e-05
0.0001459680988042538
0.0001347781199112743
0.0001715980471105796
4.138986462980655e-05
2.666468179931974e-05
1.07033237669318e-05
2.824864175455816e-05
4.09812484373433e-05
3.933941108469859e-05
3.456088742121549e-05
6.119413949090853e-05
7.662909463041683e-05
3.872559448703133e-05
0.0001256917700203419
0.0001089567576052019
2.227125377220458e-05
6.755127130348177e-05
1.091424470654719e-05
1.414943131182171e-05
3.369144604675763e-05
2.442992302136415e-05
3.72819254294015e-05
0.0001483977933104214
0.0001159825955491347
9.131395051600428e-05
4.822668854929545e-05
5.155646883058958e-05
0.000140512975881446
6.509427629177854e-05
2.174909940082728e-05
2.155278652871639e-05
5.378218678281352e-05
1.765319602082932e-05
2.63156671054546e-05
3.06902237129994e-05
8.25152846449034e-05
5.268100514871399e-05
2.586282847602985e-05
4.502681769508269e-05
0.0002357266179730071
5.322744845264042e-05
0.0001054447314362944
0.0002015286041772908
9.721223336458417e-05
1.818384938066287e-05
7.31912269696081e-05
0.0001073191488644978
3.910261031071716e-05
9.585973288478292e-05
6.789767340601338e-05
4.296216903435237e-05
3.262708427871322e-05
2.683892264393952e-05
4.803309920167754e-05
3.837174371418206e-05
3.164315409666247e-05
4.282365102006864e-05
3.276887461710139e-05
0.0001544486045347792
0.0001849716012903297
0.0003246092799224396
3.226942204520065e-05
1.572718544368132e-05
2.185339861758747e-05
3.747280860248404e-05
2.364099270975886e-05
4.671428449682664e-05
5.547848683406914e-05
8.18900041700058e-05
4.703837424387944e-05
4.183632845271986e-05
0.000121891148360352
0.0001255403009402897
1.660132876738033e-05
5.434154988491114e-05
1.782389357766705e-05
8.490659636766069e-06
2.684589456552208e-05
3.070032412366935e-05
2.341561462440857e-05
4.104558892948393e-05
2.381937362299945e-05
7.855985689852945e-05
5.599219342573711e-05
4.743013984945978e-05
9.226251624649617e-05
2.225173497407459e-05
2.943588608987002e-05
1.668771356736125e-05
3.319156545787349e-05
6.855186503672696e-05
3.735244842191333e-05
2.301871142926815e-05
5.384560021117109e-05
2.819435391236695e-05
3.242951011700476e-05
2.439248829951201e-05
0.0001680171842199601
6.772168795343368e-05
9.436805353451259e-05
0.0002447592377700202
0.0001190655595536183
5.730938424959479e-05
2.809504179711777e-05
7.82129644010143e-05
4.366055040570248e-05
4.802897046184434e-05
3.905526526657573e-05
5.471537765072354e-05
2.688269409623862e-05
4.621617781294167e-05
5.401445368563153e-05
2.80195530292409e-05
3.887264020079939e-05
4.664859425216411e-05
3.069871517770906e-05
0.0001015002054759021
0.0001774776835615991
0.0003766330266676848
2.582202320342574e-05
2.027088633945387e-05
5.999360763459761e-05
6.31933836334691e-05
2.666717476605096e-05
3.794119159826877e-05
7.382399295507782e-05
0.0001638841343807534
2.879411241369695e-05
8.893731550756013e-05
3.918717954102655e-05
4.244567781150143e-05
1.880624799023379e-05
0.0001362256574897757
7.078987645636316e-05
1.544689296636934e-05
3.135172854071932e-05
6.177905669385488e-05
3.503101167423444e-05
6.79498246628502e-05
2.672258554165055e-05
0.0001035495567458974
0.0001290596001055062
5.131687780403814e-05
3.810959541323952e-05
2.782325360199079e-05
3.309989321674049e-05
2.514106200373281e-05
3.030394855948699e-05
0.0001268735112849021
6.134322858367378e-05
1.82977735679958e-05
2.412327420912946e-05
2.223205572189882e-05
2.699293137693354e-05
4.673364983054281e-05
6.955299062657221e-05
5.345890593573073e-05
0.0001492655810100132
0.0002289574611587998
6.977362267860814e-05
0.0001129605447740319
1.61352304984321e-05
6.302943829124715e-05
3.848816192763582e-05
4.204952720860422e-05
3.961672058426992e-05
8.241735123795722e-05
4.698372291747447e-05
0.0001375468843633662
0.0001755739631665529
4.841692399851469e-05
6.413368064242299e-05
3.14946940800817e-05
1.898242561052721e-05
4.084634333142547e-05
0.0001083074890486465
0.0001761437645210738
1.811274486830912e-05
2.059062270907795e-05
9.968969838032415e-05
6.10662857649306e-05
4.106697015309983e-05
4.394208160032381e-05
5.101209506324094e-05
0.0002922945641668208
5.72198930071134e-05
0.0001155071732829463
1.963745615387244e-05
3.089734042190394e-05
4.557380487876484e-05
0.0001025362906450674
4.542896605750548e-05
1.809506803382968e-05
5.49524437812965e-05
9.162877740543348e-05
7.51767578710789e-05
0.0001233033898443879
2.01580773581529e-05
0.0001033469317698771
6.577869249524007e-05
5.459561862682526e-05
5.942655011782527e-05
9.746532756463842e-05
0.0001005639970391213
7.357304710684766e-05
2.841036701487881e-05
0.0001303868650563592
4.513760655814385e-05
2.655969151466589e-05
1.332144108465626e-05
1.014487209367309e-05
2.788866013192962e-05
5.489374905816907e-05
5.925493597643504e-05
8.662035816067487e-05
0.0002573268465219021
0.0001374130072278163
4.93077036136995e-05
0.0001436080523361344
3.227608999413583e-05
8.153558084245981e-05
2.914320820870671e-05
2.881074431111509e-05
3.165158052638831e-05
4.450909404795583e-05
8.570723273383819e-05
0.0002815358996435659
0.0003307221715841061
0.0001389482843405405
4.746635726645664e-05
4.047280169518035e-05
4.039650062019565e-05
2.27588936935708e-05
2.412252238606782e-05
4.251448793717198e-05
2.346170589351588e-05
2.035299507924109e-05
0.0001094217620425776
3.200044678349459e-05
0.0001038913491934699
0.0001347747900647806
7.913211871702551e-05
0.0003141772064546364
0.0001559513575174586
7.179987752796205e-05
5.767517670540084e-05
9.413965601213101e-05
0.0001160075343204201
5.444223929842814e-05
4.195328302792657e-05
7.835461477044217e-05
6.079009200422499e-05
6.884617946381815e-05
4.421207605986314e-05
0.0001146218957756465
4.551814831882946e-05
5.010873933210434e-05
3.313357762803007e-05
8.53071390195914e-05
0.000215032185608079
0.0002209549386108855
0.0003969361365931597
0.0002526922116720988
3.431552252480873e-05
9.03458414178776e-05
6.582203987147012e-05
5.719467191353662e-05
4.619994944493121e-05
1.972043586692045e-05
3.740494244357215e-05
3.885836177386466e-05
6.896185633477763e-05
0.0001081934508085838
0.0002017146585224537
0.00025209993474073
3.946056992313389e-05
0.0001833931196458418
4.770965762856061e-05
0.0001585583183931914
4.515925334038789e-05
2.766594973823606e-05
4.277137282779996e-05
5.116890316036191e-05
6.96492308030444e-05
0.0001812345154723458
0.0005326015388454714
0.0001597285350217153
7.414883799806929e-05
4.811909311278183e-05
4.141905826405743e-05
2.048006639929888e-05
2.20839718539565e-05
2.091103959970143e-05
1.943136226724467e-05
4.793207716894924e-05
0.0001659897335122055
5.025927984695666e-05
0.000170126850560114
0.0002014500342725288
0.0002390991104432171
0.0003095802763638687
0.0003856178283168297
0.0001157714413706163
4.14080907312418e-05
7.211257241006751e-05
0.0001182998307980181
8.336211773159064e-05
0.0001303871341400312
0.0002379065177216051
0.0001459018634460629
7.576382008806306e-05
1.948295615503677e-05
4.041199152693463e-05
8.477224188698792e-05
5.896438181216208e-05
6.481414873754995e-05
0.0001278494822547282
0.0003273631013702804
0.0003801739702152342
0.0004007626961947541
0.0002954184102652134
3.968912461951991e-05
6.965741119944442e-05
7.331691599614828e-05
0.0002151648354255787
0.0002538015588143679
0.0001304763639453216
4.903124216620682e-05
5.009983121012777e-05
0.0001034362110953871
0.0001915753444313273
0.0001207065378237775
0.0002839282694207511
7.846880096605244e-05
0.0002197616342407571
0.0001697015627339665
0.0001003508341784131
4.381162674264993e-05
7.37302474521381e-05
4.918104768908841e-05
6.263006763391106e-05
0.0001673745303620174
4.603236018969688e-05
0.000315759814601872
0.0001699975412619703
0.0001582346978433757
0.0001062898641973181
3.933760350883166e-05
6.080829900971672e-05
2.323422210383243e-05
1.831957163872541e-05
5.016212558165971e-05
0.0001523907786911662
5.829010771723402e-05
0.0001380541041299312
0.0004804359556343241
0.0002041474832397242
0.0001086606838576344
0.0001029139975665074
7.197143374296883e-05
9.274083514259567e-05
2.961934784994902e-05
2.676555976654493e-05
6.159000534748764e-05
0.0002586035192760893
8.043466072411119e-05
0.0002048559062572235
0.0002247328939945775
3.221972394664156e-05
4.64798263696963e-05
0.0001449122900541344
7.671931938900833e-05
8.638303868591989e-05
0.0001405720857241492
0.0001381655702083223
0.0001749665804362483
0.0002673333157311815
0.0001788213321062728
7.214798899978665e-05
0.0001743005188586694
6.655175917313022e-05
3.612298266458811e-05
0.0002106903719717425
0.0004123664207845263
0.0002614722898559484
0.0001163890174627016
4.028677266015357e-05
0.0001804272566083506
0.0005311596159494955
0.0001335636137687776
0.0001010311624213339
4.16021522621875e-05
9.18564582940699e-05
0.0004054192012365175
0.0002887756620750964
0.0001408621570103097
6.954309547651873e-05
4.56020813356397e-05
6.629960045929848e-05
6.824562005667679e-05
2.619771902429198e-05
7.926902214948837e-05
9.219546649780146e-05
0.0001365594970024165
0.0002873874471028515
0.0001775233376330452
0.000253195916953579
7.168460720058675e-05
2.787032541749972e-05
3.140817354770284e-05
8.046129365461218e-05
2.676601315715825e-05
4.73417460717278e-05
0.0001471614025688008
6.975548494041344e-05
5.135470545794909e-05
6.575780066815896e-05
9.668670413865959e-05
0.0001090784666738911
0.0001053748316166583
0.0001085231785444681
0.000133978656698534
0.0002483643458062424
4.187213694692499e-05
8.917316652982097e-05
0.0001700998842955946
5.589809902341966e-05
2.655057673847125e-05
0.0003711189477272894
0.0001747667832078132
7.929930696660601e-05
8.452192937275856e-05
0.0002805906011970314
0.0001138634785510431
0.0001570134040436095
3.328942995738951e-05
6.131851361682225e-05
0.0002321822383848295
9.831308252637384e-05
0.0001004333836336366
0.0001489226480438031
8.341282404411305e-05
6.151970993791105e-05
5.240580509583742e-05
3.426653144126236e-05
8.289425945649121e-05
0.0004142924961605496
0.0005202647100045487
0.0001309888555675251
5.775808280695063e-05
8.950943232303402e-05
0.0001530794480719296
0.0001379155301108109
5.022022483980415e-05
0.000337370962558059
5.254765367536753e-05
3.501640614851171e-05
4.125998625115817e-05
2.21538156934929e-05
2.673461492492683e-05
2.861566803065458e-05
5.920418961255326e-05
0.0003898514176581639
0.0005143742039006255
0.0003518713476922335
0.0001099870791895123
2.267483242601419e-05
8.937368314663903e-05
7.459085741033273e-05
1.022558158676918e-05
4.900274495485216e-05
6.391398845207183e-05
5.869210054212001e-05
5.538835497527489e-05
9.698881493027178e-05
0.0001091347846820488
7.850345372748907e-05
7.773759226245125e-05
7.644437685197919e-05
7.263433560363989e-05
9.473340689865766e-05
8.561415928396754e-05
8.703048126611881e-05
4.373710053814611e-05
7.478586141011484e-05
5.32917482924531e-05
0.0003965095063455
9.998289714872894e-05
0.0001457628047957234
5.145852960331877e-05
0.0001684960904288043
0.000126643382100715
5.945964265523423e-05
2.959347974417523e-05
4.073476565016218e-05
0.0001746396709818986
7.107063470032825e-05
7.906956865363512e-05
0.0001392118601983731
0.0001020408038777362
2.700427540225017e-05
4.651441129395977e-05
4.124443279438137e-05
5.514556623057531e-05
0.0001996060727769482
0.0004840911943090964
0.000178377275826097
5.030298143150619e-05
5.042872596525514e-05
2.519345666672408e-05
0.0001427363494518224
0.0001040091558910966
0.0002476565612094969
8.327940348749549e-05
4.687428983510293e-05
4.295257806417929e-05
5.106649492730536e-05
3.133717825420563e-05
3.320461377554046e-05
4.00909553267772e-05
7.41794871120171e-05
0.0004843576196191192
0.0003104924958878848
0.0001936336543148254
5.926311022479625e-05
0.0001641274127573493
2.986480533704515e-05
3.267060992041398e-05
7.033458704331186e-05
4.435266257970767e-05
3.890392252974546e-05
3.757788694049578e-05
6.031872299884753e-05
0.0001315896279574089
0.0001627673348254795
4.071914796026135e-05
8.460056327197328e-05
7.881168083326127e-05
5.514889503310213e-05
0.0002194575091508709
5.372359569997119e-05
6.518627244085042e-05
7.920796549980324e-05
5.539573901518062e-05
0.0001770762936356038
0.0001353201031946464
0.000230291959448623
3.336286932228031e-05
8.633449665876403e-05
0.0002248565009206643
6.637604916264762e-05
3.636000051621841e-05
0.0001107183448306882
6.099843159581485e-05
0.0001638566000680049
0.0001837551685611964
0.0001015212617393107
0.0001653520318410498
6.144525244028035e-05
0.0002025803602558268
3.400127048193243e-05
7.135497243903774e-05
0.0002650046781155091
0.0002653107102770021
9.738345888264145e-05
5.075747232255369e-05
2.742846355586794e-05
1.623368429360109e-05
9.541770765131295e-05
0.000147435713290193
0.0001176341306433538
0.0001370134748144606
4.637696862504328e-05
1.896977865310867e-05
2.394788299576419e-05
1.596537086721774e-05
5.979992530319538e-05
1.427112411527843e-05
3.675098650509616e-05
0.0003763754606143592
0.0002108616884329685
7.071618341438935e-05
9.091540769021762e-05
9.256891224660097e-05
4.809192803658346e-05
5.67496678294447e-05
0.0001086731193371599
9.755773533827103e-05
3.976235490469695e-05
3.73089715096379e-05
0.0001337781145364498
0.0001481758980508319
8.298886734830223e-05
4.623883519923635e-05
7.880668548610155e-05
6.239081903333782e-05
6.086330780706113e-05
0.000374866015527743
6.634354088118043e-05
1.622248394824488e-05
5.4556193906215e-05
3.439039267444263e-05
0.000166211174972882
0.0002052440314829516
0.0002154067386676625
3.542415605762486e-05
4.314221114681897e-05
0.00022396924107561
7.321501305957458e-05
8.304002154626085e-05
0.0002591927020622641
0.0001160647041125248
0.0001149004312841268
7.981618625239781e-05
5.725261826428275e-05
9.530968031192316e-05
4.407704601320477e-05
0.0001169236118375361
7.980553133836426e-05
6.337429385643966e-05
9.452919675690664e-05
0.0001980164702853241
5.502605773625082e-05
2.306741208602388e-05
3.49871127028389e-05
2.283037922410559e-05
0.0001016863908020288
0.000151743126283857
5.637144184463336e-05
0.0002575625605000927
8.009124752118008e-05
3.195073639835259e-05
4.355849401229166e-05
2.355340111901636e-05
3.66334134624465e-05
1.400080235658072e-05
3.022376895822917e-05
0.000236661483131786
0.0001662720344505782
5.744582796345773e-05
5.598499486093107e-05
5.022394398001573e-05
0.0001681859929167872
0.0002101514573944903
0.000430795337511267
0.000410176070763139
0.0001666541493098747
4.18929844223442e-05
0.0002161037957894309
0.0001181493085447835
0.000151194999946312
0.0001076295220737669
7.969656329866774e-05
2.305405974808264e-05
7.207948758353439e-05
0.0002268360091824729
6.534523693616461e-05
9.877984292071708e-06
3.467087137741088e-05
2.203728076650534e-05
6.299878116606572e-05
7.01601123807205e-05
0.0001522037118202368
5.766332139996165e-05
4.040373006670062e-05
0.0001141760050292835
4.41295662220768e-05
3.471629829119265e-05
6.34277748430741e-05
0.0001096456672308654
7.944774693916753e-05
7.923824005372397e-05
3.881663644920531e-05
4.75657099461177e-05
5.544197114686612e-05
0.0001167200504938609
7.748424058648883e-05
5.531936963193829e-05
4.039766665196216e-05
8.884551429868734e-05
3.449020207267851e-05
1.707186052971217e-05
3.231795012431873e-05
3.500461318435999e-05
0.0001846131146375094
0.0001954414778144903
4.436228627418332e-05
0.0001796008842133852
3.145681692583987e-05
3.77650682655127e-05
9.074605524805914e-05
1.610820069436417e-05
1.366383963483136e-05
1.02163433650519e-05
3.390492383966803e-05
8.275701870498521e-05
0.0001289483166247372
0.0001264311774021338
8.865592609585731e-05
6.622876156656582e-05
0.0002592205431386647
0.0003141896024696763
0.0005865256685532159
0.0006865052150951428
0.0005011479429664773
3.262205225401587e-05
8.248157498038016e-05
4.990759055407755e-05
5.414945111732037e-05
6.079725049941755e-05
8.07716205574221e-05
2.805173241802479e-05
4.950838232359314e-05
6.691220650072621e-05
2.589496482220174e-05
2.475276860980835e-05
9.502278449255108e-05
3.7021153975331e-05
3.639634808601002e-05
3.98823869112623e-05
6.886029250223298e-05
5.694260263139912e-05
5.301495566789088e-05
5.825334686200796e-05
2.281164943168063e-05
1.97682907722154e-05
0.0001286288542423207
0.0002300817297407213
3.497548913479096e-05
1.952471226224159e-05
1.396649984764566e-05
3.276174023994401e-05
4.776460185972843e-05
6.528767435851594e-05
7.532366962468552e-05
3.766018061162998e-05
6.527283047833159e-05
5.009570291518615e-05
3.119809824906781e-05
2.219459262394078e-05
2.27969190464141e-05
3.267194306097001e-05
0.0001024520710270144
0.0001026099506576074
6.200742259120494e-05
8.000095441141894e-05
6.837213841346339e-05
2.611387117713861e-05
8.078657017266579e-05
3.044892592886308e-05
1.181784418344372e-05
1.25420328098055e-05
2.03531583779321e-05
2.790300233723156e-05
0.000112452194764548
0.000108925472391172
0.0001507968806283768
7.789466504920438e-05
0.0001753560387237795
0.0002212954466905507
0.0003306133314612961
0.0004829627639621322
0.0006001596465832566
0.0001541307817120092
7.927013495470775e-05
7.192691467245194e-05
4.067131540742754e-05
4.730541544364397e-05
0.00010644497450861
2.699653597845232e-05
3.168523250882001e-05
2.116977330030839e-05
1.547733356540948e-05
3.609661273028458e-05
0.0001937843331078894
6.794246701431925e-05
3.37323445314595e-05
4.281159517267165e-05
5.851354744490195e-05
5.676517925666199e-05
5.617101768005261e-05
0.0001079214022842216
5.151068033811901e-05
4.39868514562434e-05
7.25503460494152e-05
0.000178636627255294
3.353065995309183e-05
1.792356990586041e-05
8.16414841567385e-06
2.593696164537464e-05
2.256670705291313e-05
2.545778224535046e-05
4.80368274343313e-05
3.881607772716739e-05
0.0001292958860453935
3.930422287201091e-05
1.934126986709754e-05
3.129335890710188e-05
2.277489282045304e-05
3.60480894693952e-05
3.76719602587932e-05
4.325357793787556e-05
3.098163482608038e-05
7.463490394079557e-05
0.0001872624143142758
8.576061477711305e-05
6.55255514319316e-05
2.143133336141379e-05
2.003642247348064e-05
1.497967313943101e-05
1.310079537129872e-05
1.010068615867364e-05
0.0001203547048854154
5.545888643804515e-05
7.622246040251122e-05
0.0001605420325362532
0.0001527545826536866
9.452790692189927e-05
9.109790136166464e-05
0.0003016304563308457
0.0004302452440494601
0.0003411959887026889
0.0002392762049480688
0.0002310230682409196
0.0001215139000903454
3.474047102999275e-05
0.0001038399328301434
5.384438467832192e-05
3.383043937981975e-05
2.611501084211788e-05
1.589056204290628e-05
6.229109171646463e-05
0.0001422803224826678
0.0001550712078808589
2.907244932207218e-05
5.012206130001586e-05
3.093735811902125e-05
8.133590963639021e-05
6.208969835656886e-05
0.0001521046472028437
6.403156989891075e-05
5.649785776088904e-05
7.394079495775289e-05
6.482278912521081e-05
8.193092598332878e-05
4.078184272178192e-05
1.313622768920755e-05
1.532734254888094e-05
1.141174444190846e-05
3.921653678930984e-05
2.240395572875535e-05
4.819024085497108e-05
0.0001096940049702135
8.358241967554399e-05
1.784124871759163e-05
1.656528483351951e-05
4.201362498596292e-05
3.085127063558616e-05
2.861865663317006e-05
1.078834125478183e-05
1.252832527552949e-05
5.681316664272736e-05
0.0001320747796850031
9.806637765866524e-05