/*--------------------------------*- C++ -*----------------------------------*\
| =========                 |                                                 |
| \\      /  F ield         | OpenFOAM: The Open Source CFD Toolbox           |
|  \\    /   O peration     | Version:  v1812                                 |
|   \\  /    A nd           | Web:      www.OpenFOAM.com                      |
|    \\/     M anipulation  |                                                 |
\*---------------------------------------------------------------------------*/
FoamFile
{
    version     2.0;
    format      ascii;
    class       volVectorField;
    location    "0";
    object      U;
}
// * * * * * * * * * * * * * * * * * * * * * * * * * * * * * * * * * * * * * //

dimensions      [0 1 -1 0 0 0 0];


internalField   nonuniform List<vector> 
1856
(
(-0.6080045699417886 0.08098063424117483 0.08030490590780177)
(-0.6506759774497991 0.005991319022126994 0.005893176664048388)
(-0.6615000993622823 -0.002131556119186386 -0.01226184159178399)
(-0.6840347109518896 0.0008452698060760129 -0.03768412229085849)
(-0.7298661644367743 0.004565484860383715 -0.03834138270299512)
(-0.7193796188718405 0.0004267636107155482 -0.02389605782817038)
(-0.6774931521608041 -0.003429758692215697 -0.05020594552890676)
(-0.6947743956446466 -0.008114224602202073 -0.07665247482678871)
(-0.7176726084995797 -0.004524632952409468 -0.08763373777639842)
(-0.6919769137935936 -0.008028257770747877 -0.06172160479143683)
(-0.7862740569849567 0.004447959098854272 0.01167852256166131)
(-0.793439859099582 -0.008867951176517903 -0.02190027059412158)
(-0.7737082481559514 -0.00230546780312601 -0.03414385783735801)
(-0.760363408334044 0.004473360057815616 0.04095306982633023)
(-0.7629616041661613 0.01412734522458222 0.03696569191108848)
(-0.8325609243479194 0.008338145655131649 0.03339074508637171)
(-0.8001754486879639 -0.005705896870274577 0.02561380346263766)
(-0.7547082215005257 -0.01638650573402916 0.01942206058158891)
(-0.7028601628933789 -0.003676233323510569 0.006108152015298414)
(-0.7046805500682696 0.00217569801274562 -0.003567496057542033)
(-0.6965222299695329 -0.0113568375549638 0.01952684929040156)
(-0.6737762562247301 -0.01338722860677198 0.03923383390777428)
(-0.7083103121402334 -0.02050640256033471 0.02653295391903066)
(-0.7509023297345271 -0.002662816954705668 0.00745067019397107)
(-0.8462618799599326 0.01380587466289403 -0.04050039362844209)
(-0.86098502131405 0.01407199524916299 0.06919782427767626)
(-0.8789339325244018 0.01861344111311607 0.02492270857368508)
(-0.9091703780413201 0.009946020950378298 0.003467586230092315)
(-0.8288489116471808 0.006073666244889701 0.03959852778071643)
(-0.9057622509970674 0.009962632995384784 -0.02251723085148025)
(-0.8522519714537886 0.01371004538638967 0.01257782639013375)
(-0.8389991664416879 0.01095254798465591 -0.03255591741305868)
(-0.8137342271892021 0.001519664564907987 -0.05790631582870971)
(-0.8109684329209348 0.002776976151970966 -0.06310332394207821)
(-0.7825573611405322 -0.005510774876255885 -0.0560668850540372)
(-0.7488406293809765 0.001779036724736563 0.00678965259107359)
(-0.7461351778232765 0.001698089166155356 0.02343319341356807)
(-0.8007420191799883 -0.0005690757031009205 0.009896219442109147)
(-0.8340132762560465 -0.0004756354412749687 0.01477899447506614)
(-0.8501966916534001 0.001351365969080144 0.002901869125038819)
(-0.7930897044423099 -0.004406127729826226 -0.006736336464549856)
(-0.7958228069824653 0.004183143905195496 0.008158074485072015)
(-0.7935793274057805 0.005807897100511833 0.01330991734732699)
(-0.7760807510558185 0.000334644499667608 0.006659159410823427)
(-0.7620802024092668 0.001077414398344209 0.01364201584190398)
(-0.7832485135526867 0.001125811810867204 0.005254349933275343)
(-0.7631075056127006 -0.002535509804233294 -0.003896745598650305)
(-0.7667515192385344 0.007012112684822902 -0.0207946981373468)
(-0.7394492013126531 0.005120832647505072 -0.01643239462760862)
(-0.682325732960981 -8.536053097083201e-05 -0.02158295983536117)
(-0.6699280950797949 -0.003395366082999753 -0.0173368451506019)
(-0.6264479517676552 -0.0115528155426474 -0.02646539746490697)
(-0.637406680379873 -0.002456428840930355 -0.01346656431055886)
(-0.6055020931710187 -0.008910799468032738 -0.005032516598552273)
(-0.6333583529972935 -0.004769140269041232 -0.0005048507585693296)
(-0.6648025359672289 -0.005946168664510714 -0.02029930126198288)
(-0.6206646615761322 -0.00590001201013564 0.01237017338993638)
(-0.6704324029850788 0.01078740069698052 -0.001008948572863903)
(-0.3671215738007885 0.09195918101444267 0.06440498779280125)
(-0.3678170698126892 -0.005555308126542598 0.04438644415018422)
(-0.3341167248135905 -0.02634107463065757 0.03044017687058627)
(-0.3511258381355917 0.006297547567123024 -0.02675840857317955)
(-0.490367921096044 0.004456956744249374 -0.02333970148536958)
(-0.4716165652137947 -0.006612692999618352 0.01409105121029977)
(-0.3673244222576485 -0.01765093742576723 -0.02749819256689449)
(-0.3594584755543411 0.007433427690484216 -0.08555743657807299)
(-0.4257750839078548 0.002052983014733299 -0.09291992903403307)
(-0.3646376674423769 -0.005992083425129462 -0.1052870591508783)
(-0.537291672280954 -0.002973753861329697 -0.01883085327489557)
(-0.5609576985507484 -0.01397405528717255 -0.00727200586973533)
(-0.6596595891290313 -0.01717051246212187 -0.08985418200870778)
(-0.6324067737181455 -0.002405073802539664 0.01953795774023774)
(-0.6051706468649243 0.01522104716690599 0.03069318333189278)
(-0.6574358192918762 0.02210608372516362 0.05264270751734124)
(-0.6539930549757886 0.01045320230420265 0.04406602004974533)
(-0.6468049586310876 -0.003710395162086406 0.01892988170011669)
(-0.5958104071185766 0.01270418320888334 -0.005163436734126909)
(-0.5406404534634641 0.01496332883835826 -0.03839102764194031)
(-0.5166014427981671 0.002042113981875246 -0.005920427677618494)
(-0.5040205268636223 -0.01800085552234774 0.00929902473838428)
(-0.5097998109331114 -0.04103524125089442 -0.001433659675246033)
(-0.5452984769229349 0.008877119456615276 0.0575419174397549)
(-0.7196095750974013 0.04699164202078804 0.02402155692302523)
(-0.6412257202392925 0.04825536805784124 0.1515882281569834)
(-0.7764325177497398 0.03936368977319171 0.02445789205524494)
(-0.7731685910937409 0.05177482754881516 -0.04049174088515951)
(-0.6794184841171538 0.02814535088706103 0.04790432073769214)
(-0.7522833440824616 0.01703583270788037 -0.03995483515617847)
(-0.7246315619795511 0.01722238388490082 -0.00852951016407209)
(-0.6298171064735045 0.007518875664889674 -0.02893577386319582)
(-0.593247560360784 -0.00140203269215364 -0.1017731639419525)
(-0.5909135623406157 -0.002390441913958729 -0.1059377646715802)
(-0.5493354266552993 -0.02253970600225596 -0.1113941335215024)
(-0.5035133451008201 -0.009877477785095385 -0.02210490345756588)
(-0.5094763435803271 0.0006213053687854455 0.03260947754323312)
(-0.5485759454915872 0.001076075898430116 0.01242058848133674)
(-0.6041512354256288 0.006960894894979726 0.02796805125957625)
(-0.6815412339823845 0.007515811328302421 0.008877350633239519)
(-0.6214199584367386 0.001674237459346604 -0.03503733685223721)
(-0.6567830062648095 0.01934845091332728 -0.0525434175757748)
(-0.6349401844358378 0.01289869407353344 -0.008082596099228585)
(-0.6044776419833375 0.002870646547890624 -0.01957057376989288)
(-0.5588959038480622 0.002789146177086626 -0.01616911412233762)
(-0.5913145960621291 -0.00130153586613171 -0.0005503824329605657)
(-0.5676159799351456 -0.004336348276890209 -0.00861471695095142)
(-0.6312331594982284 0.008994118481940488 -0.05492600055772401)
(-0.5979231466742212 0.005794985880310327 -0.0567312207704446)
(-0.5265840836105627 0.007774852823786564 -0.07194559497793325)
(-0.4741409678903373 -0.006725507796751163 -0.05579352596789913)
(-0.4010504533308168 -0.0195409581911053 -0.04083815683738978)
(-0.4047341813235075 -0.01172855997394314 -0.05668873574584367)
(-0.3235502009701163 -0.02041004656836198 -0.03181103505238474)
(-0.3434915466608583 -0.005918584755193423 -0.001457290358349747)
(-0.4137269685468831 -0.0145327667021928 -0.01876251029605639)
(-0.3943929710998693 -0.00918697735113853 0.02094894280374573)
(-0.4359751290999597 0.01459857976313279 -0.03352765458290864)
(-0.2689664690245853 0.06904404677741764 -0.03695020677617555)
(-0.2304289921862386 -0.008962854272165088 0.0464981531327005)
(-0.2024963407267833 -0.05212140530701853 0.0397766833885351)
(-0.2368254599973808 -0.0124776464105285 0.001006584977914257)
(-0.3209874836094673 0.0328284768194454 -0.04529320219948377)
(-0.3626726982377965 -0.008341763457664443 0.00193555275555933)
(-0.2469684370259534 -0.06186062967665604 -0.002369774664978999)
(-0.1838819792427532 -0.0007729711302381134 -0.04344363414639583)
(-0.2296306666354187 0.01987826226811886 -0.09350999710557545)
(-0.1853013253986263 -0.01080287055956448 -0.09285715486610098)
(-0.2413353265537122 0.001889609168239401 -0.05903767669356143)
(-0.2812959332750303 -0.01198888683196029 -0.01847721101193438)
(-0.4381549975527405 -0.006947655669462025 -0.0859521208751208)
(-0.5812710297030796 -0.02870825183203203 -0.02197957343138325)
(-0.5764495158906885 0.01777343218619575 0.001846032572330771)
(-0.5650912424126722 0.03754987775107157 0.05265200783325128)
(-0.590455995129334 0.01194631356600817 0.04292109402705404)
(-0.5883710097834418 0.005092836320178578 0.01622355484988868)
(-0.5750290029535245 0.04979305881885794 -0.04018454720724977)
(-0.5387915677696526 0.02968726767081184 -0.09264942014785102)
(-0.4535772910440053 0.021794243072447 -0.03591827329651881)
(-0.4300519985363309 0.01387426382754416 -0.01548697165389617)
(-0.4871837248336826 -0.06671460632355908 -0.07475055649315224)
(-0.4102646712501231 -0.0003612206816136867 0.03773839427843401)
(-0.5554750800678232 0.05337119865158669 0.03955753612495028)
(-0.5216644653126439 0.0589929297775131 0.1399861879054001)
(-0.6278456353292938 0.04314200754685573 0.08681006496155266)
(-0.6859964175632762 0.05001568432064369 0.008593688238804537)
(-0.5306816040797259 0.0624494618281428 0.0502056133132192)
(-0.598994673842826 0.04808880222173578 -0.03005211219284893)
(-0.552510246492931 0.01903728982844198 -0.02664905537354062)
(-0.4473809221532751 0.005978441689581108 0.01064132328747297)
(-0.3440663643785635 -0.004874354418644389 -0.0575385719880556)
(-0.3482864825057275 -0.01807887775049965 -0.1028360421244318)
(-0.3278993717672773 -0.05434828173535279 -0.1171456332006549)
(-0.3134381087958661 -0.02722952942477508 -0.08470460310411793)
(-0.3804413308349754 0.005220757941730978 0.006000257538611376)
(-0.4347870868634452 0.004321882597904655 0.02615850289137741)
(-0.4083350048036657 0.006311159424683006 0.03976118715542682)
(-0.4940205925039727 0.01325334512555092 0.03502134104980125)
(-0.4936075102718897 0.004200853200117456 -0.01255941256929045)
(-0.5041800962780476 0.04689566711801192 -0.1194628134577955)
(-0.5230542252390986 0.02895508616950549 -0.04986471038657914)
(-0.5015050804317267 0.01712309053783603 -0.05923087083919493)
(-0.4480248569952711 -0.006507853891471821 -0.07134042074876759)
(-0.4405976554805266 -0.01093863252476943 -0.03189748879841966)
(-0.4371767896523057 -0.01678900370135901 -0.02047658970639887)
(-0.4626937934001092 0.01364967327428528 -0.05465002507017191)
(-0.4638832135477573 0.002333629081356448 -0.07954974154670141)
(-0.4378266501015651 0.005062589394025731 -0.1095705897935182)
(-0.3783316934353715 -0.01738237270431074 -0.1339073877733157)
(-0.3203360361148705 -0.03999224718002357 -0.09783312558653939)
(-0.2909437299872935 -0.02353274995663952 -0.07405007972024918)
(-0.2163749538226504 -0.04104809733391102 -0.0622217861398237)
(-0.2168585595614107 -0.01539191652897069 -0.0309273754181064)
(-0.2398134592670405 -0.01269513358357852 -0.0001311511522887761)
(-0.2681148655144318 -0.0009669454156857693 0.0438487986597767)
(-0.331241663568587 0.007003799550892776 -0.08294674125526924)
(-0.258640118464832 0.03397087423920797 -0.1126289846821189)
(-0.1430741971105234 -0.01252617600069813 0.01298856045864508)
(-0.1227296922699095 -0.05087884375705486 0.02537323113724825)
(-0.2369453435309457 -0.03150533802796239 0.02877176182968399)
(-0.2480869351552472 0.05281463660584869 -0.0684102435265871)
(-0.3085266426340801 0.01683738451258656 -0.03298017742817266)
(-0.2402892262798507 -0.08046250842584006 0.006569079303600875)
(-0.1752088541017216 -0.02090731373846951 0.02875514052682051)
(-0.1697502987053059 0.01303978976343026 -0.04526608261963088)
(-0.1784708601289212 -0.02044750927900651 -0.04705561174482552)
(-0.157480689776695 0.003670979787830894 -0.06217161970810724)
(-0.1850667164321223 -0.007814745907134987 -0.02084391285232862)
(-0.2245304006292074 0.01771725000311117 -0.03801943201495849)
(-0.4537100745598996 -0.02133187439483511 -0.07776227479056085)
(-0.5712188736197761 0.01349856527266202 -0.02026660625449361)
(-0.5182394416366439 0.04286586727416374 0.02368902705450951)
(-0.4822804925356768 0.01344748129192251 0.05328913958872122)
(-0.4999347853743361 0.001148542260549508 0.02790449400646545)
(-0.546224588646387 0.0744315417969605 -0.05149568452518993)
(-0.5395839285548314 0.04389032337340833 -0.1649003997337403)
(-0.4712706891577694 0.02054354197034589 -0.07954686775798914)
(-0.4044958609955441 0.04991180234819385 -0.03044022396404489)
(-0.4525003830741393 -0.05161276979224843 -0.09335866822402913)
(-0.3445424761542203 -0.02458040292122474 -0.01708604422347593)
(-0.3515946495477269 0.0494808079219089 0.01769504914552209)
(-0.4643536438730808 0.01619185561534849 0.03833352076412301)
(-0.4172588528359079 0.02417519855690216 0.1191622079142397)
(-0.5554384128110316 0.04097505529767555 0.0813795643868582)
(-0.4720609275750243 0.06470399344647182 0.07253239782834454)
(-0.5033133705065239 0.0772369104910218 -0.007189996718234478)
(-0.432426571352354 0.0178329622540345 -0.02660299367719145)
(-0.3324675125741521 -0.008672418423843118 0.01658668505883443)
(-0.2354021325049896 -0.01815526570328739 0.03559486558205176)
(-0.2383931664438443 -0.02581592733841608 0.0005198775884897693)
(-0.2049326202999689 -0.06811959480363684 -0.03467162155163158)
(-0.199244416159251 -0.03445263595902241 -0.1105855722284139)
(-0.2925899402495861 0.00414362340801764 -0.05103250600346854)
(-0.3852227779923417 0.01625217983816751 0.05138837847807168)
(-0.3250247459956283 -0.009079938460559097 0.03954493900407106)
(-0.3464678556415719 0.008510189131782281 0.03760753872104283)
(-0.4248694798313261 0.002965642878027709 0.02610614768918936)
(-0.3979500357737498 0.06856783715986391 -0.1159142392263016)
(-0.4200113075627556 0.05393505225234253 -0.1147410470742495)
(-0.4377127593893365 0.03318816345122498 -0.07771942585925389)
(-0.4261543717977819 -0.002554117275589835 -0.1136224168299381)
(-0.415138543952093 -0.03191096202503399 -0.07114869985743444)
(-0.3986547496926277 -0.03265450414074212 -0.0428957701098699)
(-0.3737287496595517 0.004753790623820377 -0.0564788733054136)
(-0.3709117970186993 0.002109383732875603 -0.09733314953226406)
(-0.340011481420927 -0.004903730080566401 -0.09675316216303055)
(-0.285197124340472 -0.02872022301234305 -0.1370649529959926)
(-0.2371929506161222 -0.06362082818167993 -0.1351453729762883)
(-0.2303665999597653 -0.04428318226158524 -0.07874459291080443)
(-0.2079152330524143 -0.04608717444451737 -0.05285970553533997)
(-0.218868348632748 -0.03232085122124047 -0.04753575844454919)
(-0.1455027718411829 -0.03089715256740655 0.02350769714504074)
(-0.1895930235119783 0.0003888089669769734 0.05314548458874307)
(-0.2309998022142819 0.01744370901840604 -0.03749445530575188)
(-0.1846331587772616 0.0339507863778843 -0.07241089582274179)
(-0.09261472703456124 -0.03203730339326711 -0.01654370247324332)
(-0.07993482421146539 -0.04858614605424846 0.02334432136989752)
(-0.2187263848285255 -0.03740239778632046 0.05161495546331243)
(-0.227124350534756 0.05981933663733433 -0.07886841992377211)
(-0.2637469199573136 0.042126766891446 -0.06620054642167986)
(-0.239644896219403 -0.08313677962517586 0.009762148485010023)
(-0.2117173478474573 -0.0451806159178217 0.09300498649311893)
(-0.1911792039602826 -0.004928571080655306 0.01901119083941163)
(-0.2019600685049299 -0.03729941831859285 0.004234322624623835)
(-0.1711822394915612 -0.00141142538441769 -0.03586258547703407)
(-0.1804970038886424 -0.004804797822057447 0.001292860218148549)
(-0.174692512353004 0.00598142133483191 0.02244748064729046)
(-0.2620517011773374 0.006944409709890721 -0.1049923780877501)
(-0.4472526288294533 0.02398615386259719 -0.03003636929027983)
(-0.4681961528756455 0.01201317727673212 -0.02896784796320067)
(-0.3454478260386068 0.01409796648765481 0.05919857878946969)
(-0.3567791473243299 -0.006213862152091814 0.04978074312233609)
(-0.4976504788107627 0.07211211772428226 -0.02363457698363769)
(-0.4407727067833223 0.06316908189325927 -0.2019606653436915)
(-0.4445062006069329 0.01077227855986741 -0.1364802862358474)
(-0.4229969483329216 0.05023118113325289 -0.05568705137844457)
(-0.3933337571370947 -0.0203897896871481 -0.07559673186017442)
(-0.3532160393466789 -0.04855441263932006 -0.0820983770254779)
(-0.2796620455208764 0.01854291812341129 -0.02565741886548274)
(-0.3042645295180062 -0.008468320571809521 -0.007946687629380902)
(-0.2623560767027096 -0.0092031792334859 0.07275195525334216)
(-0.340001987726461 0.02751553421360978 0.1004744552947741)
(-0.4667065977658281 0.06464293433765113 0.09740346889966175)
(-0.4644911004750861 0.1212311968066055 0.03404805106201269)
(-0.3819020293872327 0.04541518579747277 0.0162786223719317)
(-0.3033262040374763 -0.00797474111568643 0.04894743225747793)
(-0.2198096033269143 -0.01938091096536155 0.1280616710336797)
(-0.2292086902014008 -0.03830190352864273 0.1086470251750082)
(-0.1877074571654466 -0.1007491405109684 0.06617955773499067)
(-0.1727039845323473 -0.04002058672529207 -0.08917033362305207)
(-0.2291616407715393 0.002844937752598932 -0.09566401886566291)
(-0.3127807529026834 0.02044663776082447 0.02791986517621058)
(-0.3162049227695549 -0.02050087016249165 0.04738037018228076)
(-0.3089446301774392 -0.01104189721668836 0.02398037696969061)
(-0.3771755531297602 0.004140784822062391 0.04963930679939045)
(-0.3481331574468297 0.07674548069814727 -0.06170437046245112)
(-0.3237613176172546 0.08145489908830772 -0.1519144730372021)
(-0.3777133348000978 0.05575247625639397 -0.1061345390064636)
(-0.3899805858072655 0.01715560113322196 -0.1056726772326395)
(-0.3870456440949109 -0.03857469709843087 -0.1027494166431)
(-0.3721346562293132 -0.03249481852835468 -0.06084659228178128)
(-0.3611911992761052 0.01095175179139739 -0.08557984076595813)
(-0.3324691725763996 0.008661502902526574 -0.1277483258145826)
(-0.2819375610447601 -0.01162249350872993 -0.1003912366763199)
(-0.2365987177509685 -0.03915355783627887 -0.1175405533805917)
(-0.192861332442211 -0.07683133496487188 -0.1217088677697771)
(-0.1706037844052265 -0.05379624039656149 -0.07827877115134757)
(-0.2287213378746925 -0.03521838027291158 -0.03941876992064346)
(-0.2412308516294403 -0.03423783775757732 -0.02406933385053348)
(-0.1312611977280307 -0.04057768749554872 0.07028950888015366)
(-0.1337828222385542 -0.02059358350461432 0.0477298354346166)
(-0.1346328250379465 0.02328972047649991 0.01965984317324413)
(-0.09362931475985828 0.0335901742364611 -0.009657587725519657)
(-0.04381622600901942 -0.03583807797133975 0.000536931744663802)
(-0.06116205197668051 -0.03824833714904712 0.04030850340220855)
(-0.1748547467308328 -0.02711960205305189 0.05980856755754416)
(-0.2186261849461946 0.05722135523419219 -0.07510340333176115)
(-0.2287831498998 0.05795450340956809 -0.09799989286504351)
(-0.2329191384658107 -0.07914683114184771 -0.004953691504984324)
(-0.2353680134885719 -0.05833423595342384 0.127484263799303)
(-0.2447831620353928 -0.02508132047674638 0.08296361968748101)
(-0.2186950867158427 -0.05785013820215162 0.06697765962331267)
(-0.1931135123380291 -0.003878371149308962 0.008472043183986181)
(-0.1848880596724349 -0.004590469904083122 0.03482546368002043)
(-0.158139801455135 -0.01423733847312955 0.07640189541099172)
(-0.1522402585714214 0.02604142111060672 -0.1059938844612207)
(-0.2739089595443249 0.05066191303965073 -0.02598836304792769)
(-0.3237930542219646 -0.01350690857756724 -0.05310040803557178)
(-0.2762541735638964 -0.02366093791275981 0.001624907556046454)
(-0.2443545213883058 -0.02292488086998732 0.03981122115480747)
(-0.3618752433916696 0.05009316010348872 0.01678130692600777)
(-0.3819664233859381 0.05449485319314858 -0.1667630970060968)
(-0.3652188307849053 0.0006349402655097471 -0.1764721999727677)
(-0.4245650108260909 0.02870963694260035 -0.1033801566000764)
(-0.3555919157922116 -0.009156197360670214 -0.08203028327273895)
(-0.3586625881170871 -0.05615989566280037 -0.1259476283289946)
(-0.2962205385992203 -0.01934450648204827 -0.08326242147824744)
(-0.1893106428477206 -0.01150943489333892 0.0146330683641076)
(-0.2273798954077529 -0.01809849155879731 0.01474958826580483)
(-0.2313469213518675 0.01404966088836587 0.06305256358667408)
(-0.422948531024549 0.07008459259842835 0.1081575754833934)
(-0.4531857658589513 0.1743324026736711 0.1103640267165162)
(-0.3586112493087544 0.1003264490885123 0.1096910491372786)
(-0.3169117471304119 0.01685338075136852 0.1258671820282946)
(-0.2440289731185955 -0.0396989726694745 0.2038120723709961)
(-0.2376695718263667 -0.06018087270827258 0.1809347177597667)
(-0.1527575162086504 -0.1311229629019278 0.1328802652021417)
(-0.1612842955584789 -0.05432686704947876 -0.03842641439465384)
(-0.1936288326079025 -0.008017180069189065 -0.09645180159894054)
(-0.2590209332086534 0.01317489499442406 -0.01467431340887748)
(-0.3019457105441335 -0.01116918695767238 0.04724423339496427)
(-0.3086211866947993 -0.02027623683870842 0.01922683996389405)
(-0.3520837876510644 0.001493811065690051 0.05670912325481826)
(-0.3318014514727397 0.06920345867390341 -0.009961580961450254)
(-0.2723451765271486 0.1018430349060969 -0.1390732857863732)
(-0.3263832219752604 0.07907343901743143 -0.1297210745927999)
(-0.3602576339470954 0.03116893966573521 -0.07027419544715779)
(-0.3440987734476529 -0.03730556483044468 -0.09612584253698502)
(-0.3285652361344099 -0.02834705182920217 -0.04922278983836688)
(-0.3481516949435777 0.02442622597052906 -0.08798121792635857)
(-0.3093757483950461 0.02514369290210933 -0.1327834719875854)
(-0.256552087031239 -0.009886130444082108 -0.1126591316739224)
(-0.2197701442692724 -0.0447723280461 -0.09596573889914621)
(-0.1974665416054932 -0.09618174488862469 -0.09557056243610991)
(-0.1615211135399706 -0.0578516830596256 -0.05723206132028776)
(-0.246189517402931 -0.01115942916760461 -0.01363809257782316)
(-0.2537888244801632 -0.01308095292203906 0.03754633482708403)
(-0.1513517058189834 -0.03492941164106009 0.1139647225335785)
(-0.1050351840068644 -0.03174931319317439 0.06611970838684378)
(-0.08377827723608579 0.01000677210004939 0.04494431423835173)
(-0.05838727402304281 0.01369850123296497 0.0271519403036543)
(-0.025490290064359 -0.04112120593329465 0.03779251257918932)
(-0.05597036630855456 -0.03315285759552835 0.06815261193764349)
(-0.1191565580304191 -0.01604377992366152 0.06084994881394756)
(-0.1996117531195749 0.04612974936088703 -0.05440418812187527)
(-0.1937951479928675 0.05790779933473873 -0.1193028631373344)
(-0.204491286178252 -0.07319444896287627 -0.03473101832694547)
(-0.2124145558088182 -0.05717267016483557 0.1296140303951966)
(-0.2487830097627565 -0.04045831001417522 0.1361751853793983)
(-0.2282270120387314 -0.07793294874202818 0.109483637102884)
(-0.2019052704650351 -0.01316909350657569 0.05802614834872901)
(-0.1686648825112307 -0.009566670205638728 0.07562902127167476)
(-0.1262147618982354 -0.02869265723413592 0.1182925686188)
(-0.1089788664007793 0.02718727116998351 -0.09414701941683642)
(-0.1762408762146668 0.05189808671899564 -0.02927327775136931)
(-0.1563501069117634 -0.01533942195325688 -0.02448684218072677)
(-0.1767417712819685 -0.03901563086846365 -0.07111574118424002)
(-0.1821145231831089 -0.04169862565628962 -0.01884841049971288)
(-0.234587351092999 0.0362010706854155 0.03705575126343922)
(-0.3192814134844711 0.03055280113708972 -0.07177915126161333)
(-0.2971652738176687 -0.0111582065997082 -0.1659680991552728)
(-0.3568878472120945 0.01642029050137327 -0.1415267190902824)
(-0.3530060284219401 -0.0208918720580277 -0.116665162395658)
(-0.3354989116840297 -0.05422880628371477 -0.1349704852030949)
(-0.3151159792887752 -0.03742725391160667 -0.1249098423385563)
(-0.1957593201160761 -0.01021629478743465 0.02507543959619455)
(-0.2415356624186104 -0.007166157139905887 -0.03901606192990095)
(-0.2144394918791989 0.007306321129776654 -0.003703739049927292)
(-0.3364733785725891 0.06770590915727977 0.09519905435838512)
(-0.4128244935317402 0.1831957636246546 0.1553880853517667)
(-0.3264115236523145 0.1252400967280424 0.1809373168457094)
(-0.2550276654716406 0.03009956246088726 0.1619925500074669)
(-0.1993683492395404 -0.05915346735440228 0.1992690869281187)
(-0.1891075889497508 -0.07385333325794222 0.1995006240396148)
(-0.1016812053016365 -0.1488999093440989 0.1285948554726522)
(-0.1560655037351873 -0.07164717783112738 0.02275921436862133)
(-0.1820772942076392 -0.02156335454499591 -0.06216911748354201)
(-0.2449616702229016 0.006356843307178768 -0.04685966114038607)
(-0.2983196726264534 -0.001961451811866882 0.04058860089843261)
(-0.2968552084846832 -0.01863645417101378 0.02589543346746298)
(-0.3378990511432935 -0.004250787188040952 0.04981725475700295)
(-0.3262757726830627 0.05649365102879721 0.02214166931891171)
(-0.2641835394870952 0.11357876415804 -0.0979429279031233)
(-0.2796697245225003 0.09772567639442375 -0.143568360298419)
(-0.3324862649784855 0.04015103641918894 -0.03676506550658097)
(-0.3154109180110029 -0.03112541159923583 -0.05876748430605858)
(-0.306565986915639 -0.0222505357892595 -0.02744659968237146)
(-0.3126942380140867 0.02757574943045095 -0.05791085329965785)
(-0.2994597192190083 0.03233481123392473 -0.08133440067848222)
(-0.2447140155180545 5.265670302248614e-05 -0.06948250167484597)
(-0.2054428613691102 -0.04244946052808644 -0.04373506272570252)
(-0.2430454191631509 -0.1069626866439162 -0.04207163225388152)
(-0.226418499788602 -0.04161857805257023 0.002868275285482573)
(-0.268483610733211 0.02411102801057241 0.02640639830453994)
(-0.2516747519256564 0.0159529116688555 0.0713665220961224)
(-0.1520270284411988 -0.02141462671571015 0.1053972378786805)
(-0.1101190707964484 -0.03078350038692782 0.1113786508209155)
(-0.07309672582621192 -0.008124863558885642 0.06001509610136463)
(-0.0532860833987516 0.002071939746321204 0.05950890461190341)
(-0.030907572571205 -0.03501929863297019 0.08055043865363702)
(-0.06059311269503862 -0.03763191056585447 0.09813196701779055)
(-0.05587335545255003 -0.01001547869320451 0.06551777952551105)
(-0.1576525141186825 0.0287053551064058 -0.01767637711306495)
(-0.1517602710239993 0.03429935700202841 -0.1119764812218609)
(-0.1599704867600545 -0.0699349594048326 -0.06265535879521994)
(-0.1671068764798667 -0.05307968711923807 0.09150152145188052)
(-0.1810073961359142 -0.03828212977084978 0.1402859625715309)
(-0.1970525761763892 -0.08640605507758238 0.1251604463179537)
(-0.189130859336472 -0.02015804060528137 0.1129823899283856)
(-0.1484044397402115 -0.0155376554757945 0.1262154826964993)
(-0.1078517965439832 -0.03463631341264402 0.1465650346136737)
(-0.08677725666772365 0.01870992017334718 -0.07299219127558146)
(-0.09754662569058768 0.04499302764848551 -0.05182225563410307)
(-0.09347244038769319 -0.0304855567437533 0.00317371280820137)
(-0.111364360987228 -0.04107426502454924 -0.06759172975054249)
(-0.1204313111583174 -0.03388789183436097 -0.04557461294950127)
(-0.164912460008127 0.02096542596205461 0.03481285487678776)
(-0.1857386930081696 0.02093139490952852 0.005372323466893234)
(-0.225198280907601 -0.01713368323966986 -0.1053635666080661)
(-0.2615130012678284 0.008553739493124712 -0.1245353583588667)
(-0.3184714794176112 -0.02533394272993677 -0.1409290392329806)
(-0.3051196451865394 -0.04376999305529489 -0.1398836202143336)
(-0.3263172276747101 -0.03627765336439877 -0.1462728489925405)
(-0.2571516697528133 -0.008840060412783676 -0.01483026274543948)
(-0.2591724809976048 0.004398283348073005 -0.08447366199361503)
(-0.2279423782390711 0.009238053278852819 -0.07359911424810822)
(-0.2540035437099598 0.05931166493227849 0.05462016383596517)
(-0.3227652812896006 0.1399550340404374 0.1270208561156851)
(-0.2933408186823792 0.0908287565563643 0.1583635786562221)
(-0.2137767071553416 0.006227707287125135 0.1287350598589267)
(-0.1555005431390112 -0.06453581679726254 0.1331985635333683)
(-0.1175388490469275 -0.07392513109415309 0.1450466789257614)
(-0.06169322426158955 -0.1286344648558303 0.07864965111636328)
(-0.1416517394456932 -0.08168132911801279 0.07906531026599387)
(-0.1900123097118956 -0.03603839261510023 -0.017326933363668)
(-0.2481998283768688 0.0008810704769669679 -0.06099472904752028)
(-0.3015134998933293 0.003047249135514488 0.02876494932936498)
(-0.2798576932410247 -0.01183573936871729 0.03933363253664134)
(-0.3252382177627261 -0.008729921311779326 0.03881830680132473)
(-0.3258270668089866 0.05247834987093405 0.04232532511305252)
(-0.2874523257180631 0.1129195351413186 -0.03531934293837778)
(-0.2460969608020647 0.1096183261746483 -0.1259562674289454)
(-0.2860660179530425 0.04543663332210467 -0.01690104364926405)
(-0.2747515013500806 -0.02420404161364168 -0.008942952136355136)
(-0.2890055390289599 -0.0116463328806313 -0.009704879181289859)
(-0.2841231240512116 0.02274518556968457 -0.03203632373412125)
(-0.2801261107466724 0.03256867480570831 -0.03037112537935733)
(-0.245945534955985 -0.003588855417504416 -0.007135010701286608)
(-0.2223352089202451 -0.04884531279696021 0.01309174775554562)
(-0.3279731951564931 -0.09721530080037261 0.03409517536555193)
(-0.2864180399192143 -0.00851415123390847 0.08322648448880415)
(-0.2778186601766002 0.05248916387025072 0.05066793457750932)
(-0.2253445459636018 0.03511056251318653 0.04452142931537802)
(-0.1350775474449241 0.0007150009123483409 0.05975503699202137)