/*--------------------------------*- C++ -*----------------------------------*\
| =========                 |                                                 |
| \\      /  F ield         | OpenFOAM: The Open Source CFD Toolbox           |
|  \\    /   O peration     | Version:  v1812                                 |
|   \\  /    A nd           | Web:      www.OpenFOAM.com                      |
|    \\/     M anipulation  |                                                 |
\*---------------------------------------------------------------------------*/
FoamFile
{
    version     2.0;
    format      ascii;
    class       volScalarField;
    location    "20000";
    object      nut;
}
// * * * * * * * * * * * * * * * * * * * * * * * * * * * * * * * * * * * * * //

dimensions      [0 2 -1 0 0 0 0];


internalField   nonuniform List<scalar> 
3770
(
0.000143871911433281
0.0001438719114327229
0.0001438719114317533
0.000143871911431923
0.0001438719114311887
0.0001438719114315277
0.0001438719114310998
0.0001438719114310528
0.0001438719114311247
0.0001438719114310178
0.0001438719114308174
0.0001438719114310399
0.0001438719114308732
0.0001438719114307484
0.0001438719114309484
0.0001438719114308342
0.0001438719114307004
0.0001438719114309229
0.0001438719114307951
0.0001438719114306784
0.0001438719114309005
0.0001438719114307813
0.0001438719114306593
0.0001438719114308865
0.000143871911430763
0.0001438719114306549
0.0001438719114308703
0.0001438719114307485
0.000143871911430631
0.0001438719114308683
0.0001438719114307522
0.0001438719114306617
0.0001438719114308752
0.0001438719114307814
0.0001438719114306393
0.0001438719114308687
0.0001438719114307314
0.0001438719114307211
0.0001438719114308716
0.0001438719114308461
0.0001438719114306345
0.0001438719114309614
0.0001438719114306835
0.0001438719114308123
0.000143871911430742
0.0001438719114309561
0.0001438719114305357
0.0001438719114311532
0.0001438719114305406
0.0001438719114310995
0.0001438719114305614
0.0001438719114313968
0.0001438719114304218
0.0001438719114316353
0.0001438719114304646
0.0001438719114319554
0.0001438719114304543
0.0001438719114320312
0.0002019600774367232
0.0002019600779580162
0.0002019600778024708
0.0002019600778197747
0.0002019600777326942
0.0002019600777693271
0.0002019600777561099
0.0002019600776908888
0.0002019600777110962
0.0002019600777175234
0.0002019600776603753
0.0002019600776914496
0.0002019600776967622
0.0002019600776463065
0.0002019600776776026
0.0002019600776873294
0.0002019600776390486
0.0002019600776739904
0.0002019600776837572
0.000201960077635691
0.0002019600776704962
0.0002019600776799095
0.0002019600776316633
0.0002019600776674037
0.0002019600776777488
0.0002019600776308176
0.0002019600776660634
0.0002019600776745851
0.000201960077625912
0.0002019600776630671
0.0002019600776745951
0.0002019600776322296
0.0002019600776674531
0.0002019600776798074
0.0002019600776278827
0.0002019600776684087
0.0002019600776759495
0.0002019600776405415
0.0002019600776702404
0.000201960077688954
0.000201960077624649
0.000201960077684766
0.0002019600776790033
0.0002019600776520191
0.0002019600776607306
0.0002019600777063869
0.0002019600776148855
0.0002019600777023749
0.0002019600776561642
0.0002019600776769686
0.0002019600776290373
0.0002019600777389283
0.0002019600776226654
0.0002019600777322755
0.0002019600776316023
0.0002019600777683815
0.000201960077606588
0.0002019600776094198
0.0007586449042068832
0.0007586449054914551
0.0007586449055543471
0.0007586449055660797
0.0007586449054803567
0.0007586449055769482
0.0007586449055962399
0.0007586449054288805
0.0007586449055285674
0.0007586449055615297
0.0007586449054125025
0.0007586449055125064
0.0007586449055373824
0.0007586449053891254
0.000758644905493595
0.0007586449055298382
0.0007586449053877684
0.0007586449054957393
0.0007586449055313383
0.0007586449053868226
0.0007586449054943381
0.0007586449055259929
0.0007586449053815337
0.0007586449054899636
0.000758644905526444
0.0007586449053834166
0.000758644905491272
0.0007586449055150062
0.0007586449053700015
0.0007586449054806435
0.0007586449055230104
0.0007586449053839667
0.0007586449054934477
0.000758644905529029
0.0007586449053827108
0.0007586449054946861
0.0007586449055281107
0.0007586449053928701
0.0007586449055000429
0.00075864490554342
0.0007586449053876564
0.0007586449055085554
0.0007586449055235621
0.0007586449053969223
0.0007586449054898649
0.00075864490555628
0.0007586449053868375
0.0007586449055261504
0.0007586449055195407
0.0007586449054175455
0.0007586449054774275
0.0007586449055615473
0.0007586449054803084
0.0007586449054882122
0.0007586449055220597
0.0007586449055808576
0.0007586449053750168
0.000758644905336901
0.001194892917983045
0.001194892919608297
0.00119489291987087
0.00119489291987352
0.001194892919780502
0.001194892919951354
0.001194892919990019
0.001194892919735504
0.001194892919911627
0.001194892919961183
0.001194892919731231
0.001194892919901361
0.00119489291993562
0.001194892919704206
0.00119489291988147
0.001194892919932207
0.001194892919709023
0.001194892919889358
0.001194892919938522
0.001194892919711107
0.001194892919890723
0.001194892919933224
0.001194892919705814
0.001194892919886231
0.001194892919936312
0.001194892919710135
0.001194892919889284
0.001194892919917384
0.001194892919689871
0.001194892919873289
0.001194892919933286
0.001194892919711969
0.001194892919894094
0.001194892919940241
0.001194892919711779
0.001194892919894903
0.001194892919942114
0.001194892919723319
0.001194892919905306
0.001194892919960099
0.001194892919722595
0.001194892919910676
0.001194892919934582
0.001194892919721407
0.001194892919893625
0.0011948929199695
0.001194892919727637
0.001194892919926646
0.001194892919941836
0.001194892919738454
0.001194892919892188
0.001194892919962625
0.001194892919898446
0.001194892919840365
0.001194892919968704
0.001194892919995078
0.001194892919710944
0.001194892919715646
0.001596229381090576
0.001596229382836127
0.001596229383355409
0.001596229383344515
0.001596229383252618
0.001596229383523188
0.001596229383584687
0.00159622938323006
0.001596229383504026
0.001596229383573874
0.001596229383247266
0.001596229383507744
0.001596229383550553
0.001596229383219855
0.001596229383490016
0.00159622938355637
0.001596229383235276
0.00159622938350734
0.001596229383570033
0.001596229383242744
0.001596229383513741
0.001596229383566669
0.001596229383238946
0.001596229383510352
0.001596229383573972
0.001596229383247238
0.001596229383516004
0.001596229383545238
0.00159622938321821
0.001596229383493672
0.001596229383572604
0.001596229383251582
0.001596229383525181
0.001596229383580794
0.001596229383253036
0.001596229383525999
0.001596229383586588
0.001596229383266284
0.001596229383542318
0.001596229383608147
0.001596229383272177
0.001596229383544209
0.001596229383574306
0.001596229383256133
0.001596229383528481
0.001596229383612697
0.001596229383283823
0.001596229383557437
0.001596229383594758
0.001596229383270967
0.001596229383541258
0.001596229383597357
0.001596229383541937
0.001596229383414578
0.001596229383654179
0.001596229383663989
0.00159622938325902
0.001596229383357492
0.001976415137300057
0.001976415139027762
0.001976415139797785
0.001976415139775069
0.001976415139677674
0.00197641514006952
0.001976415140160038
0.001976415139691388
0.001976415140077883
0.001976415140174662
0.001976415139736018
0.001976415140101911
0.001976415140156796
0.00197641513971124
0.00197641514008897
0.001976415140175532
0.001976415139740647
0.001976415140118603
0.001976415140198731
0.001976415139755719
0.001976415140132212
0.001976415140199453
0.001976415139755137
0.001976415140131359
0.001976415140212516
0.001976415139768878
0.001976415140140622
0.001976415140172152
0.001976415139729449
0.001976415140111067
0.001976415140214074
0.001976415139777189
0.001976415140156042
0.001976415140224222
0.001976415139780717
0.001976415140157201
0.001976415140234688
0.001976415139796336
0.001976415140180229
0.001976415140261275
0.001976415139810581
0.001976415140179454
0.001976415140216719
0.001976415139776651
0.001976415140163381
0.001976415140259836
0.001976415139828697
0.001976415140189604
0.001976415140251348
0.001976415139791036
0.001976415140192211
0.001976415140239995
0.001976415140181483
0.0019764151399854
0.001976415140347695
0.001976415140358871
0.001976415139800727
0.001976415140007021
0.002345704071095724
0.002345704072695388
0.00234570407367899
0.002345704073645885
0.002345704073535917
0.002345704074068021
0.00234570407419625
0.002345704073600303
0.002345704074109569
0.002345704074241059
0.00234570407367643
0.00234570407415928
0.002345704074232259
0.002345704073657691
0.002345704074153895
0.00234570407426689
0.002345704073703865
0.002345704074198117
0.002345704074301627
0.002345704073728754
0.002345704074221091
0.002345704074309073
0.002345704073733616
0.002345704074224707
0.002345704074329559
0.002345704073754394
0.002345704074238792
0.002345704074276094
0.002345704073703163
0.002345704074201426
0.002345704074335745
0.002345704073768428
0.002345704074262706
0.002345704074348896
0.002345704073774583
0.00234570407426459
0.002345704074364573
0.002345704073793194
0.002345704074294856
0.002345704074397735
0.002345704073817661
0.002345704074293002
0.00234570407434047
0.002345704073763206
0.00234570407427428
0.002345704074389005
0.002345704073841483
0.002345704074299467
0.002345704074389466
0.002345704073778787
0.002345704074320555
0.002345704074369278
0.00234570407430331
0.002345704074038921
0.002345704074526232
0.00234570407455769
0.002345704073821071
0.002345704074131318
0.002712972198559975
0.002712972199939245
0.002712972201081951
0.002712972201039109
0.00271297220090822
0.002712972201597033
0.002712972201774603
0.002712972201038085
0.002712972201676884
0.002712972201851972
0.002712972201147839
0.002712972201756358
0.002712972201856232
0.002712972201139045
0.002712972201761748
0.002712972201909092
0.002712972201204247
0.002712972201822219
0.00271297220195694
0.00271297220124099
0.002712972201856529
0.00271297220197412
0.002712972201254086
0.002712972201867129
0.002712972202003882
0.002712972201283633
0.002712972201887457
0.002712972201936253
0.002712972201219482
0.002712972201842018
0.002712972202017176
0.002712972201305637
0.002712972201922758
0.002712972202034895
0.002712972201315227
0.002712972201925786
0.002712972202056083
0.00271297220133741
0.002712972201963597
0.002712972202097163
0.002712972201374001
0.002712972201962915
0.002712972202025901
0.002712972201296919
0.002712972201938892
0.002712972202079798
0.00271297220140219
0.002712972201964559
0.002712972202088417
0.002712972201315042
0.002712972202003541
0.002712972202065747
0.002712972201989579
0.002712972201657941
0.002712972202268905
0.002712972202341395
0.002712972201406004
0.002712972201803869
0.003088920236374785
0.003088920237447045
0.003088920238683778
0.003088920238633872
0.00308892023847157
0.003088920239332033
0.003088920239574
0.003088920238681828
0.003088920239454907
0.003088920239684679
0.003088920238825905
0.003088920239567072
0.003088920239706735
0.003088920238831713
0.003088920239587227
0.003088920239779625
0.003088920238917839
0.003088920239665211
0.003088920239841805
0.003088920238968343
0.003088920239712569
0.003088920239871826
0.003088920238993043
0.00308892023973341
0.003088920239913087
0.003088920239033404
0.003088920239761749
0.003088920239830752
0.003088920238955434
0.003088920239708186
0.003088920239937263
0.003088920239066457
0.003088920239812462
0.003088920239962053
0.003088920239080846
0.003088920239817181
0.003088920239988846
0.003088920239107101
0.003088920239862588
0.003088920240038448
0.003088920239157584
0.003088920239865864
0.003088920239953038
0.003088920239056425
0.003088920239833833
0.003088920240011307
0.003088920239188356
0.00308892023986094
0.003088920240026943
0.003088920239077993
0.003088920239917386
0.003088920240009908
0.003088920239921054
0.003088920239523569
0.003088920240254737
0.003088920240392874
0.003088920239240322
0.00308892023970025
0.003487904839390748
0.003487904840066778
0.003487904841315378
0.003487904841270701
0.003487904841060715
0.003487904842107415
0.003487904842433448
0.003487904841366361
0.003487904842277393
0.003487904842578016
0.003487904841545029
0.003487904842424042
0.003487904842623484
0.003487904841571314
0.003487904842464661
0.003487904842718247
0.003487904841680392
0.003487904842561752
0.003487904842795822
0.003487904841746547
0.003487904842623658
0.003487904842841308
0.003487904841786594
0.003487904842658693
0.003487904842897052
0.003487904841840444
0.003487904842697263
0.003487904842800239
0.003487904841748157
0.003487904842635631
0.003487904842937896
0.003487904841889189
0.003487904842769439
0.003487904842974112
0.003487904841910736
0.003487904842776618
0.003487904843006277
0.003487904841941538
0.003487904842829696
0.003487904843063709
0.003487904842007161
0.003487904842839574
0.003487904842965433
0.003487904841881492
0.003487904842797678
0.003487904843026533
0.003487904842038717
0.003487904842825967
0.003487904843046833
0.003487904841906747
0.003487904842900002
0.003487904843046459
0.003487904842942212
0.003487904842479976
0.003487904843325695
0.003487904843562335
0.003487904842173471
0.003487904842661221
0.003928027144136648
0.003928027144327223
0.003928027145446765
0.003928027145451141
0.003928027145174631
0.003928027146417233
0.003928027146853572
0.003928027145586185
0.003928027146636031
0.003928027147033711
0.003928027145800551
0.003928027146817729
0.00392802714710873
0.003928027145854788
0.00392802714688731
0.003928027147228249
0.00392802714598958
0.003928027147006932
0.003928027147322963
0.0039280271460737
0.003928027147084756
0.00392802714738496
0.003928027146132767
0.003928027147138456
0.003928027147459442
0.003928027146203798
0.003928027147189812
0.003928027147349634
0.003928027146097489
0.003928027147120524
0.003928027147525374
0.003928027146275417
0.003928027147292945
0.003928027147581065
0.003928027146308318
0.003928027147304098
0.003928027147617552
0.003928027146344079
0.003928027147365112
0.003928027147680217
0.003928027146424885
0.003928027147382652
0.00392802714757173
0.003928027146275881
0.003928027147331554
0.003928027147634948
0.003928027146456159
0.003928027147359113
0.003928027147654179
0.00392802714630415
0.003928027147451103
0.003928027147686726
0.00392802714756486
0.003928027147038582
0.003928027147987333
0.003928027148370076
0.003928027146725932
0.00392802714719718
0.004428892428872064
0.004428892428593525
0.004428892429368057
0.00442889242940277
0.004428892429046901
0.004428892430459918
0.004428892431042393
0.004428892429543451
0.004428892430723985
0.004428892431261285
0.004428892429796258
0.004428892430938924
0.004428892431368932
0.004428892429886729
0.004428892431049708
0.00442889243151945
0.004428892430052093
0.0044288924312007
0.004428892431636117
0.004428892430157682
0.004428892431294489
0.00442889243171258
0.004428892430238215
0.004428892431372155
0.004428892431811228
0.004428892430331383
0.004428892431438086
0.004428892431691806
0.004428892430213251
0.004428892431363395
0.004428892431912933
0.004428892430436478
0.00442889243158681
0.004428892432003617
0.004428892430488371
0.004428892431605849
0.004428892432041491
0.004428892430529198
0.004428892431675246
0.004428892432104452
0.004428892430623158
0.004428892431696299
0.004428892431988537
0.004428892430454342
0.004428892431643441
0.004428892432057449
0.004428892430655265
0.004428892431666113
0.004428892432062078
0.004428892430483678
0.00442889243177456
0.004428892432152593
0.004428892432010806
0.004428892431426056
0.004428892432452908
0.004428892433049383
0.004428892431136817
0.00442889243153504
0.005006936937884897
0.005006936937361102
0.005006936937744781
0.005006936937673149
0.00500693693727865
0.005006936938770494
0.005006936939547445
0.005006936937786945
0.005006936939059893
0.005006936939807207
0.005006936938081734
0.005006936939301107
0.005006936939942629
0.005006936938215311
0.005006936939470353
0.005006936940137396
0.005006936938420391
0.005006936939671846
0.005006936940289464
0.005006936938553565
0.005006936939778934
0.005006936940370852
0.005006936938654675
0.005006936939886274
0.005006936940502443
0.005006936938776524
0.005006936939966026
0.005006936940377338
0.005006936938651612
0.005006936939892974
0.005006936940649539
0.005006936938928746
0.005006936940183704
0.005006936940802337
0.005006936939012613
0.005006936940218284
0.005006936940836548
0.005006936939058224
0.005006936940293818
0.005006936940891648
0.005006936939160076
0.005006936940300018
0.005006936940763391
0.005006936938977066
0.00500693694026966
0.005006936940857644
0.005006936939198581
0.005006936940281173
0.005006936940819404
0.005006936939004952
0.005006936940401685
0.005006936941004844
0.005006936940822036
0.005006936940214539
0.005006936941263137
0.005006936942171777
0.00500693693999698
0.005006936940264225
0.005669526039244855
0.005669526038894484
0.005669526038769836
0.005669526038285729
0.005669526038066239
0.005669526039483092
0.005669526040515062
0.005669526038486441
0.005669526039749124
0.005669526040817554
0.005669526038826686
0.005669526039997974
0.005669526040957012
0.005669526039004429
0.005669526040245128
0.005669526041220903
0.005669526039265143
0.005669526040529218
0.005669526041447003
0.005669526039438462
0.005669526040646231
0.005669526041508867
0.005669526039552289
0.005669526040785498
0.005669526041686706
0.005669526039710553
0.005669526040878088
0.005669526041551056
0.005669526039586177
0.005669526040825167
0.005669526041877519
0.005669526039922853
0.005669526041202063
0.005669526042135873
0.005669526040058539
0.005669526041260763
0.005669526042161365
0.005669526040108623
0.005669526041331072
0.005669526042199177
0.005669526040210329
0.005669526041285814
0.005669526042029262
0.005669526040018197
0.005669526041326332
0.00566952604220004
0.005669526040277813
0.005669526041327674
0.005669526042069242
0.005669526040043727
0.005669526041447135
0.005669526042397873
0.005669526042066894
0.005669526041531288
0.005669526042527307
0.00566952604390454
0.005669526041505563
0.005669526041621453
0.006410397773739547
0.006410397773546663
0.006410397773551927
0.006410397772680718
0.00641039777252949
0.006410397773563373
0.006410397774895337
0.006410397772663139
0.006410397773704295
0.00641039777524781
0.006410397773064258
0.00641039777393521
0.006410397775329824
0.006410397773275909
0.006410397774277209
0.006410397775707789
0.006410397773604336
0.006410397774643125
0.006410397776107303
0.006410397773853526
0.006410397774809449
0.006410397776086592
0.00641039777395273
0.006410397774945496
0.006410397776348361
0.006410397774157782
0.00641039777508855
0.006410397776164504
0.006410397774040937
0.006410397775086478
0.006410397776549679
0.006410397774435973
0.006410397775566936
0.006410397776979127
0.006410397774648964
0.006410397775637868
0.006410397776998943
0.00641039777470516
0.006410397775672315
0.006410397777006518
0.006410397774797353
0.006410397775534833
0.006410397776701745
0.006410397774596194
0.006410397775706653
0.006410397777077761
0.006410397774919568
0.006410397775750126
0.006410397776761819
0.006410397774624479
0.006410397775827333
0.00641039777729788
0.006410397776409281
0.006410397776157243
0.00641039777711506
0.006410397779223874
0.006410397776647443
0.006410397776683834
0.007209100500948401
0.007209100500848907
0.007209100500560423
0.007209100499308177
0.00720910049945709
0.007209100501126474
0.007209100502080333
0.007209100499921996
0.007209100500831959
0.007209100502543174
0.007209100500399445
0.007209100501008331
0.007209100502478207
0.007209100500629207
0.007209100501470174
0.007209100503040126
0.007209100501038347
0.007209100501701431
0.007209100503866616
0.007209100501404855
0.007209100502182974
0.007209100503573053
0.007209100501450928
0.007209100502084819
0.00720910050406446
0.007209100501720594
0.007209100502483915
0.007209100503684308
0.007209100501612929
0.007209100502555299
0.007209100504164201
0.007209100502054946
0.007209100503189002
0.007209100504825684
0.007209100502363892
0.007209100503147207
0.007209100504896288
0.007209100502436634
0.007209100503067458
0.007209100504853312
0.007209100502513768
0.007209100502854568
0.007209100504137997
0.007209100502299818
0.007209100503168352
0.007209100505046671
0.007209100502683257
0.007209100503480528
0.007209100504373836
0.00720910050234646
0.007209100503441798
0.007209100505181566
0.00720910050352359
0.007209100503444323
0.007209100504752033
0.007209100507651113
0.007209100504808167
0.007209100504887427
0.008035181967897412
0.008035181968105971
0.008035181968026793
0.008035181966375064
0.008035181966220028
0.00803518196818202
0.00803518196891068
0.008035181967003764
0.008035181967711774
0.008035181969571242
0.008035181967536609
0.008035181967873074
0.008035181969492541
0.008035181967798302
0.008035181968274008
0.008035181970015645
0.00803518196832847
0.008035181968576303
0.008035181971533741
0.008035181968772429
0.008035181969460235
0.008035181970911078
0.008035181968784487
0.00803518196917709
0.00803518197165367
0.008035181969127997
0.008035181969383203
0.008035181970971377
0.008035181969042772
0.008035181969643972
0.008035181971522464
0.008035181969503891
0.00803518197045946
0.00803518197248672
0.008035181969891817
0.008035181970455009
0.008035181972627984
0.008035181970002813
0.008035181970656327
0.008035181972422516
0.008035181970073415
0.00803518197014101
0.00803518197166378
0.008035181969900456
0.008035181970831352
0.008035181972801413
0.008035181970155262
0.008035181970918613
0.00803518197168273
0.00803518196996025
0.008035181970847141
0.008035181972961609
0.008035181970731151
0.008035181971274688
0.008035181972466172
0.00803518197585721
0.008035181972758805
0.008035181972972271
0.008855238382535421
0.008855238383319386
0.008855238383464761
0.008855238381528194
0.00885523838113929
0.008855238383074615
0.008855238383314569
0.008855238381673992
0.008855238382616428
0.008855238384787847
0.008855238382074995
0.008855238383044682
0.008855238384661401
0.008855238382387652
0.008855238383499772
0.008855238385161175
0.008855238383341292
0.008855238383200582
0.008855238387045506
0.008855238383526793
0.008855238384469534
0.008855238386067096
0.008855238383789975
0.008855238383660636
0.008855238387120845
0.008855238384199677
0.008855238383882824
0.008855238387013757
0.008855238384221217
0.008855238384036389
0.008855238387413729
0.008855238384655685
0.008855238384642691
0.00885523838803466
0.008855238385022874
0.008855238384824422
0.008855238388192953
0.008855238385188199
0.008855238384988426
0.008855238388195994
0.008855238385325419
0.00885523838492566
0.008855238388012257
0.008855238385273112
0.008855238385276973
0.008855238388390509
0.008855238385496764
0.00885523838525115
0.008855238388153146
0.008855238385398093
0.008855238385398511
0.008855238388811556
0.008855238385994016
0.00885523838572581
0.008855238389002675
0.008855238391532733
0.008855238388359615
0.008855238388774689
0.009639642770480074
0.009639642772023645
0.009639642772244642
0.009639642769712759
0.009639642770535592
0.00963964277171713
0.009639642771703557
0.00963964276914326
0.009639642770840916
0.009639642773064385
0.009639642770030014
0.009639642771333478
0.009639642773373824
0.009639642770440255
0.009639642771834841
0.009639642773883709
0.009639642771529195
0.009639642771043806
0.009639642775689525
0.009639642772107937
0.009639642771673887
0.009639642775525686
0.009639642772270949
0.009639642771604017
0.009639642776070375
0.009639642772670171
0.009639642771880749
0.009639642776182846
0.009639642772785841
0.009639642772039964
0.009639642776529248
0.009639642773193638
0.009639642772547759
0.009639642776990833
0.009639642773534978
0.009639642772777698
0.00963964277720469
0.009639642773755503
0.009639642772986649
0.009639642777336985
0.00963964277396295
0.009639642773128154
0.009639642777410549
0.00963964277401244
0.009639642773354884
0.009639642777584632
0.009639642774197659
0.009639642773382112
0.009639642777641833
0.009639642774224046
0.009639642773588203
0.009639642778016971
0.009639642774646616
0.009639642773885317
0.009639642777925762
0.009639642780296201
0.009639642777185342
0.009639642777819039
0.01036659692234075
0.01036659692413452
0.01036659692493739
0.01036659692223697
0.01036659692426085
0.01036659692381347
0.01036659692491674
0.01036659692118705
0.01036659692301222
0.01036659692567683
0.01036659692209606
0.0103665969236027
0.01036659692613737
0.01036659692257522
0.01036659692412148
0.01036659692666752
0.01036659692384276
0.01036659692289143
0.01036659692846644
0.01036659692453895
0.01036659692335672
0.01036659692862432
0.01036659692476355
0.01036659692358405
0.01036659692903892
0.0103665969251555
0.01036659692390035
0.01036659692924197
0.01036659692534055
0.0103665969240937
0.01036659692957222
0.01036659692572888
0.01036659692456714
0.01036659692997326
0.01036659692605968
0.01036659692481089
0.01036659693022862
0.01036659692632871
0.01036659692507031
0.01036659693044482
0.01036659692659398
0.01036659692531075
0.01036659693065339
0.01036659692672554
0.01036659692552303
0.01036659693079531
0.01036659692689771
0.01036659692559518
0.0103665969309503
0.01036659692700881
0.01036659692583299
0.01036659693121384
0.01036659692731872
0.01036659692609008
0.0103665969307917
0.01036659693279084
0.01036659692990268
0.01036659693066519
0.01102299491938647
0.01102299492138581
0.01102299492210057
0.01102299492011901
0.01102299492161696
0.01102299492000723
0.01102299492357688
0.01102299491848006
0.01102299492024924
0.0110229949233117
0.01102299491915361
0.01102299492082712
0.01102299492381246
0.01102299491966843
0.01102299492131347
0.01102299492435481
0.01102299492112628
0.01102299491972461
0.01102299492619284
0.01102299492185675
0.01102299492018915
0.01102299492647619
0.01102299492213055
0.01102299492049062
0.01102299492685203
0.01102299492251676
0.01102299492088916
0.01102299492708823
0.01102299492274821
0.01102299492107449
0.01102299492742349
0.01102299492312409
0.01102299492154491
0.01102299492781405
0.01102299492345865
0.01102299492184849
0.01102299492808242
0.01102299492376636
0.01102299492213017
0.01102299492835795
0.01102299492407739
0.011022994922387
0.01102299492866079
0.01102299492427665
0.01102299492261602
0.01102299492882568
0.01102299492444694
0.01102299492270764
0.01102299492900175
0.01102299492460504
0.01102299492298976
0.01102299492923613
0.01102299492485516
0.0110229949231669
0.0110229949288213
0.01102299492951924
0.01102299492724827
0.01102299492833707
0.01160301438655095
0.01160301438689598
0.01160301438767455
0.01160301438893336
0.01160301438549867
0.01160301438713635
0.01160301438965384
0.01160301438450149
0.01160301438639584
0.0116030143896988
0.01160301438497438
0.01160301438685972
0.01160301439017809
0.01160301438549901
0.01160301438722607
0.01160301439071842
0.01160301438712917
0.0116030143853725
0.01160301439260918
0.01160301438785817
0.01160301438581327
0.01160301439294214
0.011603014388161
0.01160301438618662
0.01160301439326822
0.0116030143885313
0.01160301438692141
0.01160301439346927
0.01160301438878759
0.0116030143868772
0.01160301439385274
0.01160301438915515
0.01160301438727417
0.01160301439427232
0.01160301438950708
0.0116030143879952
0.01160301439446965
0.0116030143898385
0.01160301438818203
0.01160301439480907
0.01160301439018945
0.01160301438824942
0.01160301439522447
0.01160301439044603
0.01160301438842116
0.01160301439544507
0.01160301439061507
0.01160301438851842
0.01160301439560147
0.01160301439078984
0.01160301438887405
0.01160301439584339
0.01160301439101388
0.01160301438892599
0.01160301439554238
0.01160301439345033
0.01160301439138171
0.01160301439600099
0.01210578808984389
0.01210578808825932
0.01210578809213306
0.01210578809316074
0.01210578808767981
0.01210578809012178
0.01210578809269799
0.0121057880871286
0.01210578808939158
0.01210578809269991
0.0121057880874509
0.01210578808959261
0.01210578809313607
0.01210578808796859
0.0121057880897749
0.01210578809365986
0.01210578808973773
0.01210578808777622
0.01210578809560088
0.01210578809044097
0.01210578808810956
0.01210578809595231
0.01210578809077147
0.01210578808888705
0.01210578809613587
0.0121057880910978
0.0121057880897071
0.01210578809634364
0.01210578809137697
0.01210578808958186
0.01210578809673704
0.0121057880917294
0.01210578808963279
0.01210578809724325
0.0121057880921065
0.01210578809085965
0.01210578809735139
0.01210578809245392
0.01210578809097915
0.01210578809773832
0.012105788092846
0.01210578809082866
0.01210578809826739
0.01210578809314912
0.01210578809086182
0.01210578809856619
0.01210578809330634
0.01210578809095848
0.01210578809867037
0.01210578809347256
0.01210578809141031
0.01210578809892915
0.01210578809368771
0.01210578809133424
0.01210578809878495
0.01210578809497671
0.01210578809273361
0.01210578809922052
0.01253319643715459
0.01253319643730343
0.01253319643772324
0.01253319644130478
0.0125331964356516
0.01253319643825935
0.01253319644091721
0.01253319643495642
0.01253319643755206
0.0125331964409163
0.01253319643519879
0.01253319643744789
0.01253319644131186
0.01253319643569021
0.01253319643758711
0.01253319644179193
0.0125331964375544
0.01253319643554532
0.0125331964437661
0.01253319643821216
0.01253319643566807
0.01253319644412408
0.01253319643857821
0.0125331964369636
0.01253319644412178
0.01253319643883492
0.01253319643758943
0.0125331964443766
0.01253319643913716
0.01253319643726412
0.01253319644480048
0.01253319643947754
0.01253319643713004
0.01253319644533682
0.01253319643987395
0.01253319643886128
0.01253319644537192
0.01253319644022539
0.01253319643867093
0.01253319644584944
0.01253319644067914
0.0125331964387401
0.01253319644641082
0.01253319644102216
0.01253319643856651
0.01253319644680796
0.01253319644113577
0.01253319643861873
0.01253319644683098
0.01253319644127588
0.01253319643911588
0.01253319644709568
0.01253319644148799
0.01253319643924455
0.01253319644696028
0.01253319644223563
0.0125331964397738
0.01253319644721544
0.01288826506763126
0.01288826507019691
0.0128882650683409
0.01288826507436581
0.01288826506904765
0.01288826506763885
0.01288826507477652
0.01288826506723164