/*--------------------------------*- C++ -*----------------------------------*\
| =========                 |                                                 |
| \\      /  F ield         | OpenFOAM: The Open Source CFD Toolbox           |
|  \\    /   O peration     | Version:  v1812                                 |
|   \\  /    A nd           | Web:      www.OpenFOAM.com                      |
|    \\/     M anipulation  |                                                 |
\*---------------------------------------------------------------------------*/
FoamFile
{
    version     2.0;
    format      ascii;
    class       volScalarField;
    location    "20000";
    object      nuTilda;
}
// * * * * * * * * * * * * * * * * * * * * * * * * * * * * * * * * * * * * * //

dimensions      [0 2 -1 0 0 0 0];


internalField   nonuniform List<scalar> 
3770
(
0.0004790684145924664
0.0004790684145918893
0.0004790684145908085
0.0004790684145910436
0.0004790684145902644
0.0004790684145906077
0.0004790684145901528
0.000479068414590094
0.0004790684145901705
0.0004790684145900647
0.0004790684145898522
0.0004790684145900872
0.0004790684145899071
0.0004790684145897755
0.00047906841458999
0.0004790684145898657
0.0004790684145897247
0.0004790684145899641
0.000479068414589825
0.0004790684145897012
0.0004790684145899364
0.0004790684145898112
0.0004790684145896793
0.0004790684145899274
0.0004790684145897936
0.0004790684145896739
0.0004790684145899087
0.0004790684145897751
0.0004790684145896479
0.0004790684145899048
0.0004790684145897778
0.0004790684145896803
0.0004790684145899082
0.0004790684145898106
0.0004790684145896583
0.0004790684145899003
0.0004790684145897505
0.0004790684145897428
0.0004790684145899076
0.0004790684145898815
0.000479068414589654
0.0004790684145900047
0.0004790684145897017
0.0004790684145898398
0.0004790684145897662
0.000479068414589998
0.0004790684145895483
0.0004790684145902132
0.0004790684145895512
0.0004790684145901493
0.0004790684145895724
0.000479068414590471
0.0004790684145894275
0.000479068414590736
0.0004790684145894808
0.0004790684145911055
0.0004790684145897658
0.0004790684145913846
0.0005366676038370201
0.0005366676043200233
0.0005366676041775239
0.0005366676041936218
0.000536667604111965
0.0005366676041455485
0.0005366676041335536
0.0005366676040729112
0.0005366676040914235
0.0005366676040973249
0.0005366676040444883
0.0005366676040731572
0.0005366676040780882
0.0005366676040313906
0.0005366676040604048
0.0005366676040692848
0.0005366676040245384
0.0005366676040568788
0.0005366676040658679
0.0005366676040214928
0.0005366676040537304
0.0005366676040625011
0.0005366676040178929
0.0005366676040509865
0.0005366676040605493
0.000536667604017098
0.0005366676040497254
0.0005366676040575675
0.000536667604012551
0.0005366676040469039
0.0005366676040575415
0.0005366676040182515
0.0005366676040509295
0.0005366676040623762
0.0005366676040142667
0.000536667604051856
0.0005366676040586691
0.0005366676040260423
0.0005366676040535546
0.0005366676040709955
0.00053666760401146
0.0005366676040670904
0.0005366676040616527
0.000536667604036615
0.0005366676040446604
0.0005366676040869568
0.0005366676040023194
0.0005366676040833232
0.0005366676040403401
0.0005366676040597077
0.0005366676040153869
0.0005366676041171183
0.0005366676040095677
0.0005366676041110838
0.0005366676040181915
0.0005366676041449063
0.000536667603994004
0.0005366676039959844
0.0009709510670364674
0.0009709510680294971
0.0009709510680794229
0.0009709510680883963
0.0009709510680215738
0.0009709510680959567
0.0009709510681112846
0.0009709510679815814
0.0009709510680583404
0.0009709510680834592
0.0009709510679683439
0.0009709510680456444
0.0009709510680649309
0.0009709510679503674
0.0009709510680310925
0.0009709510680587928
0.0009709510679489408
0.0009709510680323611
0.0009709510680598714
0.0009709510679483284
0.0009709510680314907
0.0009709510680560105
0.0009709510679443875
0.0009709510680281861
0.0009709510680563588
0.0009709510679458188
0.0009709510680292071
0.0009709510680476007
0.0009709510679355376
0.0009709510680209961
0.0009709510680536985
0.0009709510679462632
0.0009709510680309025
0.0009709510680583873
0.0009709510679452914
0.000970951068031817
0.000970951068057568
0.0009709510679531195
0.0009709510680359518
0.000970951068069673
0.0009709510679492829
0.0009709510680427492
0.0009709510680542401
0.0009709510679562658
0.0009709510680279867
0.0009709510680792874
0.0009709510679484013
0.0009709510680560888
0.0009709510680509724
0.0009709510679721811
0.0009709510680185187
0.0009709510680835555
0.0009709510680207295
0.0009709510680268896
0.0009709510680532004
0.0009709510680984988
0.0009709510679396212
0.0009709510679100664
0.001326137038864887
0.001326137040255827
0.001326137040482337
0.001326137040483866
0.001326137040403678
0.001326137040549827
0.001326137040583414
0.00132613704036526
0.001326137040515685
0.001326137040557706
0.001326137040360959
0.001326137040506579
0.001326137040535963
0.001326137040337936
0.001326137040489608
0.00132613704053271
0.001326137040341682
0.001326137040495959
0.001326137040538025
0.001326137040343558
0.001326137040497334
0.001326137040533765
0.001326137040339189
0.001326137040493562
0.001326137040536401
0.001326137040342876
0.001326137040496197
0.001326137040520299
0.001326137040325625
0.001326137040482535
0.00132613704053383
0.001326137040344478
0.001326137040500344
0.001326137040539828
0.001326137040344323
0.00132613704050099
0.001326137040541327
0.001326137040354154
0.001326137040509878
0.001326137040556961
0.001326137040353729
0.0013261370405147
0.001326137040535059
0.001326137040352546
0.001326137040499795
0.001326137040564671
0.001326137040357778
0.001326137040528087
0.001326137040541115
0.001326137040367101
0.001326137040498706
0.001326137040559016
0.001326137040504063
0.001326137040454397
0.001326137040564328
0.001326137040586726
0.001326137040343556
0.001326137040347607
0.001682136247653575
0.001682136249248708
0.001682136249726416
0.001682136249714802
0.001682136249629267
0.001682136249876982
0.001682136249933714
0.001682136249609356
0.001682136249859434
0.001682136249922896
0.001682136249624452
0.001682136249862511
0.001682136249901689
0.001682136249599498
0.001682136249846358
0.001682136249906701
0.001682136249613257
0.001682136249861824
0.001682136249919094
0.001682136249620142
0.00168213624986783
0.001682136249916268
0.00168213624961683
0.001682136249864815
0.001682136249922941
0.001682136249624405
0.001682136249870007
0.001682136249896766
0.001682136249597954
0.001682136249849639
0.00168213624992172
0.001682136249628404
0.001682136249878428
0.001682136249929253
0.001682136249629746
0.001682136249879143
0.001682136249934451
0.001682136249641802
0.001682136249894025
0.001682136249954349
0.001682136249647366
0.001682136249895969
0.001682136249923386
0.001682136249632562
0.001682136249881316
0.001682136249958204
0.001682136249657756
0.001682136249907789
0.001682136249941931
0.001682136249646076
0.001682136249893104
0.001682136249944419
0.001682136249893764
0.001682136249777406
0.00168213624999644
0.001682136250005282
0.001682136249635185
0.00168213624972517
0.00203636997131226
0.002036369972947826
0.00203636997367971
0.002036369973656278
0.002036369973562744
0.002036369973934507
0.002036369974020744
0.002036369973576837
0.002036369973942494
0.002036369974033777
0.002036369973618503
0.002036369973964931
0.002036369974016944
0.002036369973595131
0.002036369973952722
0.002036369974034419
0.002036369973622687
0.002036369973980457
0.002036369974056277
0.002036369973636981
0.002036369973993442
0.002036369974057179
0.002036369973636585
0.002036369973992726
0.002036369974069546
0.002036369973649593
0.002036369974001524
0.002036369974031406
0.002036369973612325
0.002036369973973586
0.002036369974071058
0.002036369973657485
0.00203636997401616
0.002036369974080722
0.002036369973660849
0.002036369974017239
0.002036369974090543
0.002036369973675583
0.00203636997403899
0.002036369974115854
0.002036369973689221
0.002036369974038461
0.002036369974073676
0.002036369973656993
0.002036369974023005
0.002036369974114233
0.002036369973706143
0.00203636997404782
0.002036369974106315
0.00203636997367056
0.00203636997405038
0.002036369974095686
0.002036369974040287
0.002036369973854661
0.002036369974197732
0.002036369974208244
0.002036369973679802
0.002036369973875081
0.002389733292516504
0.002389733294060642
0.00238973329501262
0.002389733294978838
0.002389733294871672
0.002389733295386228
0.002389733295510549
0.002389733294935057
0.002389733295426501
0.002389733295553128
0.002389733295008016
0.002389733295474197
0.002389733295544707
0.002389733294990005
0.002389733295469039
0.002389733295577909
0.00238973329503434
0.002389733295511452
0.002389733295611328
0.002389733295058363
0.002389733295533682
0.002389733295618699
0.002389733295063202
0.00238973329553727
0.002389733295638475
0.002389733295083261
0.0023897332955509
0.002389733295586934
0.002389733295033854
0.002389733295514865
0.002389733295644498
0.002389733295096833
0.002389733295574028
0.00238973329565726
0.002389733295102809
0.002389733295575839
0.002389733295672318
0.002389733295120723
0.00238973329560499
0.002389733295704407
0.002389733295144461
0.002389733295603394
0.002389733295649188
0.002389733295091829
0.002389733295585125
0.002389733295695769
0.002389733295167253
0.002389733295609398
0.002389733295696332
0.002389733295106806
0.002389733295629848
0.002389733295676969
0.002389733295613278
0.002389733295358023
0.002389733295828561
0.002389733295858913
0.002389733295147719
0.002389733295447203
0.002746516204947952
0.002746516206294639
0.002746516207412602
0.002746516207369145
0.002746516207240509
0.002746516207914021
0.002746516208087922
0.002746516207368553
0.002746516207992232
0.002746516208162932
0.002746516207475266
0.002746516208069566
0.00274651620816717
0.002746516207466757
0.002746516208074875
0.002746516208218585
0.002746516207530223
0.002746516208133684
0.002746516208265184
0.002746516207566074
0.002746516208167198
0.0027465162082821
0.002746516207578994
0.002746516208177647
0.00274651620831116
0.002746516207607845
0.002746516208197534
0.002746516208245205
0.002746516207545249
0.002746516208153189
0.002746516208324213
0.002746516207629362
0.002746516208232053
0.002746516208341596
0.002746516207638773
0.00274651620823501
0.00274651620836222
0.002746516207660383
0.002746516208271857
0.002746516208402344
0.002746516207696194
0.002746516208271366
0.002746516208332881
0.00274651620762091
0.002746516208247761
0.002746516208385227
0.002746516207723544
0.002746516208272749
0.002746516208393759
0.002746516207638527
0.002746516208310912
0.002746516208371754
0.002746516208297362
0.002746516207973454
0.002746516208570196
0.002746516208641026
0.002746516207727467
0.002746516208115973
0.00311509653583813
0.003115096536892549
0.003115096538110878
0.003115096538060422
0.003115096537899952
0.003115096538747131
0.003115096538985567
0.003115096538107917
0.003115096538868265
0.003115096539094035
0.003115096538249248
0.003115096538978337
0.003115096539115814
0.003115096538255043
0.003115096538998219
0.003115096539187326
0.003115096538339579
0.003115096539074719
0.003115096539248357
0.003115096538389206
0.003115096539121275
0.003115096539277969
0.003115096538413607
0.003115096539141865
0.003115096539318552
0.003115096538453304
0.00311509653916978
0.003115096539237673
0.003115096538376669
0.003115096539117109
0.003115096539342424
0.003115096538485858
0.003115096539219715
0.003115096539366904
0.003115096538500069
0.00311509653922436
0.003115096539393198
0.003115096538525842
0.003115096539268948
0.003115096539441929
0.00311509653857553
0.003115096539272311
0.003115096539358105
0.003115096538476072
0.003115096539240717
0.003115096539415131
0.003115096538605655
0.003115096539267267
0.00311509653943061
0.003115096538497189
0.003115096539322889
0.003115096539413996
0.003115096539326579
0.003115096538935517
0.003115096539654828
0.003115096539790813
0.003115096538656992
0.003115096539109355
0.003508591121051388
0.003508591121719244
0.003508591122955028
0.003508591122909811
0.003508591122701376
0.003508591123736609
0.003508591124059194
0.003508591123004439
0.003508591123904884
0.003508591124201834
0.003508591123180742
0.003508591124049589
0.003508591124246856
0.003508591123206804
0.003508591124089815
0.003508591124340361
0.003508591123314461
0.003508591124185615
0.003508591124416907
0.003508591123379787
0.003508591124246759
0.003508591124461881
0.003508591123419436
0.003508591124281452
0.003508591124516982
0.003508591123472659
0.003508591124319616
0.003508591124421428
0.003508591123381517
0.003508591124258699
0.003508591124557457
0.003508591123520895
0.003508591124391016
0.003508591124593374
0.003508591123542262
0.003508591124398117
0.003508591124625104
0.003508591123572657
0.003508591124450512
0.003508591124681756
0.0035085911236375
0.003508591124460365
0.00350859112458485
0.003508591123513385
0.003508591124418939
0.003508591124644976
0.003508591123668587
0.003508591124446753
0.003508591124665102
0.003508591123538234
0.003508591124520028
0.003508591124664884
0.003508591124561836
0.003508591124104852
0.003508591124940836
0.003508591125174914
0.003508591123802028
0.003508591124284065
0.003944423224738095
0.003944423224926869
0.003944423226038315
0.003944423226042045
0.00394442322576711
0.003944423226999841
0.003944423227432831
0.003944423226175863
0.003944423227217084
0.003944423227611378
0.003944423226388273
0.003944423227397055
0.003944423227685828
0.003944423226442136
0.003944423227466161
0.003944423227804248
0.003944423226575691
0.003944423227584701
0.003944423227898074
0.003944423226659053
0.003944423227661831
0.003944423227959507
0.003944423226717651
0.003944423227715113
0.003944423228033385
0.003944423226788098
0.003944423227766082
0.003944423227924646
0.003944423226682759
0.003944423227697357
0.003944423228098869
0.003944423226859196
0.003944423227868438
0.00394442322815426
0.003944423226891912
0.003944423227879514
0.003944423228190374
0.003944423226927327
0.003944423227939969
0.00394442322825238
0.003944423227007406
0.003944423227957384
0.003944423228145024
0.003944423226859764
0.003944423227906772
0.003944423228207515
0.003944423227038369
0.003944423227933936
0.003944423228226587
0.003944423226887675
0.003944423228025253
0.003944423228259029
0.003944423228138176
0.003944423227616104
0.003944423228557052
0.003944423228936885
0.003944423227306224
0.003944423227773528
0.004441838054885935
0.004441838054609115
0.004441838055379897
0.004441838055413784
0.004441838055059368
0.004441838056464358
0.004441838057043678
0.004441838055553426
0.00444183805672714
0.004441838057261303
0.004441838055804673
0.004441838056940628
0.004441838057368291
0.004441838055894662
0.004441838057050874
0.004441838057517893
0.004441838056058983
0.004441838057200995
0.004441838057633838
0.004441838056163909
0.004441838057294163
0.004441838057709752
0.004441838056243943
0.00444183805737138
0.004441838057807828
0.004441838056336568
0.004441838057436941
0.004441838057689281
0.004441838056219239
0.004441838057362686
0.004441838057908995
0.004441838056441124
0.004441838057584876
0.004441838057999369
0.004441838056492824
0.00444183805760385
0.004441838058036937
0.00444183805653336
0.004441838057672793
0.004441838058099383
0.004441838056626681
0.004441838057693649
0.004441838057984349
0.004441838056458999
0.004441838057641272
0.004441838058052743
0.0044418380566586
0.004441838057663634
0.004441838058057272
0.004441838056488033
0.004441838057771485
0.004441838058147435
0.004441838058006503
0.004441838057425006
0.004441838058445862
0.004441838059039116
0.004441838057137645
0.004441838057533566
0.005017093148876254
0.005017093148355052
0.005017093148737634
0.005017093148664928
0.005017093148271688
0.00501709314975785
0.005017093150531922
0.005017093148778544
0.005017093150046351
0.005017093150790692
0.00501709314907212
0.005017093150286453
0.005017093150925445
0.005017093149205158
0.005017093150455103
0.005017093151119465
0.005017093149409384
0.005017093150655898
0.005017093151270987
0.005017093149541998
0.005017093150762439
0.005017093151351906
0.00501709314964263
0.00501709315086935
0.005017093151482958
0.005017093149763983
0.005017093150948758
0.005017093151358516
0.005017093149639701
0.005017093150876036
0.005017093151629425
0.00501709314991564
0.005017093151165613
0.005017093151781881
0.005017093149999303
0.005017093151200151
0.005017093151815865
0.005017093150044671
0.005017093151275309
0.005017093151870607
0.005017093150146005
0.00501709315128129
0.005017093151742979
0.005017093149963877
0.005017093151251358
0.005017093151836874
0.005017093150184398
0.005017093151262675
0.00501709315179864
0.005017093149991526
0.005017093151382643
0.005017093151983507
0.005017093151801534
0.005017093151196314
0.005017093152240617
0.005017093153145746
0.005017093150979723
0.005017093151246039
0.005677462011292889
0.005677462010944663
0.005677462010820116
0.005677462010335126
0.005677462010116592
0.005677462011529887
0.005677462012559181
0.00567746201053629
0.005677462011795449
0.005677462012860934
0.005677462010875619
0.005677462012043539
0.005677462012999825
0.005677462011052825
0.005677462012290056
0.005677462013263098
0.005677462011312847
0.005677462012573532
0.005677462013488793
0.005677462011485712
0.005677462012690092
0.00567746201355031
0.005677462011599125
0.005677462012828992
0.005677462013727645
0.005677462011756934
0.005677462012921312
0.00567746201359245
0.005677462011633017
0.005677462012868612
0.00567746201391778
0.005677462011968649
0.005677462013244408
0.005677462014175703
0.005677462012104111
0.005677462013303067
0.005677462014201076
0.005677462012154002
0.005677462013373065
0.005677462014238672
0.005677462012255322
0.005677462013327655
0.005677462014069165
0.005677462012063819
0.005677462013368441
0.005677462014239677
0.005677462012322739
0.005677462013369753
0.005677462014109055
0.005677462012089186
0.005677462013488698
0.005677462014436896
0.005677462014107117
0.005677462013572734
0.005677462014565822
0.005677462015939334
0.005677462013546895
0.005677462013662713
0.006416613379314417
0.00641661337912254
0.006416613379128472
0.006416613378257953
0.006416613378106595
0.006416613379138326
0.006416613380467351
0.006416613378239695
0.006416613379278926
0.006416613380819346
0.006416613378640146
0.006416613379509386
0.006416613380901035
0.006416613378851321
0.006416613379850755
0.006416613381278438
0.006416613379179171
0.006416613380215964
0.006416613381677632
0.006416613379427998
0.006416613380382062
0.006416613381656661
0.006416613379526839
0.006416613380517728
0.006416613381918038
0.006416613379731497
0.006416613380660698
0.006416613381734431
0.006416613379614937
0.006416613380658682
0.006416613382118708
0.006416613380009096
0.006416613381138174
0.006416613382547526
0.006416613380221829
0.006416613381208963
0.006416613382567382
0.006416613380277885
0.006416613381243156
0.006416613382574848
0.006416613380369815
0.006416613381105735
0.006416613382270295
0.006416613380169058
0.006416613381277515
0.00641661338264608
0.006416613380491963
0.006416613381321165
0.00641661338233056
0.006416613380197253
0.006416613381397952
0.006416613382865575
0.00641661338197898
0.006416613381727143
0.006416613382682803
0.006416613384787841
0.006416613382215727
0.00641661338225202
0.007214019369918811
0.007214019369819621
0.00721401936953038
0.007214019368280325
0.007214019368428532
0.007214019370097836
0.007214019371047986
0.007214019368893277
0.007214019369802387
0.007214019371510685
0.007214019369370266
0.007214019369978477
0.007214019371445919
0.007214019369599659
0.007214019370439766
0.007214019372007216
0.007214019370008241
0.007214019370669867
0.007214019372833301
0.007214019370374471
0.007214019371151909
0.007214019372539419
0.007214019370420222
0.007214019371052877
0.007214019373030801
0.007214019370689583
0.007214019371452309
0.007214019372650696
0.007214019370582032
0.007214019371523487
0.007214019373129987
0.007214019371023363
0.007214019372156585
0.007214019373790441
0.007214019371332008
0.007214019372114312
0.007214019373861297
0.007214019371404656
0.007214019372034351
0.007214019373818333
0.007214019371481627
0.007214019371822052
0.007214019373102974
0.007214019371267885
0.007214019372135099
0.007214019374011538
0.007214019371651
0.007214019372447827
0.007214019373339388
0.007214019371314498
0.007214019372409019
0.00721401937414567
0.007214019372490208
0.00721401937241088
0.007214019373715791
0.007214019376612145
0.007214019373772627
0.007214019373851239
0.008039143675612443
0.008039143675821854
0.008039143675740794
0.008039143674091621
0.008039143673935966
0.008039143675898395
0.008039143676623596
0.008039143674719447
0.008039143675427156
0.008039143677284396
0.008039143675251973
0.008039143675588221
0.008039143677205622
0.008039143675513363
0.008039143675988869
0.008039143677728178
0.008039143676042944
0.008039143676289594
0.008039143679246005
0.008039143676486702
0.00803914367717414
0.008039143678623141
0.008039143676498552
0.008039143676890247
0.008039143679365691
0.008039143676841824
0.008039143677096856
0.008039143678683374
0.008039143676756592
0.00803914367735746
0.008039143679234121
0.008039143677217211
0.008039143678172154
0.008039143680197284
0.008039143677604842
0.00803914367816724
0.008039143680338838
0.008039143677715754
0.008039143678368797
0.008039143680133594
0.008039143677786251
0.008039143677853688
0.008039143679375017
0.008039143677613374
0.008039143678543619
0.008039143680511939
0.00803914367786788
0.008039143678631656
0.00803914367939418
0.008039143677673126
0.008039143678559464
0.008039143680671521
0.008039143678443224
0.008039143678987122
0.008039143680175526
0.008039143683564674
0.00803914368046902
0.008039143680681414
0.008858501521361467
0.008858501522146402
0.008858501522289595
0.008858501520355343
0.00885850151996599
0.008858501521902018
0.00885850152213982
0.00885850152050076
0.008858501521442805
0.008858501523612288
0.008858501520901351
0.008858501521871719
0.008858501523485282
0.008858501521213714
0.008858501522326478
0.008858501523984706
0.008858501522166917
0.008858501522024975
0.008858501525869074
0.008858501522352201
0.008858501523295469
0.008858501524890351
0.008858501522615601
0.00885850152248494
0.008858501525944707
0.008858501523025121
0.008858501522707091
0.008858501525837524
0.008858501523046618
0.008858501522860562
0.008858501526237211
0.008858501523480737
0.008858501523466396
0.008858501526857739
0.008858501523847711
0.008858501523647949
0.008858501527015977
0.008858501524012912
0.008858501523811927
0.008858501527019015
0.008858501524150001
0.008858501523749118
0.008858501526835256
0.00885850152409769
0.008858501524100197
0.008858501527213569
0.008858501524321242
0.008858501524074604
0.008858501526976086
0.008858501524222599
0.008858501524221641
0.008858501527634018
0.008858501524818105
0.008858501524548812
0.008858501527825637
0.008858501530352126
0.008858501527181846
0.008858501527595637
0.00964239713859321
0.009642397140137282
0.009642397140356735
0.009642397137826331
0.009642397138649427
0.009642397139831314
0.009642397139816497
0.009642397137257223
0.00964239713895553
0.009642397141175851
0.009642397138143481
0.009642397139447971
0.009642397141485043
0.009642397138553471
0.009642397139949039
0.009642397141994653
0.00964239713964261
0.009642397139155785
0.00964239714380107
0.009642397140221167
0.009642397139786086
0.009642397143637125
0.00964239714038409
0.009642397139715772
0.009642397144181712
0.009642397140783117
0.009642397139992376
0.009642397144294077
0.009642397140898719
0.009642397140151499
0.009642397144640269
0.009642397141306262
0.009642397140659006
0.009642397145101633
0.009642397141647437
0.009642397140888812
0.00964239714531537
0.00964239714186783
0.009642397141097667
0.009642397145447582
0.009642397142075139
0.009642397141239059
0.009642397145521063
0.009642397142124597
0.009642397141465687
0.009642397145695144
0.009642397142309736
0.009642397141492922
0.009642397145752216
0.009642397142336079
0.009642397141698839
0.009642397146127165
0.009642397142758429
0.009642397141995834
0.009642397146036784
0.009642397148403748
0.009642397145295554
0.009642397145927862
0.01036897893640698
0.01036897893820182
0.01036897893900235
0.01036897893630305
0.01036897893832757
0.01036897893787996
0.01036897893898272
0.0103689789352539
0.01036897893708002
0.01036897893974137
0.01036897893616241
0.01036897893767024
0.0103689789402017
0.01036897893664136
0.01036897893818877
0.01036897894073161
0.01036897893790931
0.01036897893695666
0.0103689789425312
0.01036897893860534
0.01036897893742186
0.01036897894268896
0.01036897893882982
0.01036897893764899
0.0103689789431034
0.01036897893922159
0.01036897893796517
0.01036897894330635
0.01036897893940656
0.01036897893815842
0.01036897894363644
0.0103689789397947
0.01036897893863165
0.01036897894403732
0.01036897894012537
0.01036897893887529
0.01036897894429255
0.01036897894039427
0.0103689789391346
0.01036897894450865
0.0103689789406594
0.01036897893937491
0.01036897894471711
0.01036897894079091
0.01036897893958711
0.01036897894485899
0.01036897894096301
0.01036897893965922
0.01036897894501388
0.01036897894107404
0.01036897893989691
0.01036897894527731
0.01036897894138382
0.01036897894015392
0.01036897894485619
0.01036897894685225
0.01036897894396641
0.01036897894472766
0.01102510193547924
0.01102510193747946
0.01102510193819232
0.01102510193621153
0.01102510193771009
0.0110251019360994
0.01102510193966913
0.01102510193457319
0.01102510193634348
0.01102510193940279
0.01102510193524635
0.01102510193692112
0.01102510193990337
0.01102510193576098
0.01102510193740725
0.0110251019404455
0.01102510193721934
0.01102510193581645
0.01102510194228418
0.01102510193794968
0.01102510193628085
0.01102510194256741
0.01102510193822337
0.01102510193658218
0.0110251019429431
0.01102510193860943
0.01102510193698063
0.0110251019431792
0.01102510193884079
0.01102510193716585
0.01102510194351434
0.01102510193921652
0.01102510193763608
0.01102510194390477
0.01102510193955096
0.01102510193793962
0.01102510194417301
0.01102510193985855
0.01102510193822116
0.01102510194444844
0.01102510194016946
0.01102510193847786
0.01102510194475117
0.01102510194036865
0.01102510193870679
0.01102510194491601
0.01102510194053887
0.01102510193879837
0.01102510194509199
0.0110251019406969
0.01102510193908038
0.0110251019453263
0.01102510194094693
0.01102510193925747
0.01102510194491253
0.01102510194560821
0.01102510194333841
0.01102510194442692
0.01160491616925874
0.01160491616960299
0.01160491617038205
0.01160491617163933
0.01160491616820594
0.01160491616984445
0.01160491617235978
0.01160491616720891
0.01160491616910449
0.0116049161724045
0.0116049161676816
0.01160491616956818
0.01160491617288363
0.01160491616820607
0.01160491616993439
0.01160491617342377
0.0116049161698368
0.01160491616807897
0.01160491617531515
0.0116049161705657
0.01160491616851961
0.011604916175648
0.01160491617086843
0.01160491616889288
0.01160491617597396
0.01160491617123861
0.01160491616962766
0.01160491617617491
0.0116049161714948
0.01160491616958327
0.01160491617655828
0.01160491617186225
0.01160491616998001
0.01160491617697776
0.01160491617221408
0.01160491617070114
0.01160491617717494
0.01160491617254536
0.01160491617088782
0.01160491617751428
0.01160491617289619
0.01160491617095503
0.01160491617792956
0.01160491617315271
0.01160491617112664
0.01160491617815011
0.0116049161733217
0.01160491617122387
0.01160491617830644
0.0116049161734964
0.01160491617157938
0.0116049161785483
0.01160491617372037
0.01160491617163133
0.0116049161782475
0.01160491617615584
0.01160491617408642
0.01160491617870571
0.01210753528703626
0.01210753528545102
0.01210753528932512
0.01210753529035194
0.01210753528487202
0.01210753528731509
0.01210753528988888
0.01210753528432093
0.01210753528658499
0.01210753528989075
0.01210753528464313
0.01210753528678596
0.01210753529032677
0.01210753528516068
0.01210753528696825
0.01210753529085035
0.01210753528693044
0.01210753528496775
0.01210753529279197
0.0121075352876336
0.012107535285301
0.0121075352931433
0.01210753528796403
0.01210753528607854
0.01210753529332674
0.01210753528829024
0.0121075352868986
0.01210753529353443
0.01210753528856932
0.01210753528677318
0.01210753529392774
0.01210753528892165
0.01210753528682375
0.01210753529443388
0.01210753528929867
0.01210753528805089
0.01210753529454187
0.01210753528964595
0.01210753528817022
0.01210753529492872
0.01210753529003792
0.01210753528801949
0.01210753529545767
0.01210753529034097
0.01210753528805248
0.01210753529575642
0.01210753529049816
0.01210753528814911
0.01210753529586057
0.01210753529066432
0.01210753528860077
0.01210753529611928
0.01210753529087941
0.01210753528852481
0.01210753529597511
0.01210753529216799
0.01210753528992381
0.01210753529641051
0.01253482656979805
0.01253482656994625
0.01253482657036641
0.01253482657394639
0.01253482656829437
0.0125348265709027
0.01253482657355919
0.01253482656759942
0.01253482657019599
0.01253482657355792
0.01253482656784172
0.01253482657009192
0.01253482657395333
0.012534826568333
0.01253482657023118
0.01253482657443322
0.01253482657019786
0.01253482656818752
0.01253482657640798
0.01253482657085558
0.01253482656831027
0.01253482657676585
0.01253482657122154
0.01253482656960599
0.01253482657676346
0.01253482657147816
0.01253482657023179
0.0125348265770182
0.01253482657178031
0.01253482656990628
0.01253482657744201
0.01253482657212061
0.01253482656977181
0.0125348265779783
0.01253482657251694
0.01253482657150344
0.01253482657801324
0.01253482657286824
0.01253482657131286
0.01253482657849068
0.01253482657332188
0.01253482657138184
0.01253482657905194
0.01253482657366484
0.01253482657120797
0.01253482657944904
0.01253482657377844
0.01253482657126017
0.01253482657947205
0.0125348265739185
0.01253482657175712
0.0125348265797367
0.01253482657413055
0.01253482657188608
0.01253482657960126
0.01253482657487797
0.0125348265724151
0.01253482657985637
0.01288980666632987
0.0128898066688965
0.01288980666703909
0.01288980667306371
0.01288980666774693
0.0128898066663372
0.01288980667347442
0.0128898066659304