/*--------------------------------*- C++ -*----------------------------------*\
| =========                 |                                                 |
| \\      /  F ield         | OpenFOAM: The Open Source CFD Toolbox           |
|  \\    /   O peration     | Version:  v1812                                 |
|   \\  /    A nd           | Web:      www.OpenFOAM.com                      |
|    \\/     M anipulation  |                                                 |
\*---------------------------------------------------------------------------*/
FoamFile
{
    version     2.0;
    format      ascii;
    class       volScalarField;
    location    "20000";
    object      nuTilda_0;
}
// * * * * * * * * * * * * * * * * * * * * * * * * * * * * * * * * * * * * * //

dimensions      [0 2 -1 0 0 0 0];


internalField   nonuniform List<scalar> 
3770
(
0.0004790684145666992
0.0004790684145660888
0.0004790684145650655
0.0004790684145652228
0.0004790684145644293
0.0004790684145648033
0.0004790684145643413
0.0004790684145642948
0.0004790684145643723
0.0004790684145642532
0.0004790684145640364
0.0004790684145642775
0.0004790684145640988
0.0004790684145639635
0.0004790684145641787
0.0004790684145640567
0.0004790684145639117
0.0004790684145641505
0.0004790684145640141
0.0004790684145638879
0.0004790684145641282
0.0004790684145639988
0.0004790684145638681
0.0004790684145641103
0.0004790684145639781
0.0004790684145638637
0.0004790684145640935
0.0004790684145639639
0.0004790684145638381
0.0004790684145640922
0.0004790684145639685
0.0004790684145638714
0.0004790684145641016
0.0004790684145639992
0.0004790684145638464
0.0004790684145640949
0.0004790684145639486
0.0004790684145639358
0.0004790684145640962
0.0004790684145640681
0.0004790684145638409
0.0004790684145641922
0.0004790684145638958
0.0004790684145640343
0.0004790684145639578
0.0004790684145641871
0.0004790684145637343
0.0004790684145643971
0.0004790684145637407
0.0004790684145643426
0.0004790684145637637
0.0004790684145646608
0.0004790684145636113
0.0004790684145649129
0.0004790684145636538
0.0004790684145652446
0.0004790684145635017
0.000479068414565232
0.0005366676005610119
0.0005366676010432195
0.0005366676008984703
0.000536667600914442
0.0005366676008344103
0.0005366676008684883
0.0005366676008561278
0.0005366676007959101
0.0005366676008147149
0.0005366676008206891
0.0005366676007677649
0.0005366676007965749
0.0005366676008014846
0.0005366676007547841
0.0005366676007837249
0.000536667600792793
0.0005366676007481386
0.0005366676007804791
0.0005366676007895458
0.0005366676007449978
0.0005366676007771993
0.0005366676007858808
0.0005366676007412015
0.0005366676007742738
0.0005366676007838552
0.0005366676007404253
0.0005366676007730443
0.0005366676007809557
0.0005366676007358883
0.0005366676007702968
0.0005366676007809838
0.0005366676007418142
0.0005366676007743744
0.0005366676007858024
0.0005366676007377703
0.0005366676007752364
0.0005366676007823048
0.000536667600749455
0.0005366676007769299
0.000536667600794186
0.0005366676007346778
0.0005366676007903253
0.0005366676007850473
0.0005366676007601051
0.0005366676007681775
0.000536667600810414
0.0005366676007256966
0.000536667600806658
0.0005366676007640013
0.000536667600783197
0.0005366676007388113
0.0005366676008405101
0.0005366676007328719
0.0005366676008342867
0.0005366676007409554
0.0005366676008674887
0.0005366676007183566
0.0005366676007213199
0.0009709510631563062
0.0009709510641487672
0.0009709510641953643
0.0009709510642045764
0.0009709510641391923
0.0009709510642142562
0.0009709510642285286
0.0009709510640997253
0.000970951064177206
0.0009709510642032249
0.0009709510640879504
0.0009709510641652243
0.0009709510641843574
0.0009709510640697445
0.0009709510641505101
0.0009709510641789958
0.0009709510640692719
0.0009709510641527601
0.0009709510641802783
0.0009709510640683599
0.0009709510641513533
0.0009709510641757345
0.0009709510640640488
0.0009709510641478559
0.000970951064176084
0.0009709510640655406
0.0009709510641488524
0.0009709510641671191
0.0009709510640550399
0.0009709510641406326
0.0009709510641734401
0.0009709510640659365
0.0009709510641505129
0.0009709510641780349
0.0009709510640649675
0.0009709510641515349
0.0009709510641774923
0.0009709510640728553
0.0009709510641556829
0.0009709510641889082
0.0009709510640685319
0.000970951064161929
0.0009709510641736906
0.000970951064075965
0.0009709510641479672
0.0009709510641993421
0.0009709510640682779
0.0009709510641759223
0.0009709510641708264
0.0009709510640919402
0.0009709510641381345
0.0009709510642031127
0.0009709510641403853
0.0009709510641464153
0.0009709510641723445
0.0009709510642180083
0.0009709510640585997
0.0009709510640292882
0.001326137033511128
0.001326137034901571
0.001326137035120177
0.001326137035124933
0.001326137035047308
0.001326137035193716
0.001326137035225124
0.001326137035008497
0.001326137035160207
0.001326137035203918
0.001326137035007012
0.001326137035152503
0.001326137035181595
0.001326137034983535
0.001326137035135307
0.001326137035179794
0.001326137034988927
0.001326137035143402
0.001326137035185499
0.001326137034990393
0.001326137035143878
0.001326137035180043
0.001326137034985326
0.001326137035139788
0.001326137035182707
0.001326137034989059
0.001326137035142324
0.001326137035166186
0.001326137034971414
0.001326137035128549
0.001326137035180056
0.001326137034990518
0.001326137035146341
0.001326137035185854
0.001326137034990332
0.001326137035147187
0.001326137035187804
0.001326137035000358
0.001326137035156136
0.001326137035202378
0.001326137034999082
0.001326137035159971
0.00132613703518076
0.001326137034998624
0.001326137035146435
0.00132613703521155
0.001326137035004292
0.00132613703517458
0.001326137035187479
0.001326137035013327
0.001326137035144733
0.001326137035204899
0.001326137035150082
0.001326137035100253
0.001326137035209731
0.00132613703523288
0.001326137034989794
0.001326137034993726
0.001682136240832528
0.001682136242427464
0.001682136242881233
0.001682136242882097
0.001682136242808293
0.001682136243052519
0.001682136243105232
0.001682136242783093
0.001682136243035247
0.001682136243101463
0.001682136242802915
0.001682136243040738
0.001682136243079477
0.001682136242777241
0.001682136243024235
0.001682136243086776
0.00168213624279351
0.00168213624304244
0.001682136243099865
0.001682136242799939
0.001682136243047275
0.001682136243095173
0.001682136242795435
0.001682136243043634
0.00168213624310185
0.001682136242803029
0.001682136243048633
0.00168213624307505
0.001682136242776013
0.001682136243027962
0.001682136243100407
0.001682136242806806
0.001682136243056788
0.001682136243107569
0.001682136242808047
0.001682136243057743
0.001682136243113495
0.001682136242820477
0.001682136243072858
0.001682136243131909
0.001682136242824698
0.001682136243073176
0.001682136243101244
0.00168213624281097
0.001682136243060636
0.00168213624313804
0.001682136242836987
0.001682136243087013
0.001682136243120869
0.001682136242824796
0.001682136243071578
0.001682136243122504
0.00168213624307194
0.0016821362429554
0.001682136243173806
0.001682136243183563
0.001682136242813708
0.001682136242903691
0.002036369963051628
0.00203636996468816
0.00203636996538442
0.002036369965384728
0.002036369965307564
0.002036369965669522
0.00203636996574908
0.002036369965307982
0.00203636996567664
0.002036369965772106
0.002036369965356875
0.002036369965702914
0.002036369965754269
0.002036369965332446
0.002036369965690173
0.002036369965774982
0.00203636996536349
0.002036369965721847
0.002036369965798133
0.002036369965377476
0.002036369965733577
0.002036369965796346
0.00203636996537518
0.00203636996573174
0.002036369965808713
0.002036369965388193
0.002036369965740187
0.002036369965769662
0.002036369965350174
0.002036369965711731
0.00203636996580976
0.002036369965395783
0.002036369965754356
0.002036369965818727
0.002036369965398856
0.002036369965755658
0.00203636996582963
0.002036369965414237
0.002036369965778028
0.002036369965853212
0.002036369965426008
0.002036369965774974
0.002036369965810975
0.002036369965395086
0.002036369965762463
0.002036369965854767
0.002036369965445749
0.002036369965787418
0.002036369965845405
0.002036369965409296
0.002036369965788847
0.002036369965833306
0.002036369965777974
0.002036369965592233
0.00203636996593431
0.002036369965945666
0.002036369965417702
0.002036369965613266
0.002389733282835355
0.002389733284383166
0.002389733285289317
0.002389733285290329
0.002389733285202299
0.002389733285700466
0.002389733285814702
0.002389733285242275
0.002389733285737646
0.00238973328587028
0.002389733285325443
0.002389733285790979
0.002389733285860438
0.002389733285305894
0.002389733285785034
0.00238973328589804
0.002389733285354841
0.002389733285832786
0.002389733285933683
0.002389733285378971
0.002389733285854062
0.002389733285937572
0.002389733285381033
0.002389733285855788
0.002389733285957384
0.002389733285401118
0.002389733285868817
0.002389733285904401
0.0023897332853507
0.002389733285832041
0.002389733285962435
0.002389733285414238
0.002389733285891159
0.002389733285973934
0.002389733285419561
0.002389733285893108
0.002389733285990465
0.002389733285438498
0.002389733285923556
0.002389733286021129
0.002389733285459989
0.002389733285918253
0.002389733285964667
0.0023897332854085
0.002389733285903706
0.002389733286016502
0.002389733285486704
0.002389733285928793
0.002389733286014817
0.002389733285424737
0.002389733285947506
0.002389733285993031
0.002389733285929444
0.002389733285674392
0.002389733286143334
0.002389733286174033
0.00238973328546389
0.002389733285763986
0.002746516193842305
0.002746516195197031
0.002746516196257963
0.00274651619626029
0.002746516196154648
0.002746516196804685
0.002746516196964733
0.002746516196248143
0.002746516196876388
0.002746516197055217
0.002746516196368198
0.002746516196961588
0.002746516197057249
0.00274651619635744
0.002746516196965633
0.002746516197114543
0.002746516196426819
0.002746516197031377
0.002746516197164753
0.002746516196463563
0.002746516197064728
0.002746516197177759
0.002746516196472806
0.002746516197072402
0.002746516197206944
0.002746516196501755
0.002746516197091283
0.00274651619713848
0.002746516196437644
0.002746516197046094
0.002746516197218032
0.002746516196522456
0.002746516197124545
0.002746516197233187
0.002746516196530581
0.00274651619712752
0.00274651619725573
0.002746516196553705
0.00274651619716657
0.002746516197295685
0.002746516196587351
0.002746516197161136
0.002746516197222534
0.002746516196512275
0.002746516197141623
0.002746516197283049
0.002746516196619746
0.002746516197168812
0.002746516197288342
0.002746516196532202
0.002746516197204324
0.002746516197262545
0.002746516197188372
0.002746516196865484
0.002746516197459815
0.002746516197529583
0.00274651619661806
0.002746516197007763
0.003115096523265164
0.003115096524333324
0.0031150965254791
0.003115096525484193
0.003115096525356967
0.003115096526173123
0.003115096526394535
0.003115096525518566
0.003115096526283471
0.003115096526519463
0.00311509652567592
0.003115096526404202
0.003115096526537838
0.003115096525678417
0.003115096526421782
0.003115096526617019
0.003115096525770425
0.003115096526506887
0.003115096526683512
0.00311509652582216
0.003115096526554598
0.003115096526709833
0.003115096525842351
0.00311509652657157
0.003115096526750552
0.00311509652588224
0.003115096526597901
0.003115096526665159
0.003115096525803086
0.003115096526544521
0.003115096526770775
0.003115096525913179
0.00311509652664581
0.003115096526791397
0.003115096525925083
0.00311509652665036
0.003115096526820203
0.003115096525952986
0.00311509652669813
0.003115096526871408
0.003115096526001491
0.003115096526695757
0.003115096526779796
0.003115096525900066
0.003115096526667629
0.003115096526848672
0.003115096526037538
0.003115096526698868
0.00311509652686016
0.003115096525925184
0.003115096526750517
0.00311509652683775
0.003115096526750892
0.00311509652636245
0.003115096527078622
0.003115096527210432
0.003115096526079925
0.003115096526534629
0.003508591106911004
0.003508591107599855
0.003508591108743103
0.003508591108758577
0.003508591108600522
0.003508591109599759
0.003508591109904017
0.003508591108849002
0.003508591109753052
0.003508591110061478
0.003508591109042644
0.003508591109912116
0.003508591110101967
0.003508591109064086
0.00350859110994798
0.00350859111020486
0.003508591109180983
0.003508591110053493
0.003508591110289041
0.003508591109250037
0.003508591110117379
0.003508591110333256
0.003508591109285997
0.003508591110148428
0.003508591110388265
0.003508591109339469
0.003508591110184301
0.003508591110284688
0.003508591109243836
0.003508591110123198
0.003508591110422866
0.003508591109384577
0.003508591110252377
0.003508591110451962
0.003508591109401981
0.003508591110259211
0.003508591110487297
0.00350859110943534
0.00350859111031563
0.003508591110550603
0.003508591109501374
0.003508591110320336
0.003508591110440253
0.003508591109371469
0.003508591110279771
0.003508591110515811
0.003508591109538459
0.003508591110316105
0.003508591110532441
0.00350859110940287
0.003508591110383841
0.00350859111052352
0.003508591110420752
0.003508591109968828
0.003508591110802777
0.003508591111026997
0.003508591109657935
0.003508591110144439
0.003944423208855122
0.003944423209063331
0.003944423210087337
0.003944423210140635
0.003944423209921758
0.003944423211129278
0.003944423211543833
0.003944423210284116
0.003944423211327185
0.003944423211731888
0.003944423210512715
0.003944423211526451
0.003944423211802607
0.003944423210560878
0.00394442321158785
0.003944423211930684
0.003944423210705172
0.003944423211714682
0.003944423212033627
0.003944423210794056
0.003944423211796383
0.003944423212099561
0.003944423210851439
0.00394442321184782
0.00394442321217288
0.003944423210922122
0.003944423211896088
0.003944423212050481
0.003944423210808702
0.003944423211827698
0.003944423212230913
0.003944423210987801
0.003944423211992937
0.003944423212273639
0.003944423211013677
0.003944423212002847
0.003944423212315684
0.003944423211053361
0.003944423212068099
0.003944423212389612
0.003944423211138754
0.003944423212083962
0.003944423212262584
0.003944423210979669
0.003944423212027839
0.003944423212342028
0.003944423211174174
0.003944423212068781
0.003944423212361186
0.003944423211017842
0.003944423212153579
0.003944423212380569
0.003944423212258509
0.003944423211745009
0.003944423212688316
0.003944423213049843
0.003944423211418305
0.0039444232118923
0.004441838037003874
0.00444183803671421
0.004441838037402043
0.004441838037508038
0.004441838037222931
0.00444183803861335
0.004441838039168879
0.004441838037673787
0.004441838038848513
0.004441838039387044
0.004441838037936821
0.004441838039086331
0.004441838039498389
0.004441838038022189
0.004441838039185027
0.00444183803965339
0.004441838038196793
0.004441838039335082
0.004441838039774987
0.004441838038308076
0.004441838039437507
0.004441838039863357
0.004441838038392
0.004441838039514817
0.004441838039961765
0.004441838038485117
0.004441838039579223
0.004441838039821704
0.004441838038353851
0.004441838039504344
0.004441838040057193
0.004441838038581867
0.004441838039719034
0.004441838040123139
0.004441838038621325
0.004441838039732849
0.004441838040170606
0.00444183803866832
0.004441838039808028
0.004441838040250769
0.004441838038772804
0.004441838039837552
0.004441838040111202
0.004441838038586671
0.00444183803976487
0.004441838040193447
0.004441838038805051
0.004441838039807853
0.004441838040206502
0.004441838038630987
0.004441838039912378
0.004441838040277001
0.004441838040131735
0.004441838039564253
0.004441838040593343
0.004441838041161173
0.004441838039252776
0.004441838039649064
0.005017093128662397
0.005017093128060647
0.005017093128369223
0.005017093128522256
0.005017093128183116
0.005017093129616909
0.005017093130350554
0.005017093128589808
0.005017093129861514
0.005017093130600706
0.005017093128887977
0.005017093130125328
0.005017093130756117
0.00501709312902148
0.005017093130280022
0.005017093130944101
0.005017093129230728
0.005017093130462243
0.005017093131084907
0.005017093129367178
0.005017093130588009
0.005017093131189164
0.005017093129479615
0.005017093130694456
0.005017093131321999
0.005017093129602174
0.005017093130777837
0.005017093131170912
0.005017093129456644
0.005017093130699054
0.005017093131474765
0.005017093129746113
0.005017093130985995
0.005017093131582209
0.005017093129807668
0.005017093131004668
0.005017093131631012
0.005017093129862877
0.005017093131091532
0.005017093131708166
0.005017093129982221
0.005017093131129893
0.005017093131561734
0.005017093129775925
0.005017093131049507
0.005017093131652351
0.005017093130013468
0.005017093131085736
0.005017093131638522
0.005017093129824162
0.005017093131215568
0.005017093131794847
0.005017093131596135
0.005017093131018458
0.005017093132075904
0.005017093132957466
0.005017093130786288
0.005017093131028452
0.005677461988374178
0.005677461987745549
0.005677461987679871
0.005677461987728864
0.005677461987427666
0.005677461988749189
0.005677461989731947
0.005677461987688008
0.005677461988949925
0.005677461990008877
0.005677461988020173
0.005677461989214158
0.005677461990190837
0.005677461988207583
0.005677461989448455
0.005677461990425971
0.005677461988459503
0.005677461989690049
0.005677461990598174
0.005677461988625737
0.005677461989836922
0.005677461990701523
0.005677461988762427
0.00567746198997112
0.005677461990881125
0.005677461988923611
0.005677461990066327
0.005677461990727548
0.005677461988772866
0.005677461989995987
0.005677461991106437
0.005677461989134223
0.005677461990383852
0.005677461991295474
0.005677461989232815
0.005677461990413486
0.005677461991332618
0.005677461989295717
0.005677461990511178
0.005677461991396435
0.0056774619894215
0.005677461990532026
0.005677461991242725
0.005677461989207531
0.005677461990481883
0.005677461991363028
0.005677461989460072
0.005677461990489614
0.005677461991277191
0.005677461989254816
0.005677461990652316
0.005677461991575331
0.005677461991178891
0.005677461990708444
0.00567746199173991
0.005677461993086723
0.005677461990727057
0.005677461990782917
0.006416613353353676
0.006416613352942846
0.006416613352714842
0.006416613352186448
0.006416613352180869
0.00641661335326651
0.006416613354722083
0.006416613352414329
0.006416613353424172
0.006416613355004275
0.006416613352778129
0.006416613353658126
0.00641661335514312
0.006416613353012341
0.006416613353988866
0.006416613355462496
0.006416613353320983
0.006416613354354173
0.006416613355706588
0.006416613353528396
0.006416613354487736
0.006416613355788589
0.00641661335368667
0.006416613354663594
0.006416613356011178
0.006416613353890647
0.006416613354740515
0.006416613355863743
0.006416613353753917
0.00641661335472044
0.006416613356301266
0.006416613354186999
0.006416613355213161
0.006416613356661069
0.006416613354347006
0.006416613355286409
0.006416613356654409
0.006416613354414277
0.006416613355384926
0.006416613356694214
0.006416613354534964
0.006416613355318196
0.006416613356516953
0.006416613354330227
0.006416613355389555
0.006416613356721974
0.006416613354598727
0.006416613355342939
0.00641661335647107
0.006416613354370297
0.006416613355513182
0.006416613357009949
0.006416613356023729
0.006416613355870796
0.006416613356932317
0.006416613358935236
0.006416613356590142
0.006416613356636372
0.007214019340634413
0.00721401934045211
0.007214019340726913
0.007214019339237702
0.007214019339632211
0.007214019340228509
0.007214019342360043
0.007214019339866226
0.00721401934058666
0.007214019342584019
0.007214019340250928
0.007214019340783409
0.00721401934246349
0.007214019340507607
0.007214019341208592
0.007214019342954874
0.007214019340916669
0.007214019341850502
0.007214019343428365
0.007214019341174583
0.007214019341767497
0.007214019343486982
0.007214019341347916
0.00721401934216343
0.007214019343662652
0.007214019341586908
0.007214019342131887
0.00721401934351318
0.007214019341494978
0.007214019342256711
0.007214019343967531
0.007214019341977496
0.007214019342763421
0.007214019344691495
0.007214019342228248
0.00721401934298359
0.007214019344591147
0.007214019342298282
0.007214019343060556
0.00721401934457147
0.007214019342403385
0.007214019342700786
0.007214019344354105
0.007214019342230885
0.007214019343165387
0.007214019344710722
0.007214019342517142
0.007214019342999204
0.007214019344151995
0.007214019342260292
0.007214019343025077
0.00721401934512968
0.007214019343347415
0.007214019343350335
0.007214019345155124
0.007214019347455049
0.007214019344830835
0.007214019345173445
0.008039143643115703
0.008039143642609867
0.008039143643856488
0.008039143641576308
0.008039143641943632
0.008039143642301344
0.00803914364488433
0.00803914364237737
0.008039143642816934
0.008039143644944152
0.008039143642771069
0.008039143643029894
0.008039143644966893
0.008039143643063304
0.008039143643357527
0.008039143645512264
0.008039143643636986
0.00803914364451931
0.008039143646200541
0.008039143643920738
0.008039143644398464
0.0080391436461288
0.008039143644065083
0.008039143644810091
0.008039143646405096
0.00803914364434085
0.008039143644542796
0.008039143646193476
0.008039143644317591
0.00803914364474155
0.00803914364660741
0.008039143644809267
0.00803914364555197
0.00803914364766793
0.008039143645138028
0.008039143645863663
0.008039143647519642
0.00803914364523233
0.008039143645767844
0.00803914364729947
0.008039143645326156
0.008039143645455627
0.008039143646938298
0.008039143645213378
0.008039143645963904
0.008039143647799018
0.008039143645501042
0.008039143645468729
0.008039143646800719
0.008039143645261664
0.008039143645931618
0.008039143648267086
0.008039143646061935
0.008039143645998949
0.008039143648480757
0.008039143650888834
0.008039143647994212
0.008039143648791216
0.008858501485803244
0.0088585014851866
0.008858501487209632
0.008858501484469374
0.008858501484745221
0.008858501484755487
0.008858501486781287
0.008858501484862906
0.00885850148553086
0.008858501488005649
0.008858501485368415
0.008858501485076865
0.008858501488470691
0.008858501485739851
0.008858501485527224
0.008858501488954439
0.008858501486453486
0.0088585014875217
0.008858501489550396
0.008858501486711747
0.008858501486548508
0.008858501489505968
0.008858501486601521
0.00885850148775404
0.008858501489307944
0.008858501486903501
0.00885850148786264
0.008858501489360019
0.008858501486949168
0.008858501487998842
0.008858501489749602
0.008858501487410421
0.008858501488622978
0.008858501490321306
0.008858501487726345
0.008858501488846052
0.008858501490423882
0.008858501487893248
0.008858501488924935
0.008858501490428144
0.008858501488057844
0.008858501488942572
0.008858501490386824
0.008858501488044023
0.008858501489270457
0.008858501490456647
0.008858501488210156
0.008858501489054005
0.00885850149048751
0.00885850148815146
0.008858501489396811
0.008858501491139805
0.008858501488728111
0.008858501489622186
0.008858501490750773
0.008858501494823439
0.008858501491196659
0.008858501492497626
0.009642397100283783
0.00964239710021258
0.009642397102088401
0.00964239709951902
0.009642397099484709
0.009642397099474341
0.009642397100920418
0.009642397098872275
0.009642397098678155
0.009642397103094147
0.009642397099746819
0.009642397098985771
0.009642397103484447
0.009642397100176402
0.009642397099495976
0.009642397103975627
0.009642397100307745
0.009642397101822216
0.009642397103876627
0.009642397100717452
0.009642397101774329
0.009642397103945471
0.009642397100874979
0.0096423971022689
0.009642397104247224
0.009642397101236226
0.009642397102511231
0.009642397104406564
0.009642397101354967
0.009642397102672014
0.009642397104767619
0.009642397101785891
0.009642397103177927
0.009642397105180275
0.009642397102090923
0.009642397103408142
0.009642397105391366
0.00964239710231761
0.009642397103591632
0.009642397105533477
0.009642397102549121
0.00964239710376821
0.009642397105653672
0.00964239710260281
0.009642397103963302
0.009642397105715196
0.009642397102760202
0.009642397103966501
0.009642397105884685
0.009642397102819063
0.009642397104236179
0.009642397106230192
0.00964239710321727
0.009642397104474674
0.009642397105234913
0.009642397110078672
0.009642397105933096
0.009642397107763375
0.01036897889539923
0.01036897889443604
0.01036897889811394
0.01036897889556742
0.01036897889532154
0.01036897889551408
0.0103689788966102
0.01036897889410792
0.01036897889334951
0.01036897889895974
0.01036897889512653
0.01036897889390884
0.01036897889941083
0.01036897889560579
0.0103689788944483
0.01036897889993573
0.01036897889542646
0.0103689788970336
0.01036897889956707
0.01036897889589247
0.01036897889730722
0.01036897889978137
0.01036897889614057
0.01036897889768247
0.01036897890016582
0.01036897889652641
0.01036897889796105
0.01036897890038031
0.01036897889671008
0.01036897889817176
0.01036897890072331
0.010368978897116
0.01036897889863196
0.01036897890108817
0.0103689788974222
0.01036897889886805
0.01036897890135749
0.01036897889769879
0.01036897889912173
0.01036897890158215
0.01036897889798238
0.01036897889938619
0.01036897890179999
0.01036897889810148
0.01036897889957651
0.01036897890190373
0.01036897889826734
0.01036897889965995
0.01036897890210997
0.01036897889840113
0.01036897889991008
0.01036897890234826
0.01036897889869084
0.01036897890011385
0.01036897890074114
0.01036897890586976
0.01036897890154374
0.01036897890362348
0.01102510189189392
0.01102510189102757
0.01102510189458314
0.01102510189257995
0.0110251018920187
0.0110251018931455
0.01102510189419225
0.01102510189096638
0.01102510188963031
0.01102510189613703
0.01102510189186533
0.01102510189023575
0.01102510189662383
0.01102510189237241
0.01102510189076861
0.01102510189718031
0.01102510189196265
0.01102510189362686
0.01102510189665868
0.01102510189243634
0.01102510189401738
0.01102510189694811
0.01102510189271364
0.01102510189436593
0.01102510189734074
0.01102510189310675
0.01102510189464474
0.01102510189758519
0.01102510189334166
0.01102510189491417
0.01102510189792076
0.01102510189372795
0.01102510189539588
0.0110251018982761
0.01102510189404278
0.01102510189558713
0.01102510189858409
0.01102510189436566
0.01102510189589881
0.0110251018988576
0.01102510189468833
0.01102510189622519
0.01102510189915017
0.01102510189486577
0.01102510189646222
0.01102510189929334
0.01102510189503404
0.01102510189656185
0.01102510189950389
0.01102510189521408
0.01102510189683768
0.01102510189971641
0.01102510189544994
0.01102510189698036
0.01102510189771971
0.01102510190190086
0.01102510189910156
0.01102510189996576
0.0116049161216634
0.0116049161233538
0.01160491612262582
0.01160491612614931
0.0116049161223689
0.01160491612122711
0.01160491612644947
0.01160491612172879
0.0116049161198549
0.01160491612695712
0.01160491612228231
0.01160491612041776
0.01160491612743214
0.01160491612279414
0.01160491612080956
0.01160491612802524
0.01160491612217501
0.01160491612395522
0.0116049161273886
0.01160491612262505
0.01160491612436727
0.01160491612771181
0.01160491612291159
0.01160491612465621
0.01160491612808464
0.01160491612329997
0.01160491612492693
0.01160491612834679
0.01160491612357238
0.01160491612526329
0.01160491612867577
0.01160491612393831
0.01160491612586281
0.01160491612903074
0.01160491612426412
0.01160491612589757
0.01160491612937264
0.01160491612463492
0.01160491612626917
0.01160491612967621
0.01160491612499204
0.01160491612666019
0.01160491613003759
0.01160491612521141
0.01160491612697023
0.01160491613021468
0.01160491612537166
0.01160491612706387
0.01160491613040128
0.01160491612557226
0.01160491612742547
0.01160491613061993
0.01160491612578878
0.01160491612743947
0.01160491613008011
0.01160491612859555
0.01160491612953138
0.01160491613105325
0.0121075352380438
0.01210753523905241
0.01210753523951822
0.01210753524185436
0.01210753523769413
0.0121075352359475
0.01210753524240353
0.01210753523722877
0.01210753523548851
0.01210753524252652
0.01210753523755567
0.01210753523570875
0.01210753524301449
0.01210753523805934
0.01210753523575574
0.01210753524365769
0.01210753523722806
0.01210753523928191
0.01210753524291759
0.01210753523762814
0.01210753523959944
0.01210753524326874
0.01210753523793067
0.01210753523974975
0.01210753524358952
0.01210753523829932
0.01210753524001919
0.01210753524386757
0.01210753523860011
0.01210753524037689
0.01210753524419227
0.0121075352389436
0.01210753524122956
0.01210753524453048
0.0121075352392754
0.01210753524099744
0.01210753524491085
0.01210753523969647
0.01210753524141719
0.01210753524524031
0.01210753524009259
0.01210753524190995
0.0121075352456663
0.01210753524033334
0.01210753524232909
0.01210753524587544
0.01210753524046997
0.01210753524243811
0.01210753524599981
0.01210753524066545
0.0121075352429712
0.01210753524622795
0.01210753524088033
0.0121075352426912
0.0121075352461263
0.01210753524227344
0.01210753524401393
0.01210753524665784
0.01253482651866933
0.01253482652034883
0.01253482651961464
0.01253482652477844
0.01253482651994244
0.01253482651930455
0.01253482652371494
0.0125348265191058
0.01253482651761309
0.01253482652463507
0.01253482651939042
0.01253482651729626
0.01253482652516887
0.01253482651987622
0.01253482651725622
0.01253482652577587
0.01253482651880885
0.012534826521374
0.01253482652492356
0.01253482651913525
0.01253482652141192
0.01253482652531941
0.01253482651947478
0.01253482652134515
0.01253482652555472
0.01253482651980511
0.01253482652162302
0.01253482652585273
0.01253482652012826
0.01253482652202605
0.01253482652616877
0.01253482652045074
0.0125348265229975
0.01253482652648395
0.01253482652078559
0.01253482652258745
0.01253482652689704
0.01253482652124644
0.01253482652308839
0.01253482652725341
0.01253482652169086
0.01253482652359489
0.01253482652775928
0.0125348265219499
0.012534826524255
0.01253482652798107
0.01253482652203138
0.01253482652433951
0.01253482652801095
0.01253482652220619
0.01253482652499403
0.01253482652824382
0.01253482652242371
0.01253482652430091
0.01253482652830063
0.01253482652324575
0.01253482652507089
0.01253482652851007
0.01288980661675608
0.01288980661486845
0.01288980661816599
0.01288980662097062
0.01288980661536778
0.01288980661747185
0.01288980662112755
0.01288980661622805