/*--------------------------------*- C++ -*----------------------------------*\
| =========                 |                                                 |
| \\      /  F ield         | OpenFOAM: The Open Source CFD Toolbox           |
|  \\    /   O peration     | Version:  v1812                                 |
|   \\  /    A nd           | Web:      www.OpenFOAM.com                      |
|    \\/     M anipulation  |                                                 |
\*---------------------------------------------------------------------------*/
FoamFile
{
    version     2.0;
    format      ascii;
    class       volScalarField;
    location    "20000";
    object      p;
}
// * * * * * * * * * * * * * * * * * * * * * * * * * * * * * * * * * * * * * //

dimensions      [0 2 -2 0 0 0 0];


internalField   nonuniform List<scalar> 
3770
(
-4.794274844668691e-14
-3.031343524001067e-10
-2.375401909395248e-10
-3.114914709059244e-10
-2.935095732695337e-10
-3.127278775399928e-10
-3.025984351214322e-10
-3.10838705497338e-10
-3.042619020746e-10
-3.029810457523796e-10
-3.003266294794358e-10
-2.96760433754532e-10
-2.91997065499826e-10
-2.905075577239348e-10
-2.852549373932295e-10
-2.801449439836422e-10
-2.779068358593142e-10
-2.722205843652632e-10
-2.670051179395922e-10
-2.645092429730201e-10
-2.590518763605817e-10
-2.534663827125008e-10
-2.51449365182687e-10
-2.452332685256929e-10
-2.400110344387412e-10
-2.370085163695987e-10
-2.313701136322936e-10
-2.258169671403391e-10
-2.239663649834065e-10
-2.172780665748872e-10
-2.119498656392151e-10
-2.078476668285182e-10
-2.025693554882035e-10
-1.956437873687125e-10
-1.939991352119853e-10
-1.863889809250508e-10
-1.821858744855169e-10
-1.770655856210779e-10
-1.734344088700777e-10
-1.643260848423626e-10
-1.648721501331296e-10
-1.534166950324323e-10
-1.540106532689706e-10
-1.440988027532391e-10
-1.462780419952044e-10
-1.288939970426507e-10
-1.39007658584539e-10
-1.155356486083526e-10
-1.306792617158108e-10
-1.026427033823673e-10
-1.266143626867666e-10
-8.344678292815479e-11
-1.208281458884699e-10
-6.550768771001967e-11
-1.188809590931435e-10
-4.47880593474186e-11
-1.045636351028587e-10
-4.282708231357703e-11
5.381058048290928e-15
-3.026457491705944e-10
-2.375432945991701e-10
-3.113922964897691e-10
-2.934908041868579e-10
-3.126829982395746e-10
-3.025654646991375e-10
-3.108510381716469e-10
-3.042434321265388e-10
-3.029611304431869e-10
-3.003381304645061e-10
-2.967466860339748e-10
-2.919774258594006e-10
-2.9052447555971e-10
-2.852470867191704e-10
-2.801301075300934e-10
-2.779243529771812e-10
-2.722119527447141e-10
-2.669891057119823e-10
-2.645278831322478e-10
-2.590441097964013e-10
-2.534514319733163e-10
-2.514686115684869e-10
-2.452257918063002e-10
-2.399968350987927e-10
-2.370275870197576e-10
-2.313612000260107e-10
-2.258031768653267e-10
-2.239878616125794e-10
-2.172730870790139e-10
-2.119374083718406e-10
-2.078678339268206e-10
-2.025637505786273e-10
-1.956322653952824e-10
-1.940219378800277e-10
-1.86382813123316e-10
-1.821715053552436e-10
-1.770831619965955e-10
-1.734302208866713e-10
-1.643181941239871e-10
-1.64895152250257e-10
-1.534019436235128e-10
-1.540001629911051e-10
-1.441212592219862e-10
-1.462793700650185e-10
-1.288822033133291e-10
-1.390379440229672e-10
-1.155209018675298e-10
-1.306763686834619e-10
-1.026667258870069e-10
-1.266269612727998e-10
-8.343615184312274e-11
-1.208573627819916e-10
-6.552621068076523e-11
-1.188955393244707e-10
-4.48536730243302e-11
-1.046157993457744e-10
-4.340152224819141e-11
-2.098797221502505e-13
-3.016397652526997e-10
-2.372384329685094e-10
-3.112443917812464e-10
-2.933401416280984e-10
-3.125900234454997e-10
-3.024717160572657e-10
-3.108612999381579e-10
-3.041755228833758e-10
-3.029256595650175e-10
-3.003491723629459e-10
-2.967076040708738e-10
-2.919445881633648e-10
-2.905496892421037e-10
-2.852169271261959e-10
-2.801080493442425e-10
-2.779536251621762e-10
-2.721839751272815e-10
-2.669674559540145e-10
-2.64560153867422e-10
-2.590182629286394e-10
-2.534324624659948e-10
-2.515029579844649e-10
-2.452006991563079e-10
-2.39979592609728e-10
-2.370627141390404e-10
-2.313370410693719e-10
-2.257872801422675e-10
-2.240259076072106e-10
-2.172518706248724e-10
-2.119245215994842e-10
-2.079058141751108e-10
-2.025450377200441e-10
-1.956188286413896e-10
-1.940641050339212e-10
-1.863608627978648e-10
-1.821584831998287e-10
-1.771150432642885e-10
-1.734150818259314e-10
-1.643085505357226e-10
-1.649438067344965e-10
-1.533670379754285e-10
-1.539982246334914e-10
-1.44153228641053e-10
-1.462791747741375e-10
-1.288581848443792e-10
-1.391079376750373e-10
-1.154727117046373e-10
-1.307005496527373e-10
-1.026882910917435e-10
-1.266666086560897e-10
-8.339363082607837e-11
-1.209557732073246e-10
-6.552768711091512e-11
-1.189535017178755e-10
-4.49857843834439e-11
-1.047424508347793e-10
-4.469139866356434e-11
-9.57042872103187e-13
-3.00682678908133e-10
-2.366182886497011e-10
-3.110593206778149e-10
-2.930666792679384e-10
-3.124654292961639e-10
-3.023266127845864e-10
-3.108342520775859e-10
-3.040808538804442e-10
-3.028761785152097e-10
-3.003365148605752e-10
-2.96662124674306e-10
-2.919041097975225e-10
-2.905586122032036e-10
-2.851835456797914e-10
-2.800831370827325e-10
-2.779733537400841e-10
-2.721574287583993e-10
-2.66943849271004e-10
-2.645829344670709e-10
-2.589937107521474e-10
-2.534124177555387e-10
-2.515294511261463e-10
-2.451776330111735e-10
-2.399627605903116e-10
-2.370908542403387e-10
-2.31316666648774e-10
-2.25771834660351e-10
-2.240561623372436e-10
-2.172335626385108e-10
-2.119156509197205e-10
-2.079407665721365e-10
-2.025324740590382e-10
-1.956049312194499e-10
-1.940990983737806e-10
-1.863429714892294e-10
-1.821533810673776e-10
-1.771423283786092e-10
-1.734058507334167e-10
-1.642948109173782e-10
-1.649945854382493e-10
-1.533428044603146e-10
-1.540069745549044e-10
-1.441715621146675e-10
-1.462916736692043e-10
-1.288246373745057e-10
-1.391834639715629e-10
-1.154173816671864e-10
-1.307428855713556e-10
-1.026854865310754e-10
-1.26730662141695e-10
-8.33398659042557e-11
-1.210813918845592e-10
-6.551691894995842e-11
-1.190242402358046e-10
-4.515969790392092e-11
-1.047788007989331e-10
-4.612488386107505e-11
-1.995682743188957e-12
-3.003001849655158e-10
-2.359355780073534e-10
-3.109073683142742e-10
-2.927685126615988e-10
-3.123379098118311e-10
-3.021981064209489e-10
-3.107736621467586e-10
-3.039863223252548e-10
-3.028407250850981e-10
-3.002997108090783e-10
-2.966198158746751e-10
-2.918822177385855e-10
-2.905412822360906e-10
-2.851517297020795e-10
-2.800750314000545e-10
-2.779705697671509e-10
-2.721347716965556e-10
-2.669377979439714e-10
-2.645822065291941e-10
-2.58972474624514e-10
-2.534100347125308e-10
-2.515331332104791e-10
-2.451582430923818e-10
-2.399643615901877e-10
-2.370969360715524e-10
-2.313015474008662e-10
-2.257747030488876e-10
-2.24061835076238e-10
-2.172176152395769e-10
-2.119242316705255e-10
-2.079548340366886e-10
-2.025248004073702e-10
-1.95607840187681e-10
-1.941086313051347e-10
-1.863291080620448e-10
-1.821677757176617e-10
-1.771484221930304e-10
-1.73399562896133e-10
-1.642968350075444e-10
-1.650225065204499e-10
-1.533301788814941e-10
-1.540352322946303e-10
-1.441663887125088e-10
-1.463047453098279e-10
-1.288078608942483e-10
-1.392301210972e-10
-1.153685875555684e-10
-1.307964771332365e-10
-1.026586613525188e-10
-1.26781443612619e-10
-8.330076575345073e-11
-1.21182852821159e-10
-6.549726091625277e-11
-1.190625220820891e-10
-4.53199277499616e-11
-1.046969828272077e-10
-4.700637778108703e-11
-3.195664080858932e-12
-3.003805254243874e-10
-2.352561081211006e-10
-3.107759215332285e-10
-2.924585535073703e-10
-3.121970374196623e-10
-3.020856839019271e-10
-3.106895135125979e-10
-3.038889907232243e-10
-3.028191372396762e-10
-3.002455930564645e-10
-2.965745056212856e-10
-2.918764680757162e-10
-2.905055617632205e-10
-2.851180232915059e-10
-2.800826891772749e-10
-2.779535588675172e-10
-2.721125008933835e-10
-2.669467924586908e-10
-2.645653883554339e-10
-2.589500381483736e-10
-2.534222190784219e-10
-2.5152152584956e-10
-2.451376858149712e-10
-2.399815256829629e-10
-2.370879250354145e-10
-2.312858324601559e-10
-2.257934627353874e-10
-2.240509848660627e-10
-2.171996974178144e-10
-2.119479498820645e-10
-2.079549765592503e-10
-2.025170552551726e-10
-1.956262347183625e-10
-1.941000862315101e-10
-1.863136830030017e-10
-1.821985776833549e-10
-1.771404242814517e-10
-1.733918590222507e-10
-1.643141134452833e-10
-1.650345261911767e-10
-1.533222062652769e-10
-1.54081149321874e-10
-1.441478291473823e-10
-1.46314679228695e-10
-1.288080323519083e-10
-1.392551242755953e-10
-1.153200446913627e-10
-1.308579725772345e-10
-1.026193093724317e-10
-1.268153768901214e-10
-8.32774785950469e-11
-1.212650932345286e-10
-6.547177988072759e-11
-1.190648780793124e-10
-4.54758913554215e-11
-1.045483093559792e-10
-4.743639096261291e-11
-4.514511875415541e-12
-3.00822219283102e-10
-2.345870849490921e-10
-3.10652467520588e-10
-2.921387895883223e-10
-3.120399545656159e-10
-3.019816695051697e-10
-3.105846465415848e-10
-3.037824641204518e-10
-3.028044396039731e-10
-3.001779710650865e-10
-2.965232983276632e-10
-2.918827092629623e-10
-2.904559036834025e-10
-2.850777624696918e-10
-2.801011959663067e-10
-2.779254646225088e-10
-2.720858948462777e-10
-2.66967553252877e-10
-2.645367559208193e-10
-2.589226271560412e-10
-2.534464046788635e-10
-2.514996916565763e-10
-2.451132155287373e-10
-2.400113740521318e-10
-2.37069367760739e-10
-2.312679079271169e-10
-2.25825785880673e-10
-2.240287305387429e-10
-2.17177002273892e-10
-2.119836029013704e-10
-2.079460670619951e-10
-2.02506404293477e-10
-1.95657140866788e-10
-1.940800143747568e-10
-1.862946835463756e-10
-1.822426846398584e-10
-1.771230335847405e-10
-1.733800162063518e-10
-1.643439237385208e-10
-1.650367130987357e-10
-1.533150754705692e-10
-1.541418097257501e-10
-1.44119688996866e-10
-1.463190256987946e-10
-1.288203955112398e-10
-1.392664129129112e-10
-1.152702228581499e-10
-1.309279787438582e-10
-1.025713167184457e-10
-1.268353321778628e-10
-8.326558400481953e-11
-1.213357031673366e-10
-6.544313803449313e-11
-1.190368361391654e-10
-4.563422974628058e-11
-1.043611268513703e-10
-4.753754864663854e-11
-5.929417170906535e-12
-3.016099258257946e-10
-2.3394719105778e-10
-3.105329798176246e-10
-2.918048249685493e-10
-3.118557246775097e-10
-3.018830107992543e-10
-3.104600228698452e-10
-3.036657447047798e-10
-3.027974081311898e-10
-3.000964181202535e-10
-2.964622808538459e-10
-2.918993415203747e-10
-2.903936078102215e-10
-2.85031149539764e-10
-2.801316807555367e-10
-2.778891592414999e-10
-2.720554003339898e-10
-2.669993590674242e-10
-2.644981871354718e-10
-2.588899763541337e-10
-2.534808025188117e-10
-2.514689410264171e-10
-2.450837275113921e-10
-2.400525631567056e-10
-2.370421815498888e-10
-2.312455293937626e-10
-2.258705068836961e-10
-2.239971243961521e-10
-2.171485731254766e-10
-2.120309815585793e-10
-2.07929815297924e-10
-2.024916327181741e-10
-1.957004989481722e-10
-1.940498688593269e-10
-1.862700187191701e-10
-1.82299651216556e-10
-1.770983769978025e-10
-1.73364120221585e-10
-1.643857454135888e-10
-1.65030736249566e-10
-1.533065557566589e-10
-1.542177938852863e-10
-1.440854112217232e-10
-1.463189787136563e-10
-1.288456802071733e-10
-1.392658585452807e-10
-1.152154977764382e-10
-1.310057975190902e-10
-1.025169184567291e-10
-1.268404009689364e-10
-8.326351536191013e-11
-1.213963844958904e-10
-6.541217700745338e-11
-1.18975965770732e-10
-4.579683787248064e-11
-1.041475578045298e-10
-4.734013442317506e-11
-7.441076558909793e-12
-3.027652554825072e-10
-2.333587549371788e-10
-3.104114574342912e-10
-2.914603486215486e-10
-3.116433423772806e-10
-3.017895336754456e-10
-3.103120955263304e-10
-3.035351002815645e-10
-3.027937057637312e-10
-3.000002123205197e-10
-2.96390337259658e-10
-2.919266476818731e-10
-2.903176808325972e-10
-2.849743169511392e-10
-2.801725059166939e-10
-2.778420548366445e-10
-2.720173827520299e-10
-2.670427865832251e-10
-2.644486975732948e-10
-2.58849032001723e-10
-2.535266855180488e-10
-2.514291941711215e-10
-2.450479090798797e-10
-2.401060901930305e-10
-2.370068698819875e-10
-2.312191201238374e-10
-2.259291145328841e-10
-2.239548801800725e-10
-2.171124656901427e-10
-2.120903769508554e-10
-2.079060070616746e-10
-2.024715435196691e-10
-1.957570390649286e-10
-1.940104437899126e-10
-1.862391800310896e-10
-1.823697548351957e-10
-1.77066221700036e-10
-1.733418572917638e-10
-1.644404397424657e-10
-1.650162331307512e-10
-1.53295548560973e-10
-1.543087266616986e-10
-1.440436554258756e-10
-1.463114231149065e-10
-1.288842072230034e-10
-1.392533636419277e-10
-1.151587400258456e-10
-1.310920222243189e-10
-1.024569107756828e-10
-1.268273620548812e-10
-8.327164937354485e-11
-1.214427367888952e-10
-6.538489554865979e-11
-1.18877832215067e-10
-4.596603686275756e-11
-1.039087699201374e-10
-4.683183209443648e-11
-9.064835705337094e-12
-3.043544050792085e-10
-2.328560210649061e-10
-3.102812244138558e-10
-2.910956867421184e-10
-3.113834513096614e-10
-3.016991176444996e-10
-3.10135373339073e-10
-3.033870574634715e-10
-3.02794673925551e-10
-2.998860274746881e-10
-2.963010277249825e-10
-2.919642898529629e-10
-2.902256231456813e-10
-2.849054689842284e-10
-2.802273343733434e-10
-2.777839477777524e-10
-2.71970770299424e-10
-2.671003795753782e-10
-2.643877979914342e-10
-2.587995107809367e-10
-2.535855266903904e-10
-2.51378144861542e-10
-2.450036787681345e-10
-2.401735957452953e-10
-2.369613623463449e-10
-2.311859783158925e-10
-2.260033816868161e-10
-2.239014939632704e-10
-2.170663579108251e-10
-2.121637595391449e-10
-2.078733987288652e-10
-2.024433489479867e-10
-1.958296577571329e-10
-1.939613648544444e-10
-1.861997461049439e-10
-1.824553314681415e-10
-1.770261193275014e-10
-1.733127821257903e-10
-1.645111884358192e-10
-1.649922534768275e-10
-1.532791930050284e-10
-1.544168847931644e-10
-1.439955128243935e-10
-1.462952272654372e-10
-1.289412687419853e-10
-1.392280235777023e-10
-1.150987190109659e-10
-1.311866672326045e-10
-1.02392678443618e-10
-1.267890149269083e-10
-8.329064060235459e-11
-1.214703869582063e-10
-6.53681126472816e-11
-1.187283570490719e-10
-4.614527649542718e-11
-1.03645846259095e-10
-4.597206570353329e-11
-1.082450008867049e-11
-3.06495715239827e-10
-2.32489011079927e-10
-3.101323087531886e-10
-2.907164112584914e-10
-3.110634912629527e-10
-3.016129705492488e-10
-3.099183631737496e-10
-3.032128231303541e-10
-3.027949462547019e-10
-2.997485303952475e-10
-2.961891230303958e-10
-2.920144586299622e-10
-2.901127177405337e-10
-2.848171364431997e-10
-2.802960348040001e-10
-2.777094105673494e-10
-2.719095460730457e-10
-2.671748910391966e-10
-2.643122074479623e-10
-2.587355762132849e-10
-2.536609499845513e-10
-2.513134912290057e-10
-2.449475212021815e-10
-2.40258822524998e-10
-2.369042440527574e-10
-2.311455729912346e-10
-2.260982966272998e-10
-2.238323258344831e-10
-2.170050680459756e-10
-2.122542884580734e-10
-2.07830541453739e-10
-2.024049718126016e-10
-1.959225379915185e-10
-1.939010147927462e-10
-1.8614944689365e-10
-1.825596065410888e-10
-1.769762261243969e-10
-1.732721467849501e-10
-1.646018536921269e-10
-1.649564460449507e-10
-1.532566332860055e-10
-1.545452436266462e-10
-1.439379323266802e-10
-1.462647390182744e-10
-1.290210107562467e-10
-1.391863329198264e-10
-1.150384946497323e-10
-1.312912166497668e-10
-1.023253526326441e-10
-1.267155616588588e-10
-8.332299884446985e-11
-1.214665017326149e-10
-6.53729736545593e-11
-1.185108101642638e-10
-4.633958509294003e-11
-1.033545201099895e-10
-4.46747010376751e-11
-1.269554199493606e-11
-3.093739507640552e-10
-2.323650213444488e-10
-3.099611021941135e-10
-2.903310338481705e-10
-3.106568066878386e-10
-3.015322245872422e-10
-3.096477855644174e-10
-3.03003663537693e-10
-3.027931518407152e-10
-2.995827579027347e-10
-2.960440678242686e-10
-2.920762403927493e-10
-2.899727416160413e-10
-2.847029502701451e-10
-2.80382395789602e-10
-2.776153174803589e-10
-2.71828779788913e-10
-2.672710057911711e-10
-2.642202144681063e-10
-2.586565015084327e-10
-2.537578134707067e-10
-2.512296007619105e-10
-2.448748501482178e-10
-2.403659956461985e-10
-2.368313102075267e-10
-2.310935649956556e-10
-2.262183257114668e-10
-2.237461763109066e-10
-2.169236638155739e-10
-2.123642986566784e-10
-2.077736277296358e-10
-2.023504099385135e-10
-1.960406786427731e-10
-1.938286200571933e-10
-1.860851370206634e-10
-1.826876296871637e-10
-1.76914351873634e-10
-1.732175687157532e-10
-1.647190225922671e-10
-1.649069363904984e-10
-1.532250498430412e-10
-1.546974515097435e-10
-1.438700931856426e-10
-1.462137710222263e-10
-1.291318981601935e-10
-1.391254768077034e-10
-1.149803387391985e-10
-1.314059206587763e-10
-1.022563670482354e-10
-1.26590719637003e-10
-8.336745219145087e-11
-1.214150620269958e-10
-6.541498883524395e-11
-1.181975377668154e-10
-4.654054663897042e-11
-1.030407351866225e-10
-4.280933228933939e-11
-1.457013711661247e-11
-3.131830165058157e-10
-2.326499792556574e-10
-3.097647098519385e-10
-2.899726019319587e-10
-3.101594470405171e-10
-3.014645290602234e-10
-3.093121339962259e-10
-3.027510115859031e-10
-3.027801218243094e-10
-2.993845564488734e-10
-2.958578251042719e-10
-2.921473736265484e-10
-2.898010411875255e-10
-2.845551834874841e-10
-2.804834930561619e-10
-2.774982605589697e-10
-2.717228760346242e-10
-2.673875599918789e-10
-2.641087969226566e-10
-2.585557033616304e-10
-2.5387652300826e-10
-2.51125803261253e-10
-2.447812685278652e-10
-2.404954254496637e-10
-2.367430370370995e-10
-2.310297804004184e-10
-2.263656876753786e-10
-2.236394088624564e-10
-2.168149801197726e-10
-2.124929126158917e-10
-2.077033972951537e-10
-2.022773514115965e-10
-1.96185591241228e-10
-1.937445991414767e-10
-1.860041199143399e-10
-1.828396834491949e-10
-1.768406774760215e-10
-1.731435577328502e-10
-1.648645108133078e-10
-1.648440503145136e-10
-1.531847219227814e-10
-1.548743996964723e-10
-1.437923786142875e-10
-1.461356210429752e-10
-1.292760751551207e-10
-1.390426890721729e-10
-1.149277794728764e-10
-1.315272269942471e-10
-1.021898196918943e-10
-1.264000288867111e-10
-8.342111065262232e-11
-1.212897355467704e-10
-6.550571734463748e-11
-1.177671997074487e-10
-4.671894777638692e-11
-1.027226908361422e-10
-4.024934913259495e-11
-1.6231508199756e-11
-3.180644688101705e-10
-2.335638789866271e-10
-3.095681030284276e-10
-2.896897270356275e-10
-3.095836231923781e-10
-3.014108326437949e-10
-3.089142299938603e-10
-3.024540799343995e-10
-3.027378608951943e-10
-2.991639628057611e-10
-2.956260889762384e-10
-2.92208446830528e-10
-2.896018455121229e-10
-2.84371155470396e-10
-2.805842958583472e-10
-2.773648020779612e-10
-2.71590180709371e-10
-2.675125492141144e-10
-2.639880053330731e-10
-2.584399971808735e-10
-2.540066781566448e-10
-2.510056738738011e-10
-2.446674140552723e-10
-2.406346255164445e-10
-2.366460012890345e-10
-2.309551405734505e-10
-2.265262582149044e-10
-2.235228850199592e-10
-2.166803991777282e-10
-2.126230956484577e-10
-2.076237815486144e-10
-2.02181994534096e-10
-1.963442220188876e-10
-1.936607017488805e-10
-1.859091454221883e-10
-1.830050350117028e-10
-1.767632965523979e-10
-1.730541329835994e-10
-1.65028758852043e-10
-1.64778010258421e-10
-1.531399050042893e-10
-1.550617469887059e-10
-1.437120185536964e-10
-1.460268257235662e-10
-1.294428177971548e-10
-1.389492795998523e-10
-1.14892581139611e-10
-1.316395806996096e-10
-1.021314066567111e-10
-1.261323866217045e-10
-8.348073373707025e-11
-1.210772368059755e-10
-6.563764590590998e-11
-1.171962769038843e-10
-4.679311935172404e-11
-1.024341514482423e-10
-3.693718710573773e-11
-1.742438145447867e-11
-3.240653561890854e-10
-2.353153002261668e-10
-3.094356638487838e-10
-2.895299814622944e-10
-3.089526464733803e-10
-3.013596222246123e-10
-3.084814140827588e-10
-3.021302782903026e-10
-3.026267905694743e-10
-2.9894417001596e-10
-2.953630246645571e-10
-2.922182004980226e-10
-2.893924350324305e-10
-2.841633432358484e-10
-2.806453708966842e-10
-2.772336189692145e-10
-2.714435988519764e-10
-2.67606771211798e-10
-2.638760997241897e-10
-2.583273892335273e-10
-2.541114673930253e-10
-2.508849635690624e-10
-2.445502751080764e-10
-2.407459354185724e-10
-2.365605983850089e-10
-2.308890873044827e-10
-2.266574901846851e-10
-2.234119791369473e-10
-2.165350136106292e-10
-2.127143825008773e-10
-2.075507830045533e-10
-2.020750017282797e-10
-1.964772246507667e-10
-1.936000151736503e-10
-1.858162345887233e-10
-1.831469121647108e-10
-1.767011670518398e-10
-1.729678205081342e-10
-1.651766753043513e-10
-1.647311463432225e-10
-1.531112894685841e-10
-1.552184401460547e-10
-1.436428646511594e-10
-1.458997129687273e-10
-1.295927521351764e-10
-1.38869089679817e-10
-1.149027409615531e-10
-1.317045929408046e-10
-1.020891516693368e-10
-1.257974587957723e-10
-8.356307413742053e-11
-1.207932405454526e-10
-6.575437452005602e-11
-1.164607888573953e-10
-4.663453243199446e-11
-1.022064711869158e-10
-3.291445338288781e-11
-1.79142585685006e-11
-3.311424923038637e-10
-2.380172856573615e-10
-3.094758803652786e-10
-2.895316873670157e-10
-3.082955450953802e-10
-3.012873971329028e-10
-3.080293173920798e-10
-3.018217600871949e-10
-3.024174034619435e-10
-2.98730725540262e-10
-2.951111462776389e-10
-2.921413478329231e-10
-2.891672393469857e-10
-2.839640444676129e-10
-2.806281984972684e-10
-2.770979159959341e-10
-2.713158715337558e-10
-2.676391837621133e-10
-2.637748556914369e-10
-2.582692136775721e-10
-2.541601249408848e-10
-2.507474649359053e-10
-2.444727636406941e-10
-2.408014986505763e-10
-2.364787742106777e-10
-2.308737567904751e-10
-2.267168523648868e-10
-2.232934315048972e-10
-2.164219672608186e-10
-2.127322259412955e-10
-2.074683270341834e-10
-2.019837258525607e-10
-1.965510189300172e-10
-1.935583726177236e-10
-1.857630998982022e-10
-1.832393396391655e-10
-1.766473678953795e-10
-1.729321261483292e-10
-1.652800125446388e-10
-1.646994992671307e-10
-1.531474754991766e-10
-1.553040940264092e-10
-1.435602193531795e-10
-1.457882574737353e-10
-1.296916517160542e-10
-1.388050666807583e-10
-1.150184807087927e-10
-1.316901337963645e-10
-1.020297486139852e-10
-1.254295941600892e-10
-8.368288349794463e-11
-1.204613423354679e-10
-6.578037453305139e-11
-1.155553621111931e-10
-4.614020357571464e-11
-1.020813908795431e-10
-2.825820032343879e-11
-1.75377587359936e-11
-3.392119291841437e-10
-2.416162142807272e-10
-3.097756667814968e-10
-2.89746932515905e-10
-3.076723233787415e-10
-3.011805937747194e-10
-3.075338897116121e-10
-3.015719860344952e-10
-3.021259656824305e-10
-2.984952168374334e-10
-2.949135270018247e-10
-2.919876909137022e-10
-2.888942812606618e-10
-2.838085415711576e-10
-2.805219590717429e-10
-2.769090698271368e-10
-2.712386488973575e-10
-2.67619322575131e-10
-2.636643459543771e-10
-2.583083004939777e-10
-2.541508844639271e-10
-2.505551388140121e-10
-2.444718460023771e-10
-2.408092580772895e-10
-2.363601717321923e-10
-2.309345143755271e-10
-2.267033281011335e-10
-2.231312036416509e-10
-2.163764410904444e-10
-2.12683905376121e-10
-2.073312739555629e-10
-2.019400868251441e-10
-1.965801236027466e-10
-1.93485998398487e-10
-1.857744699633265e-10
-1.832982202445845e-10
-1.765796118520217e-10
-1.729925709976307e-10
-1.65336260981915e-10
-1.646392218807011e-10
-1.53281144595132e-10
-1.553136954213109e-10
-1.434090309582695e-10
-1.457309814903075e-10
-1.297515527698724e-10
-1.387303309362946e-10
-1.152610381488192e-10
-1.315900408270636e-10
-1.019047536299023e-10
-1.250766434793545e-10
-8.382586251388474e-11
-1.200791068788783e-10
-6.570026575997771e-11
-1.14535165067417e-10
-4.526887299492477e-11
-1.021053301538254e-10
-2.301168239497746e-11
-1.622652204898845e-11
-3.48126019705185e-10
-2.459509097064936e-10
-3.1037736335749e-10
-2.902331277303012e-10
-3.071975075288633e-10
-3.010565405850181e-10
-3.069407530839239e-10
-3.013614265350717e-10
-3.018169695277088e-10
-2.982469953868779e-10
-2.947335906446505e-10
-2.917883075841795e-10
-2.885957065033899e-10
-2.83688996733695e-10
-2.803367482611575e-10
-2.766234487091523e-10
-2.711800077709779e-10
-2.676039455386818e-10
-2.635686852810299e-10
-2.583910244935848e-10
-2.541083748502219e-10
-2.503409505892867e-10
-2.444920753341418e-10
-2.40793053951074e-10
-2.362109493277063e-10
-2.310025498949128e-10
-2.266660134662578e-10
-2.229620211281584e-10
-2.163679865439935e-10
-2.126184792983797e-10
-2.071716461952542e-10
-2.019404423436527e-10
-1.9658619053492e-10
-1.933757486542858e-10
-1.858150344520777e-10
-1.833395300153024e-10
-1.764991522252546e-10
-1.73088353371818e-10
-1.653593225298135e-10
-1.645460605438857e-10
-1.534378800515389e-10
-1.552916270832844e-10
-1.432493253713781e-10
-1.457343148195659e-10
-1.297923832924333e-10
-1.386001201187921e-10
-1.155072631940901e-10
-1.314462704403898e-10
-1.017843691042879e-10
-1.247565040838799e-10
-8.397366142192142e-11
-1.196476746355218e-10
-6.552768334691909e-11
-1.134883483908714e-10
-4.399908053033947e-11
-1.022915741618923e-10
-1.721435312925237e-11
-1.398598729450817e-11
-3.576689583894958e-10
-2.508266320811964e-10
-3.112845609119671e-10
-2.909823403193365e-10
-3.069527940610561e-10
-3.010199129788875e-10
-3.062999873656703e-10
-3.011226548225512e-10
-3.014771844556136e-10
-2.980057011658448e-10
-2.945125951872564e-10
-2.915638915864558e-10
-2.883196852265362e-10
-2.835450022541991e-10
-2.801233530838897e-10
-2.763352386045177e-10
-2.71083142505788e-10
-2.675800907354738e-10
-2.634896541346825e-10
-2.584249591692002e-10
-2.540551496123605e-10
-2.501700907670037e-10
-2.44465411676384e-10
-2.407618782647606e-10
-2.360820101113209e-10
-2.310177657476092e-10
-2.26631555123508e-10
-2.228356214267546e-10
-2.163456750428496e-10
-2.125663228743347e-10
-2.070613438654649e-10
-2.019544567571689e-10
-1.965656568095402e-10
-1.932727541520632e-10
-1.858372171691496e-10
-1.833564944377676e-10
-1.764242457570433e-10
-1.731300220138961e-10
-1.653599841164294e-10
-1.644654932167674e-10
-1.53536553404515e-10
-1.552741823905438e-10
-1.431689083187069e-10
-1.457400126583769e-10
-1.298125521017165e-10
-1.384343309801948e-10
-1.156577763979311e-10
-1.312935932786649e-10
-1.017553797947317e-10
-1.244542874399099e-10
-8.410536445992349e-11
-1.192095992170002e-10
-6.527381165282518e-11
-1.124761823439194e-10
-4.235775550761613e-11
-1.026505792029728e-10
-1.093363832720401e-11
-1.096215516062078e-11
-3.675797144515009e-10
-2.559842730682634e-10
-3.124433394046527e-10
-2.918990521640964e-10
-3.069311024800463e-10
-3.011651556727744e-10
-3.057219427126884e-10
-3.008481068405129e-10
-3.010584455126281e-10
-2.977730332155206e-10
-2.942537108319241e-10
-2.913099200500659e-10
-2.880781598555771e-10
-2.833567952682532e-10
-2.799068379830125e-10
-2.761490918265078e-10
-2.709575387171029e-10
-2.674887161974576e-10
-2.634071586493133e-10
-2.583999252507733e-10
-2.539789915557214e-10
-2.500553673060347e-10
-2.444032522481178e-10
-2.407092535172139e-10
-2.359946440041839e-10
-2.310001228672754e-10
-2.265785328138181e-10
-2.227511859369384e-10
-2.163023895791769e-10
-2.125077414188621e-10
-2.070081438940966e-10
-2.019655359672575e-10
-1.965167724919753e-10
-1.932005106561421e-10
-1.85832627590594e-10
-1.833465289421149e-10
-1.763778441488355e-10
-1.731247162913931e-10
-1.653302067582247e-10
-1.644188941093829e-10
-1.535894499380604e-10
-1.552474682525689e-10
-1.431589429334135e-10
-1.457007830219889e-10
-1.29799403195336e-10
-1.383015597663138e-10
-1.157492660405036e-10
-1.311104586089527e-10
-1.017996589714764e-10
-1.241604802116509e-10
-8.419539698241493e-11
-1.18821359666849e-10
-6.497679860475216e-11
-1.11522227868755e-10
-4.039746777636736e-11
-1.031957798012896e-10
-4.320542239277348e-12
-7.322998541259649e-12
-3.77614174409393e-10
-2.612279947784766e-10
-3.137777436286968e-10
-2.929166371367011e-10
-3.070289376618035e-10
-3.014386838827682e-10
-3.052430648858548e-10
-3.005841554770489e-10
-3.006052157025878e-10
-2.975595347794039e-10
-2.939714589843583e-10
-2.910231414119374e-10
-2.878664381163351e-10
-2.831568822270904e-10
-2.796715517811463e-10
-2.760285562507837e-10
-2.708326557756066e-10
-2.673480645169308e-10
-2.633349187710198e-10
-2.58339778594102e-10
-2.538705166002699e-10
-2.499835926399215e-10
-2.443224036089112e-10
-2.406380548623829e-10
-2.359411719748488e-10
-2.309637866879194e-10
-2.265011571885107e-10
-2.227014916249958e-10
-2.162465368991636e-10
-2.124342855371994e-10
-2.069946950115625e-10
-2.019709371914386e-10
-1.964451300307518e-10
-1.931596603802331e-10
-1.858070881663376e-10
-1.833127129867656e-10
-1.763609970972601e-10
-1.730956195018357e-10
-1.652724160578519e-10
-1.643986393760437e-10
-1.536129353168295e-10
-1.552009871025015e-10
-1.432022233514649e-10
-1.456350337091216e-10
-1.297514391111272e-10
-1.382023100811682e-10
-1.158127599254633e-10
-1.308934798374418e-10
-1.018900862143066e-10
-1.238771877247916e-10
-8.42379276663131e-11
-1.185023993205806e-10
-6.465481504075665e-11
-1.107047399192675e-10
-3.819823731845651e-11
-1.03872883003345e-10
2.414375776639588e-12
-3.219462352074577e-12
-3.87654596689968e-10
-2.663756928997308e-10
-3.152220326213427e-10
-2.942627320103846e-10
-3.070276587024019e-10
-3.016403657944965e-10
-3.049129653775283e-10
-3.003699101365081e-10
-3.001532764556116e-10
-2.973633702275829e-10
-2.936767866173608e-10
-2.907169085388314e-10
-2.876746141750849e-10
-2.829540882234127e-10
-2.794182858468507e-10
-2.759474277213097e-10
-2.707148290435789e-10
-2.671777360062677e-10
-2.632737814169842e-10
-2.582627622051673e-10
-2.537425129805637e-10
-2.499418566430857e-10
-2.442339985437402e-10
-2.405553255104502e-10
-2.359088108827299e-10
-2.309163113495988e-10
-2.264044807898528e-10
-2.226772328420845e-10
-2.161836048372421e-10
-2.12347962375484e-10
-2.069962122761283e-10
-2.019722065835552e-10
-1.963676041196963e-10
-1.931456168881642e-10
-1.85767608355521e-10
-1.832594467898089e-10
-1.763644969842216e-10
-1.730569060784157e-10
-1.651943273924114e-10
-1.643918035306682e-10
-1.536170211955947e-10
-1.551390829097539e-10
-1.432758071880407e-10
-1.45552634917512e-10
-1.296800236443362e-10
-1.381271466885723e-10
-1.158669003412594e-10
-1.306535218703031e-10
-1.020024776015322e-10
-1.236082507630417e-10
-8.424620517419438e-11
-1.182563990615123e-10
-6.424148587473238e-11
-1.102615327853215e-10