/*--------------------------------*- C++ -*----------------------------------*\
| =========                 |                                                 |
| \\      /  F ield         | OpenFOAM: The Open Source CFD Toolbox           |
|  \\    /   O peration     | Version:  v1812                                 |
|   \\  /    A nd           | Web:      www.OpenFOAM.com                      |
|    \\/     M anipulation  |                                                 |
\*---------------------------------------------------------------------------*/
FoamFile
{
    version     2.0;
    format      ascii;
    class       surfaceScalarField;
    location    "20000";
    object      phi;
}
// * * * * * * * * * * * * * * * * * * * * * * * * * * * * * * * * * * * * * //

dimensions      [0 3 -1 0 0 0 0];
oriented        oriented;


internalField   nonuniform List<scalar> 
7417
(
-0.0004738345183957551
-1.690220284276685e-13
-0.0004738345186973405
3.01468955471368e-13
-0.000473834518649485
-4.797186472765279e-14
-0.0004738345187361557
8.675345171456862e-14
-0.000473834518735268
-6.551118378854711e-16
-0.0004738345187581808
2.306452853087342e-14
-0.0004738345187824181
2.425175740273473e-14
-0.0004738345187909091
8.470483686333498e-15
-0.0004738345187916606
6.363713573845264e-16
-0.0004738345188117457
1.968287876963101e-14
-0.0004738345188105153
-9.608649145858479e-16
-0.0004738345188099867
-4.904063054612674e-16
-0.0004738345188270649
1.70433577269084e-14
-0.0004738345188233243
-3.72188900054472e-15
-0.0004738345188192615
-4.106624620985373e-15
-0.0004738345188330693
1.367226740007371e-14
-0.0004738345188280693
-5.100601800132244e-15
-0.0004738345188231484
-4.985608764684062e-15
-0.0004738345188371058
1.39665507112266e-14
-0.0004738345188318659
-4.953488562721867e-15
-0.0004738345188273301
-4.957937824216199e-15
-0.0004738345188405034
1.309034253736973e-14
-0.0004738345188351479
-5.392687492236301e-15
-0.0004738345188292396
-5.898157280669478e-15
-0.0004738345188426321
1.343656231489399e-14
-0.0004738345188363376
-6.257856518644399e-15
-0.000473834518831956
-4.301470900063726e-15
-0.0004738345188452102
1.318903746149819e-14
-0.000473834518838795
-6.454627860469846e-15
-0.0004738345188308279
-7.929489546963194e-15
-0.0004738345188424745
1.168929784723658e-14
-0.0004738345188343226
-7.79224212129366e-15
-0.0004738345188294193
-5.134427423200971e-15
-0.0004738345188408197
1.14024406196259e-14
-0.0004738345188346157
-6.18715735548571e-15
-0.0004738345188262182
-8.697638992334354e-15
-0.0004738345188385542
1.278814169186152e-14
-0.000473834518829312
-9.328941665344496e-15
-0.0004738345188256325
-3.747337829872451e-15
-0.0004738345188354753
9.81279076454623e-15
-0.0004738345188303019
-5.191845011129616e-15
-0.0004738345188188304
-1.13996550939572e-14
-0.0004738345188369771
1.814171204956316e-14
-0.0004738345188234894
-1.350234893680269e-14
-0.0004738345188237346
1.785409275889785e-16
-0.0004738345188256239
1.804587246420455e-15
-0.0004738345188296239
3.900565684903845e-15
-0.0004738345188068132
-2.291874118302265e-14
-0.0004738345188369349
3.029337415936799e-14
-0.0004738345188040198
-3.293091116087282e-14
-0.0004738345188200928
1.614273826323134e-14
-0.0004738345187847047
-3.539824641156054e-14
-0.0004738345188212484
3.644459211527265e-14
-0.0004738345187548304
-6.639551420678341e-14
-0.0004738345188023349
4.747560405825579e-14
-0.0004738345187126038
-8.980216279099566e-14
-0.0004738345187463342
3.359485466174004e-14
-1.699644978171818e-13
-0.000144277319927452
-2.911796526762864e-13
-0.0001442773201919758
5.658431401326646e-13
-0.0001442773202080334
-3.1931746911767e-14
-0.0001442773202770985
1.55979339675419e-13
-0.0001442773202965487
1.922206033813323e-14
-0.0001442773203155194
4.2319657828267e-14
-0.0001442773203481159
5.682061877084587e-14
-0.000144277320352839
1.316331301477134e-14
-0.0001442773203562048
3.837676102989314e-15
-0.0001442773203771762
4.025165324749007e-14
-0.0001442773203764628
-1.496337317412526e-15
-0.0001442773203758583
-9.351549616453636e-16
-0.0001442773203955354
3.668418030454632e-14
-0.0001442773203913734
-7.88530374360892e-15
-0.0001442773203869036
-8.653458024520814e-15
-0.0001442773204023814
2.894771408810454e-14
-0.0001442773203967826
-1.086362540379904e-14
-0.0001442773203915519
-1.035136168315502e-14
-0.0001442773204072121
2.967573406181205e-14
-0.0001442773204011734
-1.083643439772121e-14
-0.0001442773203960268
-1.038443975667543e-14
-0.000144277320411139
2.822990520312003e-14
-0.0001442773204047311
-1.184211399096548e-14
-0.0001442773203984635
-1.218607018342689e-14
-0.0001442773204131703
2.821628571843163e-14
-0.0001442773204060972
-1.329353444991038e-14
-0.0001442773204011444
-9.147374256186899e-15
-0.0001442773204163836
2.843976996058494e-14
-0.0001442773204087982
-1.412495702845724e-14
-0.0001442773204005912
-1.611435187021578e-14
-0.0001442773204133863
2.450722261902989e-14
-0.000144277320404938
-1.607126409066121e-14
-0.0001442773203983899
-1.180024569231676e-14
-0.0001442773204116037
2.46054374130188e-14
-0.0001442773204033523
-1.437671231437069e-14
-0.0001442773203955776
-1.650780594728945e-14
-0.000144277320409183
2.666339315169657e-14
-0.0001442773204008719
-1.777711839811445e-14
-0.000144277320393953
-1.0779895400874e-14
-0.0001442773204059864
2.182410766389854e-14
-0.0001442773203978059
-1.33387125530339e-14
-0.0001442773203913059
-1.778288440905137e-14
-0.000144277320406616
3.342958155813232e-14
-0.0001442773203962966
-2.393475193582563e-14
-0.000144277320388764
-7.51274707677996e-15
-0.0001442773203982939
1.116995995541238e-14
-0.0001442773203908682
-3.636812426664095e-15
-0.0001442773203799967
-3.371437966436119e-14
-0.0001442773203970792
4.751090821682869e-14
-0.0001442773203790531
-5.102844841610227e-14
-0.000144277320374435
1.156144171122812e-14
-0.0001442773203630444
-4.68420331897654e-14
-0.0001442773203700174
4.327900949700379e-14
-0.0001442773203344282
-1.018333120146046e-13
-0.0001442773203451969
5.826603031128891e-14
-0.0001442773202878378
-1.474180205036729e-13
-0.000144277320296093
4.165258161447234e-14
-4.163332582778292e-13
6.800294967103102e-06
-4.281045542341025e-13
6.800294746706082e-06
7.862414892963843e-13
6.800294681222341e-06
3.350246459225472e-14
6.800294624141493e-06
2.129977990894704e-13
6.800294588766105e-06
5.452051796042238e-14
6.800294569469654e-06
6.152650985015322e-14
6.800294535272327e-06
9.103744650088015e-14
6.800294529491082e-06
1.894665683888492e-14
6.800294521621933e-06
1.171918377686766e-14
6.800294503022803e-06
5.883549498739455e-14
6.800294501815959e-06
-2.440353914881433e-16
6.800294500394979e-06
4.345935032446314e-16
6.800294483138462e-06
5.394347001421486e-14
6.80029448569889e-06
-1.04372253297533e-14
6.800294487614375e-06
-1.054440564832938e-14
6.800294474539401e-06
4.204259740770073e-14
6.800294478853471e-06
-1.513523571281848e-14
6.800294481900674e-06
-1.337093930265092e-14
6.800294468996912e-06
4.256130963200806e-14
6.800294473926473e-06
-1.569611484292233e-14
6.800294477137095e-06
-1.36923438887267e-14
6.800294464735537e-06
4.057056558548637e-14
6.800294470148382e-06
-1.725104613785873e-14
6.800294474245507e-06
-1.626878684194273e-14
6.800294462419117e-06
4.002477792127928e-14
6.800294468486266e-06
-1.935905562261356e-14
6.800294471968574e-06
-1.264382606893945e-14
6.800294459637443e-06
4.072981171812198e-14
6.800294466089356e-06
-2.056617019585291e-14
6.800294471768284e-06
-2.177322120526707e-14
6.800294461823862e-06
3.445983677079425e-14
6.800294469044596e-06
-2.317039665224703e-14
6.800294474130236e-06
-1.694330742675664e-14
6.800294463447796e-06
3.528560108174837e-14
6.800294471019901e-06
-2.19615774900013e-14
6.800294476282947e-06
-2.193417954473653e-14
6.800294465935333e-06
3.712372261361721e-14
6.80029447249712e-06
-2.432389786602306e-14
6.800294478486116e-06
-1.673366955143512e-14
6.800294468484963e-06
3.181324334466669e-14
6.800294477025148e-06
-2.189803853165434e-14
6.800294480094931e-06
-2.089023340660209e-14
6.800294469888859e-06
4.36570525139813e-14
6.80029447664277e-06
-3.06411491216792e-14
6.800294485053238e-06
-1.584344233914176e-14
6.800294474736865e-06
2.150999705349166e-14
6.800294486003045e-06
-1.490184250658611e-14
6.800294489610162e-06
-3.744793321336595e-14
6.800294482222816e-06
5.491831814965057e-14
6.800294490940679e-06
-5.972292706040557e-14
6.800294502373066e-06
1.57316133112333e-16
6.800294503139731e-06
-4.758808600763194e-14
6.800294510353198e-06
3.609614011925266e-14
6.800294529558921e-06
-1.210979312752172e-13
6.800294532514192e-06
5.526985803931918e-14
6.800294577195772e-06
-1.920200312341644e-13
6.800294571255164e-06
4.759754858147698e-14
-6.753717442932451e-13
8.733127170610593e-05
-5.885711504748481e-13
8.733127153736508e-05
9.548674039526269e-13
8.73312714451427e-05
1.257123332029727e-13
8.733127139297624e-05
2.652709186832137e-13
8.733127134787197e-05
9.987360289241075e-14
8.733127132794712e-05
8.161023240537573e-14
8.73312712918011e-05
1.2717248143604e-13
8.733127128319954e-05
2.753670422622264e-14
8.733127127311562e-05
2.171044731831066e-14
8.733127125507676e-05
7.666941344971419e-14
8.733127125155595e-05
3.342253678332326e-15
8.733127124949916e-05
2.583436005981515e-15
8.7331271233224e-05
7.020697348277689e-14
8.733127123376657e-05
-1.097357011049935e-14
8.733127123484739e-05
-1.166490627010239e-14
8.733127122286199e-05
5.391359411926145e-14
8.733127122556345e-05
-1.792574772086503e-14
8.73312712281872e-05
-1.606819315864171e-14
8.733127121665519e-05
5.412707997113523e-14
8.73312712200588e-05
-1.90569730428234e-14
8.733127122295369e-05
-1.672152768642581e-14
8.733127121190442e-05
5.163985765860288e-14
8.733127121588298e-05
-2.123909868908646e-14
8.733127121962127e-05
-2.001464583943546e-14
8.733127120927111e-05
5.041589054698158e-14
8.733127121395995e-05
-2.403452438644592e-14
8.733127121744891e-05
-1.609066349544696e-14
8.73312712065736e-05
5.16213187972705e-14
8.733127121152579e-05
-2.557042005369745e-14
8.7331271216713e-05
-2.694263498264662e-14
8.73312712083451e-05
4.284243269543639e-14
8.7331271214193e-05
-2.896332254150924e-14
8.733127121930486e-05
-2.208407180889001e-14
8.733127120988163e-05
4.470148895452843e-14
8.733127121616528e-05
-2.821838272293538e-14
8.733127122100427e-05
-2.675510501064622e-14
8.73312712125553e-05
4.568412268759792e-14
8.733127121757753e-05
-2.941272121561638e-14
8.733127122382764e-05
-2.304867639664402e-14
8.733127121469268e-05
4.092759000376747e-14
8.733127122264152e-05
-2.98386539945252e-14
8.733127122520577e-05
-2.339052913431639e-14
8.733127121758972e-05
5.12707359968649e-14
8.73312712216432e-05
-3.475800434675994e-14
8.733127123114965e-05
-2.542019154496088e-14
8.733127122047172e-05
3.209599209059971e-14
8.733127123254706e-05
-2.70548866588723e-14
8.733127123367401e-05
-3.853604123470447e-14
8.733127123087171e-05
5.777647446995563e-14
8.733127123418546e-05
-6.308106946835827e-14
8.733127124908828e-05
-1.472090805596333e-14
8.733127124556006e-05
-4.405394509945974e-14
8.733127125830871e-05
2.32702200624938e-14
8.733127127048616e-05
-1.332146537805768e-13
8.733127127884967e-05
4.694460953403173e-14
8.733127131838484e-05
-2.316592695787496e-13
8.733127130812432e-05
5.773155907789956e-14
-9.128200968437789e-13
0.0001454900178154814
-7.676955017103079e-13
0.0001454900176961905
1.074204885267643e-12
0.0001454900175919142
2.299679167645615e-13
0.0001454900175424773
3.146344410773814e-13
0.0001454900174914766
1.507118567113323e-13
0.0001454900174704187
1.025566584738808e-13
0.0001454900174332446
1.643773448194431e-13
0.0001454900174217903
3.899286038970283e-14
0.0001454900174101904
3.334388811344732e-14
0.0001454900173924936
9.441193123703107e-14
0.0001454900173868784
8.964443865087659e-15
0.0001454900173842701
5.116574480990266e-15
0.0001454900173688063
8.5674463874343e-14
0.0001454900173674828
-9.64402851479737e-15
0.0001454900173679785
-1.213479046109048e-14
0.000145490017356914
6.504326610043797e-14
0.0001454900173580896
-1.904519829375455e-14
0.0001454900173604849
-1.841401104751774e-14
0.0001454900173501246
6.446277573171967e-14
0.0001454900173520705
-2.097673210325983e-14
0.0001454900173547969
-1.947173398316814e-14
0.0001454900173449111
6.146697825050035e-14
0.0001454900173474919
-2.381806533970481e-14
0.0001454900173510835
-2.35857609981254e-14
0.0001454900173419895
5.948725346229842e-14
0.0001454900173453468
-2.739972127838866e-14
0.0001454900173488863
-1.964917182714576e-14
0.0001454900173392479
6.122433765750109e-14
0.0001454900173427803
-2.908224858586537e-14
0.0001454900173477774
-3.193742904405729e-14
0.0001454900173407346
4.988444685241747e-14
0.0001454900173452931
-3.345915954270193e-14
0.0001454900173504941
-2.731035407329887e-14
0.000145490017342237
5.295535111650887e-14
0.0001454900173472058
-3.319664204718971e-14
0.0001454900173519054
-3.156360160440178e-14
0.0001454900173449763
5.265514780203217e-14
0.0001454900173486758
-3.307408117652908e-14
0.0001454900173551446
-2.947432883489243e-14
0.0001454900173469682
4.909436115146476e-14
0.0001454900173539554
-3.684737230663451e-14
0.0001454900173564353
-2.591511609311345e-14
0.0001454900173506275
5.709570779871364e-14
0.0001454900173527523
-3.681050755889279e-14
0.0001454900173628146
-3.540059136708525e-14
0.0001454900173526053
4.234382359216534e-14
0.0001454900173642945
-3.872560380383143e-14
0.0001454900173644641
-3.879854525141005e-14
0.0001454900173642269
5.800918524899154e-14
0.0001454900173644062
-6.322907027618883e-14
0.0001454900173804797
-3.077944746363703e-14
0.0001454900173755989
-3.914496653596841e-14
0.0001454900173901879
8.72523273338843e-15
0.0001454900173993948
-1.424933744045862e-13
0.0001454900174090677
3.722631689726354e-14
0.0001454900174466415
-2.691352316420208e-13
0.0001454900174324969
7.192363179336184e-14
-1.116785673266846e-12
0.0001929915183782488
-9.57972691409784e-13
0.00019299151830579
1.146530158097205e-12
0.0001929915181966765
3.390347557630504e-13
0.0001929915181497495
3.616483017426625e-13
0.0001929915180947343
2.059321555864924e-13
0.0001929915180723675
1.250416308650062e-13
0.0001929915180346113
2.021306311754116e-13
0.000192991518020581
5.301691592798424e-14
0.0001929915180075373
4.631423964609629e-14
0.0001929915179901147
1.116877294349706e-13
0.0001929915179826484
1.646023195310823e-14
0.0001929915179793132
8.520247833468568e-15
0.0001929915179646138
1.003705512221858e-13
0.000192991517961688
-6.706470765866889e-15
0.0001929915179615036
-1.197360672209489e-14
0.0001929915179512953
7.516374558325978e-14
0.0001929915179511439
-1.89527267890036e-14
0.0001929915179531743
-2.049161364678059e-14
0.0001929915179439194
7.374871567100379e-14
0.0001929915179446185
-2.167362716884542e-14
0.0001929915179470363
-2.199607590008981e-14
0.0001929915179382555
7.025144479120971e-14
0.0001929915179396361
-2.51915550114399e-14
0.0001929915179429579
-2.690582608577693e-14
0.0001929915179350451
6.742826892222354e-14
0.0001929915179372524
-2.95970247071579e-14
0.000192991517940644
-2.302321034214935e-14
0.0001929915179321827
6.969420023185043e-14
0.0001929915179345289
-3.147979457851943e-14
0.0001929915179392554
-3.664103928310324e-14
0.0001929915179334526
5.570562785497737e-14
0.0001929915179369178
-3.689095904932854e-14
0.0001929915179420353
-3.242440624958993e-14
0.0001929915179349297
6.005493328952679e-14
0.0001929915179387704
-3.702606461440411e-14
0.000192991517943231
-3.600925988743813e-14
0.0001929915179376867
5.826998340451782e-14
0.0001929915179403072
-3.573008846292958e-14
0.0001929915179467933
-3.600507124961007e-14
0.0001929915179396321
5.622795752405641e-14
0.0001929915179457059
-4.292826474738935e-14
0.0001929915179480033
-2.817418194911024e-14
0.000192991517943744
6.136994815433775e-14
0.0001929915179444002
-3.750429566060272e-14
0.0001929915179546595
-4.568289187506666e-14
0.0001929915179452123
5.172147808396719e-14
0.0001929915179563084
-4.989953103815886e-14
0.00019299151795581
-3.830310786985349e-14
0.0001929915179575029
5.63451650438036e-14
0.0001929915179555113
-6.127033240551731e-14
0.0001929915179719063
-4.714248825034123e-14
0.0001929915179666163
-3.380469154453467e-14
0.0001929915179820496
-6.770898661360902e-15
0.0001929915179894951
-1.499394602635094e-13
0.0001929915179992245
2.753992145391872e-14
0.0001929915180355306
-3.05475271513567e-13
0.0001929915180197779
8.756222156773931e-14
-1.284912994698824e-12
0.000236418066241727
-1.154582058514579e-12
0.0002364180662127975
1.175517124934355e-12
0.0002364180661029865
4.488461341122779e-13
0.0002364180660586335
4.059100772220145e-13
0.0002364180660006405
2.637537164450737e-13
0.0002364180659767521
1.488002631100553e-13
0.000236418065938494
2.404240105424996e-13
0.0002364180659220819
6.942974704306151e-14
0.0002364180659074478
6.098304129615094e-14
0.0002364180658901467
1.290677289021394e-13
0.0002364180658809925
2.561055776521152e-14
0.0002364180658767054
1.273222681637014e-14
0.0002364180658626498
1.144256302614582e-13
0.0002364180658583401
-2.391797091961083e-15
0.0002364180658573245
-1.092596549927865e-14
0.0002364180658478643
8.469516665038741e-14
0.0002364180658465656
-1.758440556628987e-14
0.0002364180658480599
-2.193574634977356e-14
0.0002364180658398203
8.196200005674715e-14
0.0002364180658394819
-2.1327630949456e-14
0.000236418065841437
-2.393923567616318e-14
0.0002364180658336828
7.795873279920633e-14
0.0002364180658340631
-2.557589804777332e-14
0.0002364180658369633
-2.978875389333925e-14
0.0002364180658301465
7.421385558639122e-14
0.0002364180658313979
-3.086150363404322e-14
0.0002364180658344451
-2.608725511275143e-14
0.0002364180658270839
7.702749293574992e-14
0.0002364180658284818
-3.284651542024051e-14
0.000236418065832821
-4.098180975031899e-14
0.0002364180658281812
6.033520444484975e-14
0.0002364180658307669
-3.942581551901231e-14
0.0002364180658356391
-3.731433421389331e-14
0.0002364180658296477
6.604144884623498e-14
0.0002364180658325837
-3.996282495072415e-14
0.000236418065836673
-4.01870610206285e-14
0.0002364180658324054
6.254674654646933e-14
0.0002364180658341751
-3.746480241659229e-14
0.0002364180658405146
-4.229725901003258e-14
0.0002364180658343727
6.23617334863088e-14
0.0002364180658396857
-4.82568438735861e-14
0.0002364180658416467
-3.01909969018924e-14
0.0002364180658387786
6.424278032782235e-14
0.0002364180658383052
-3.696047739570216e-14
0.0002364180658485324
-5.583026428646993e-14
0.000236418065839956
6.033224289944049e-14
0.0002364180658505213
-6.043811580401174e-14
0.0002364180658493909
-3.725039421394361e-14
0.0002364180658527144
5.300661733420786e-14
0.0002364180658491492
-5.767749125780044e-14
0.0002364180658654764
-6.346108549862231e-14
0.0002364180658601863
-2.850101334979129e-14
0.0002364180658761322
-2.267018863365276e-14
0.000236418065882445
-1.563002522456486e-13
0.0002364180658917141
1.822295124196551e-14
0.0002364180659270868
-3.407681575499943e-13
0.0002364180659117883
1.029187283750328e-13
-1.418379268418037e-12
0.0002821498008577011
-1.354929159157386e-12
0.000282149800869804
1.163286239401911e-12
0.0002821498007614109
5.571612730478917e-13
0.0002821498007195381
4.478292648568278e-13
0.0002821498006587719
3.246681041696422e-13
0.0002821498006329427
1.747073998983112e-13
0.0002821498005938615
2.794991818696094e-13
0.0002821498005750122
8.827413865057407e-14
0.0002821498005584293
7.75110616515467e-14
0.0002821498005409218
1.46464624810445e-13
0.0002821498005300694
3.645844535035974e-14
0.0002821498005245481
1.830060840920489e-14
0.0002821498005109005
1.280763650329648e-13
0.0002821498005053115
3.210618552615497e-15
0.000282149800503278
-8.896940846138984e-15
0.000282149800494387
9.352613695177322e-14
0.0002821498004920461
-1.527905307466496e-14
0.0002821498004928306
-2.274234579644368e-14
0.0002821498004854672
8.935532933718533e-14
0.0002821498004842465
-2.012875860301239e-14
0.0002821498004855966
-2.539166668334469e-14
0.0002821498004787552
8.477700034617618e-14
0.0002821498004782902
-2.508939499018991e-14
0.0002821498004806381
-3.212297890678942e-14
0.0002821498004748034
8.006515070202707e-14
0.0002821498004752574
-3.130202052990448e-14
0.0002821498004778017
-2.862698380466127e-14
0.0002821498004714373
8.338407200407945e-14
0.0002821498004720833
-3.355845954114399e-14
0.0002821498004759487
-4.482095850153756e-14
0.0002821498004723915
6.391747583607951e-14
0.0002821498004742909
-4.129446734095334e-14
0.0002821498004788147
-4.181044851567691e-14
0.0002821498004738766
7.097378531382408e-14
0.0002821498004761115
-4.219541487817654e-14
0.0002821498004797327
-4.381426440970315e-14
0.0002821498004766486
6.567826842598402e-14
0.0002821498004777609
-3.858154304396746e-14
0.0002821498004838614
-4.841872439498686e-14
0.0002821498004787037
6.748290049116697e-14
0.0002821498004834448
-5.301772885517791e-14
0.0002821498004849459
-3.16828941685811e-14
0.000282149800483364
6.585941641562152e-14
0.0002821498004820018
-3.560403133517596e-14
0.0002821498004920942
-6.589537398919612e-14
0.0002821498004843913
6.798313581193697e-14
0.0002821498004946022
-7.072600070134374e-14
0.0002821498004928056
-3.550760806453641e-14
0.0002821498004976359
4.818287320082635e-14
0.0002821498004928927
-5.295304948126181e-14
0.0002821498005090325
-7.955813975101908e-14
0.0002821498005039308
-2.330299879951546e-14
0.0002821498005203165
-3.909317913629771e-14
0.0002821498005260081
-1.620633793488145e-13
0.0002821498005346064
9.65057397220379e-15
0.0002821498005695205
-3.756586376771186e-13
0.0002821498005562915
1.160374832538489e-13
-1.51932438161666e-12
0.0003384500741620561
-1.560222805039989e-12
0.0003384500742151536
1.11024393332995e-12
0.0003384500741090627
6.632823034198371e-13
0.0003384500740693727
4.87436459318615e-13
0.0003384500740052156
3.886591212742675e-13
0.0003384500739766509
2.031544189029288e-13
0.0003384500739359644
3.202183012466958e-13
0.0003384500739142302
1.100144884437681e-13
0.0003384500738950179
9.675741747177919e-14
0.0003384500738767508
1.648053601335774e-13
0.0003384500738639348
4.927853915653635e-14
0.0003384500738567514
2.542498050194511e-14
0.000338450073843144
1.416762309556894e-13
0.0003384500738362034
1.014085375293918e-14
0.0003384500738328661
-5.52821052715293e-15
0.0003384500738242971
1.021676226559116e-13
0.0003384500738209007
-1.182077239261396e-14
0.0003384500738207543
-2.255827081041756e-14
0.0003384500738141019
9.597463293865453e-14
0.0003384500738120646
-1.809802687076574e-14
0.0003384500738126451
-2.594979549518658e-14
0.0003384500738065966
9.079313095284763e-14
0.0003384500738053646
-2.38638730201227e-14
0.0003384500738070118
-3.376917746472619e-14
0.000338450073802053
8.499078300555668e-14
0.0003384500738018134
-3.106776969975668e-14
0.000338450073803697
-3.052301129675705e-14
0.0003384500737982245
8.88234767835836e-14
0.000338450073798259
-3.355352005501983e-14
0.0003384500738015721
-4.812257500958136e-14
0.0003384500737990525
6.640914941873273e-14
0.0003384500738004269
-4.263023402818793e-14
0.0003384500738045315
-4.593369310641467e-14
0.0003384500738006087
7.487656024282024e-14
0.0003384500738023126
-4.388356316626943e-14
0.0003384500738053815
-4.694906020006155e-14
0.0003384500738034358
6.762287502046216e-14
0.0003384500738040384
-3.915977120664532e-14
0.0003384500738098555
-5.420031710335111e-14
0.0003384500738056615
7.166967569998437e-14
0.0003384500738100296
-5.737242019640984e-14
0.0003384500738109599
-3.266112974640627e-14
0.0003384500738106389
6.617283624138813e-14
0.0003384500738085414
-3.344387982748076e-14
0.0003384500738184841
-7.577902879865382e-14
0.0003384500738116349
7.48588226601813e-14
0.0003384500738217448
-8.078519516818486e-14
0.0003384500738192047
-3.302196931696922e-14
0.0003384500738255663
4.180859969881982e-14
0.0003384500738199097
-4.72660960801554e-14
0.000338450073835897
-9.553815754267938e-14
0.000338450073831112
-1.855598797759389e-14
0.0003384500738479993
-5.594853814762724e-14
0.0003384500738536483
-1.677103173979052e-13
0.0003384500738614409
1.823715042315138e-15
0.0003384500738967001
-4.108667303048861e-13
0.000338450073886938
1.258593903830918e-13
-1.589294525613526e-12
0.0004164091901446375
-1.772539676147556e-12
0.0004164091902426011
1.012223782187807e-12
0.0004164091901397931
7.660060581424376e-13
0.0004164091901020354
5.251662826866248e-13
0.000416409190033281
4.574285281521506e-13
0.0004164091900007106
2.357468760206186e-13
0.0004164091899572682
3.636676188272164e-13
0.0004164091899317441
1.355259461393293e-13
0.0004164091899087871
1.196881179182075e-13
0.0004164091898889547
1.845631657560857e-13
0.0004164091898735819
6.459735981362228e-14
0.0004164091898640356
3.495867863778552e-14
0.0004164091898499952
1.557203899501796e-13
0.0004164091898414272
1.874207337873761e-14
0.0004164091898362993
-3.784988656718156e-16
0.0004164091898277578
1.107058461370143e-13
0.0004164091898231431
-7.20436371291187e-15
0.0004164091898216977
-2.109697160708292e-14
0.000416409189815606
1.020912983371723e-13
0.0004164091898127133
-1.524246784594277e-14
0.0004164091898122446
-2.557802635231414e-14
0.000416409189806912
9.606276453793849e-14
0.0004164091898049078
-2.18376018953575e-14
0.0004164091898056173
-3.443946831118867e-14
0.0004164091898014808
8.913483741702255e-14
0.0004164091898005816
-3.017008112366995e-14
0.0004164091898015705
-3.150331601036113e-14
0.0004164091897969594
9.341801446503476e-14
0.0004164091897964607
-3.315604109513695e-14
0.0004164091897990873
-5.075065948255599e-14
0.0004164091897976501
6.788286711247872e-14
0.0004164091897986225
-4.356050321699154e-14
0.000416409189802207
-4.94620596289803e-14
0.0004164091897993544
7.773952351325755e-14
0.0004164091898006529
-4.519255279173213e-14
0.0004164091898030389
-4.937417153486282e-14
0.0004164091898022967
6.839070001653562e-14
0.0004164091898024998
-3.933458280816951e-14
0.0004164091898079633
-5.964496209502447e-14
0.000416409189804797
7.479830012787666e-14
0.0004164091898089808
-6.162221735721485e-14
0.0004164091898092026
-3.291431604155285e-14
0.0004164091898102604
6.517961002794253e-14
0.0004164091898075246
-3.066345160370197e-14
0.0004164091898172939
-8.545315889744085e-14
0.0004164091898113549
8.077400875737527e-14
0.0004164091898216241
-9.11431253338313e-14
0.0004164091898182162
-2.97249591684596e-14
0.0004164091898262888
3.371268548347137e-14
0.0004164091898199539
-4.094464170965584e-14
0.0004164091898358103
-1.113395743748481e-13
0.0004164091898315561
-1.413653376242828e-14
0.0004164091898489584
-7.334931172865595e-14
0.0004164091898553535
-1.742565998695943e-13
0.0004164091898620866
-4.926975990381576e-15
0.0004164091898988373
-4.475237664764703e-13
0.0004164091898942479
1.30389503865448e-13
-1.627213172359793e-12
0.0005296279305868906
-1.994058740870817e-12
0.0005296279307375238
8.616300701671604e-13
0.0005296279306412845
8.622841115761152e-13
0.0005296279306059457
5.604527036308584e-13
0.000529627930531722
5.315239511718584e-13
0.0005296279304934542
2.739211849730264e-13
0.0005296279304460672
4.1106660288593e-13
0.000529627930415483
1.661203150230683e-13
0.0005296279303872221
1.479801481895506e-13
0.0005296279303648193
2.070239360221277e-13
0.00052962793034599
8.344885830881639e-14
0.0005296279303329939
4.791736503790511e-14
0.0005296279303180131
1.706842116155983e-13
0.0005296279303073447
2.939539458442473e-14
0.0005296279302996268
7.354997450542685e-15
0.0005296279302908175
1.195690554913083e-13
0.0005296279302846753
-1.015067492668829e-15
0.0005296279302812965
-1.770065403522552e-14
0.0005296279302756799
1.076766139137391e-13
0.0005296279302718045
-1.136467049954277e-14
0.0005296279302697768
-2.352398595840209e-14
0.0005296279302652
1.006100936245083e-13
0.0005296279302623547
-1.900385368998032e-14
0.000529627930261677
-3.377274739607305e-14
0.0005296279302584333
9.235159756521876e-14
0.0005296279302568629
-2.859579039145236e-14
0.0005296279302565366
-3.118382373221194e-14
0.0005296279302529062
9.700904194529403e-14
0.0005296279302519222
-3.210939534691303e-14
0.0005296279302535654
-5.236357052947611e-14
0.0005296279302534005
6.801483973852146e-14
0.0005296279302540784
-4.422631305225215e-14
0.0005296279302569023
-5.232198795398743e-14
0.0005296279302553511
7.926407619634865e-14
0.0005296279302563402
-4.615840493355421e-14
0.0005296279302577689
-5.084533960265604e-14
0.0005296279302584563
6.771219917578887e-14
0.0005296279302583642
-3.923280614554361e-14
0.0005296279302632392
-6.450474072756983e-14
0.000529627930261341
7.668868307145969e-14
0.0005296279302655075
-6.576314573982593e-14
0.0005296279302647967
-3.221565171875496e-14
0.0005296279302675403
6.242252096995916e-14
0.0005296279302643039
-2.738278680439933e-14
0.0005296279302736853
-9.481012272416427e-14
0.0005296279302689343
8.554309216955121e-14
0.0005296279302795374
-1.016930364282042e-13
0.0005296279302751045
-2.530063639855225e-14
0.0005296279302851441
2.367397212994045e-14
0.0005296279302785422
-3.431929804081372e-14
0.0005296279302939746
-1.26768913402047e-13
0.0005296279302907027
-1.091981080569919e-14
0.0005296279303082397
-9.08680637438069e-14
0.0005296279303165787
-1.825729866739562e-13
0.0005296279303216641
-1.003635784428039e-14
0.0005296279303611566
-4.869800322974822e-13
0.0005296279303644542
1.271280285079188e-13
-1.628280496287996e-12
0.0006922088324131716
-2.220499732760251e-12
0.0006922088326251151
6.497444159617381e-13
0.0006922088325439968
9.433604549028245e-13
0.0006922088325131288
5.911960368946842e-13
0.0006922088324344796
6.099841275435508e-13
0.0006922088323889516
3.193878254717564e-13
0.0006922088323371208
4.629819521376103e-13
0.0006922088323002708
2.029604363074998e-13
0.000692208832264985
1.832577505220384e-13
0.0006922088322389992
2.329828411418851e-13
0.0006922088322156696
1.067077200430178e-13
0.0006922088321977203
6.577497999931251e-14
0.0006922088321813795
1.870063425943535e-13
0.0006922088321680907
4.273430811581539e-14
0.0006922088321566367
1.88826080399652e-14
0.0006922088321473203
1.289884943212275e-13
0.0006922088321392796
7.086792240038412e-15
0.0006922088321329869
-1.1343368208317e-14
0.0006922088321278424
1.128356828201075e-13
0.0006922088321228301
-6.432950529693163e-15
0.0006922088321184067
-1.916831663376927e-14
0.0006922088321147442
1.041962040475118e-13