/*--------------------------------*- C++ -*----------------------------------*\
| =========                 |                                                 |
| \\      /  F ield         | OpenFOAM: The Open Source CFD Toolbox           |
|  \\    /   O peration     | Version:  v1812                                 |
|   \\  /    A nd           | Web:      www.OpenFOAM.com                      |
|    \\/     M anipulation  |                                                 |
\*---------------------------------------------------------------------------*/
FoamFile
{
    version     2.0;
    format      ascii;
    class       volVectorField;
    location    "20000";
    object      U;
}
// * * * * * * * * * * * * * * * * * * * * * * * * * * * * * * * * * * * * * //

dimensions      [0 1 -1 0 0 0 0];


internalField   nonuniform List<vector> 
3770
(
(-0.5000945639496892 -4.323910956687876e-12 -2.767370637324386e-06)
(-0.5000945640467612 7.687399932717235e-12 -2.767337287184097e-06)
(-0.5000945642127267 -3.044843204885834e-12 -2.767333884238214e-06)
(-0.500094564172027 2.783169151414072e-12 -2.76733103507374e-06)
(-0.5000945642853158 -6.312721182754064e-13 -2.767328538041543e-06)
(-0.5000945642298842 7.156814115103236e-13 -2.76732640628011e-06)
(-0.5000945642988092 3.769704407598318e-13 -2.767324490517634e-06)
(-0.5000945643055437 2.657770481497408e-13 -2.767322756611975e-06)
(-0.5000945643005129 -1.109908881993907e-13 -2.767321156272307e-06)
(-0.5000945643153613 4.762227594846368e-13 -2.767319661213079e-06)
(-0.5000945643409251 -3.374632269704315e-14 -2.76731825063946e-06)
(-0.5000945643130987 -1.957339791539369e-14 -2.767316907050071e-06)
(-0.5000945643383743 3.831976110879801e-13 -2.767315619768259e-06)
(-0.5000945643521778 -1.00870670204422e-13 -2.767314376674263e-06)
(-0.5000945643273906 -1.291867418974751e-13 -2.767313174324234e-06)
(-0.5000945643440587 3.152344130793475e-13 -2.767312001204868e-06)
(-0.5000945643591777 -1.356729487401741e-13 -2.767310859394891e-06)
(-0.5000945643303937 -1.437184471273364e-13 -2.76730973685249e-06)
(-0.5000945643494308 3.454812107337406e-13 -2.767308640647173e-06)
(-0.5000945643625083 -1.12039502193149e-13 -2.767307554590629e-06)
(-0.5000945643353784 -1.384948873241422e-13 -2.76730649477291e-06)
(-0.5000945643527779 3.209253997216227e-13 -2.767305435388291e-06)
(-0.5000945643668669 -1.270985801441099e-13 -2.767304405629049e-06)
(-0.5000945643371345 -1.647281090180362e-13 -2.767303365098347e-06)
(-0.5000945643555801 3.377177948856186e-13 -2.767302363013119e-06)
(-0.5000945643675192 -1.397841011019077e-13 -2.767301332849116e-06)
(-0.5000945643399263 -1.002788776524835e-13 -2.767300359513051e-06)
(-0.500094564358066 3.168011319178744e-13 -2.767299330781956e-06)
(-0.500094564371506 -1.580931509671636e-13 -2.767298390418288e-06)
(-0.500094564339866 -2.182756261179148e-13 -2.767297351290968e-06)
(-0.5000945643569749 2.986316157019632e-13 -2.767296454694141e-06)
(-0.5000945643652851 -1.889770150787882e-13 -2.767295386171363e-06)
(-0.5000945643388223 -1.256985421031339e-13 -2.767294553598338e-06)
(-0.5000945643524426 2.756749420395466e-13 -2.767293426576643e-06)
(-0.50009456436884 -1.174757419839973e-13 -2.767292692403401e-06)
(-0.5000945643330255 -2.449915805179633e-13 -2.767291459343929e-06)
(-0.5000945643552588 3.28360666672711e-13 -2.767290883539578e-06)
(-0.5000945643573718 -2.606233764171484e-13 -2.767289464305988e-06)
(-0.5000945643380641 -5.856723950102574e-14 -2.767289148485867e-06)
(-0.5000945643428435 2.260613771987514e-13 -2.767287410560194e-06)
(-0.5000945643702612 -6.902191871870359e-14 -2.767287524419096e-06)
(-0.5000945643179082 -3.685649572758888e-13 -2.767285246766482e-06)
(-0.5000945643602933 5.256212083630617e-13 -2.767286075566924e-06)
(-0.5000945643425735 -4.213100853852411e-13 -2.767282888377811e-06)
(-0.5000945643481572 9.932196061133239e-14 -2.767284908244219e-06)
(-0.5000945643188904 -8.203504952584092e-14 -2.767280197434278e-06)
(-0.5000945643853399 2.984517686317088e-13 -2.767284198534694e-06)
(-0.5000945642865939 -7.75948187382668e-13 -2.767276946010323e-06)
(-0.500094564384406 1.022966805941847e-12 -2.767284237891285e-06)
(-0.5000945642963721 -1.109000937906056e-12 -2.767272760981333e-06)
(-0.500094564380094 7.523240359476563e-13 -2.767285503723297e-06)
(-0.500094564248853 -1.304890220960784e-12 -2.767267037126507e-06)
(-0.5000945644034404 1.446807391250834e-12 -2.76728878403533e-06)
(-0.5000945642112048 -2.204844103331083e-12 -2.767258808454353e-06)
(-0.5000945643973788 1.828938105093362e-12 -2.767295466076059e-06)
(-0.5000945641592 -2.814113509133761e-12 -2.767246634668213e-06)
(-0.5000945643659263 1.629820916128669e-12 -2.767307962272492e-06)
(-0.5000945641096655 -2.716592852528791e-12 -2.767230527063298e-06)
(-0.1522544805969744 -9.979432937950347e-12 -4.701745886514048e-06)
(-0.1522544807668651 2.160433343214801e-11 -4.701728081868438e-06)
(-0.1522544809590122 -2.544193789774532e-12 -4.701721407612973e-06)
(-0.1522544809194877 5.803851194348621e-12 -4.701716110003775e-06)
(-0.1522544810468651 3.185087739182172e-13 -4.701711597254712e-06)
(-0.1522544809919107 1.600700587337664e-12 -4.701707744135139e-06)
(-0.1522544810685744 1.849860447368009e-12 -4.701704332487536e-06)
(-0.1522544810736176 4.085236843609309e-13 -4.701701262256872e-06)
(-0.1522544810699716 9.148836881696974e-14 -4.701698448908769e-06)
(-0.1522544810850707 1.376860744685206e-12 -4.701695833884653e-06)
(-0.1522544811132009 -1.044077912803242e-13 -4.70169337770129e-06)
(-0.1522544810837168 1.313221216181594e-14 -4.701691046149163e-06)
(-0.1522544811111799 1.265432014238765e-12 -4.701688819385721e-06)
(-0.1522544811268605 -3.414604305716249e-13 -4.701686673975691e-06)
(-0.1522544811007411 -2.903043407739432e-13 -4.701684603446597e-06)
(-0.1522544811176767 9.965117404956709e-13 -4.701682586386008e-06)
(-0.1522544811348172 -4.428233470377585e-13 -4.701680626635346e-06)
(-0.1522544811041939 -3.418316951294029e-13 -4.701678701280903e-06)
(-0.1522544811241227 1.047710326310595e-12 -4.701676824432099e-06)
(-0.1522544811386635 -4.16190977345794e-13 -4.70167496496419e-06)
(-0.1522544811097735 -3.311135998323737e-13 -4.701673153708886e-06)
(-0.1522544811277276 9.944389764280843e-13 -4.70167134188102e-06)
(-0.1522544811436282 -4.616847002155963e-13 -4.701669585082287e-06)
(-0.1522544811118891 -4.015036104684441e-13 -4.701667806072027e-06)
(-0.1522544811310328 1.000254771595381e-12 -4.701666099532475e-06)
(-0.1522544811440625 -5.038958795446186e-13 -4.701664337918391e-06)
(-0.152254481114828 -2.618924148552858e-13 -4.701662683715482e-06)
(-0.1522544811335136 1.001138117682682e-12 -4.701660922622862e-06)
(-0.1522544811489072 -5.490941958770382e-13 -4.701659329508999e-06)
(-0.1522544811150213 -5.4675571075087e-13 -4.701657546193634e-06)
(-0.1522544811327984 8.726374344564457e-13 -4.701656035000632e-06)
(-0.1522544811424862 -6.089779353831357e-13 -4.701654193717934e-06)
(-0.1522544811144414 -3.704638313757769e-13 -4.701652803054714e-06)
(-0.1522544811273625 8.561329062721718e-13 -4.701650848186767e-06)
(-0.1522544811454839 -5.231607189300396e-13 -4.701649644375713e-06)
(-0.1522544811065903 -5.564132035293027e-13 -4.701647484739068e-06)
(-0.152254481131267 9.59779843085225e-13 -4.70164658252689e-06)
(-0.1522544811344331 -7.011207449308334e-13 -4.701644065347665e-06)
(-0.1522544811149154 -3.111391822118896e-13 -4.701643658826066e-06)
(-0.1522544811162799 7.443062086315393e-13 -4.701640530770334e-06)
(-0.1522544811463442 -4.541012636526469e-13 -4.701640944796968e-06)
(-0.1522544810916034 -6.390478555659364e-13 -4.701636783122669e-06)
(-0.1522544811401447 1.244185947238123e-12 -4.701638562639152e-06)
(-0.1522544811167486 -9.827678687042395e-13 -4.701632661560385e-06)
(-0.1522544811269387 -1.459514973902016e-13 -4.701636715341983e-06)
(-0.1522544810881138 2.599649426226821e-13 -4.701627902771988e-06)
(-0.1522544811645547 -3.289967893869138e-15 -4.701635738754284e-06)
(-0.1522544810509512 -1.316703769342552e-12 -4.701622072814014e-06)
(-0.1522544811664932 1.919081134837034e-12 -4.701636186999908e-06)
(-0.1522544810586884 -2.127992624129419e-12 -4.701614461674103e-06)
(-0.1522544811627331 7.452680017340886e-13 -4.701638966602586e-06)
(-0.1522544810060655 -2.027035701466421e-12 -4.701603913728742e-06)
(-0.1522544811903283 1.940651507798202e-12 -4.701645564405343e-06)
(-0.1522544809603354 -4.087319815786068e-12 -4.701588551561319e-06)
(-0.152254481185822 2.576461334750529e-12 -4.701658485824567e-06)
(-0.1522544809029391 -5.795480649553226e-12 -4.701565404581251e-06)
(-0.1522544811477781 1.412474789739432e-12 -4.701682328626473e-06)
(-0.1522544808571853 -1.427967363989188e-11 -4.701529432895295e-06)
(0.007173341241424216 -1.68564006031039e-11 -5.591524029346583e-06)
(0.007173341134752631 3.260359184264245e-11 -5.591512847301136e-06)
(0.007173340882984909 8.505627348833542e-14 -5.591504495569545e-06)
(0.007173340932160767 8.739337301620656e-12 -5.591497932310875e-06)
(0.007173340794101187 1.793391098862946e-12 -5.591492415096885e-06)
(0.007173340840403294 2.48989213990784e-12 -5.59148770888425e-06)
(0.007173340763401193 3.495631898669928e-12 -5.591483565864324e-06)
(0.007173340761186387 7.217777573886776e-13 -5.591479847874977e-06)
(0.007173340755925087 3.694364554887605e-13 -5.591476451302482e-06)
(0.007173340742180047 2.313221621700655e-12 -5.591473301344232e-06)
(0.007173340717251256 -4.48953092402536e-14 -5.591470348543868e-06)
(0.007173340739571819 1.902837946427313e-14 -5.591467549789616e-06)
(0.007173340714643894 2.141404668741537e-12 -5.591464880588994e-06)
(0.007173340702273841 -4.611931253992425e-13 -5.591462311508426e-06)
(0.007173340720976851 -4.532768261038212e-13 -5.591459834479385e-06)
(0.007173340706161361 1.668219981751189e-12 -5.591457423077508e-06)
(0.007173340692613452 -6.527587071074535e-13 -5.591455082063614e-06)
(0.007173340716199325 -5.597730327764928e-13 -5.591452782765462e-06)
(0.007173340698838272 1.723166138477937e-12 -5.59145054321978e-06)
(0.007173340688189973 -6.426515872490427e-13 -5.591448324369283e-06)
(0.007173340710141595 -5.567486920286216e-13 -5.591446164818396e-06)
(0.007173340694987256 1.646461419941352e-12 -5.591444003815797e-06)
(0.007173340682896286 -7.156168731464374e-13 -5.591441910888148e-06)
(0.007173340707698653 -6.647885752586276e-13 -5.591439789257867e-06)
(0.007173340691177961 1.626744341933274e-12 -5.591437757850966e-06)
(0.007173340682118188 -7.914364844966319e-13 -5.591435656760414e-06)
(0.007173340704703979 -4.838928283214514e-13 -5.591433689503608e-06)
(0.007173340689497999 1.654005592156786e-12 -5.591431587894378e-06)
(0.007173340677632169 -8.54006356725408e-13 -5.591429696150649e-06)
(0.007173340704493803 -8.888651981467149e-13 -5.59142756547068e-06)
(0.007173340688934454 1.401437930413102e-12 -5.591425775386679e-06)
(0.007173340683251714 -9.536914484416485e-13 -5.591423571238394e-06)
(0.007173340704482944 -6.719083783069338e-13 -5.59142193111033e-06)
(0.007173340694675904 1.425374999383256e-12 -5.591419583802305e-06)
(0.007173340680213785 -8.716619398440285e-13 -5.591418177038944e-06)
(0.007173340712511401 -8.827447969272691e-13 -5.591415572239986e-06)
(0.00717334069010228 1.518564217738565e-12 -5.591414542547281e-06)
(0.007173340691147474 -1.032862247298383e-12 -5.591411489225307e-06)
(0.007173340703323049 -6.463703780309408e-13 -5.591411079557355e-06)
(0.007173340705704737 1.283954636452303e-12 -5.591407260414018e-06)
(0.00717334067891945 -8.476437069134314e-13 -5.59140787784669e-06)
(0.007173340727799253 -8.943569057529156e-13 -5.591402763453484e-06)
(0.00717334068126579 1.824390600358948e-12 -5.591405090146297e-06)
(0.007173340710176751 -1.328019782467012e-12 -5.591397797311618e-06)
(0.00717334069085613 -5.684939328499686e-13 -5.591402970487987e-06)
(0.007173340734864292 7.7027426257575e-13 -5.591392032439902e-06)
(0.007173340659516793 -4.67134680196265e-13 -5.591401939071146e-06)
(0.007173340770406457 -1.638897155189535e-12 -5.591384926439578e-06)
(0.00717334065350833 2.435907980636836e-12 -5.591402688231361e-06)
(0.007173340770280237 -2.644768062731043e-12 -5.591375591984437e-06)
(0.00717334065320319 2.650632668045843e-13 -5.591406350294111e-06)
(0.007173340817798388 -2.22314068102393e-12 -5.591362583285616e-06)
(0.007173340626618088 1.823752115982931e-12 -5.591414779409229e-06)
(0.007173340866028628 -5.235408552401436e-12 -5.591343540252195e-06)
(0.00717334062861589 2.649895531164007e-12 -5.591431073442075e-06)
(0.007173340915921584 -8.089409070699039e-12 -5.591314602577981e-06)
(0.007173340677774173 1.986654956463249e-12 -5.591460858655604e-06)
(0.00717334093740044 -2.642201447457371e-11 -5.591268613377023e-06)
(0.09200737133459812 -2.338653238653906e-11 -6.066085766197192e-06)
(0.09200737133844612 4.060484480386447e-11 -6.066076177971198e-06)
(0.09200737104643064 3.573629188207788e-12 -6.066066988684422e-06)
(0.09200737110327191 1.107171068494462e-11 -6.066059749608448e-06)
(0.09200737095662183 3.544476659315008e-12 -6.066053700161823e-06)
(0.09200737099728876 3.326106083659378e-12 -6.066048540983927e-06)
(0.0920073709210331 5.015772339724584e-12 -6.066044009386999e-06)
(0.09200737091660349 1.048519229568371e-12 -6.066039947015688e-06)
(0.09200737090594122 7.404448580488656e-13 -6.066036240213211e-06)
(0.09200737089380412 3.093791386692039e-12 -6.066032805604607e-06)
(0.09200737086829897 7.279927920958295e-14 -6.066029588437296e-06)
(0.09200737088635218 8.038732155793444e-14 -6.066026540898486e-06)
(0.09200737086420538 2.865582623144802e-12 -6.066023636076787e-06)
(0.09200737085148666 -5.087455415537422e-13 -6.066020841279768e-06)
(0.09200737086595498 -5.323497427452256e-13 -6.066018147681434e-06)
(0.09200737085365772 2.205089796256225e-12 -6.066015526137695e-06)
(0.0920073708402001 -7.915290659953161e-13 -6.066012981955571e-06)
(0.09200737085996004 -6.999489882666037e-13 -6.066010483314104e-06)
(0.09200737084559214 2.250089283794885e-12 -6.066008050500893e-06)
(0.09200737083515272 -8.053239842641543e-13 -6.06600564000827e-06)
(0.09200737085335306 -7.088494528800994e-13 -6.066003294856929e-06)
(0.09200737084126051 2.153546848977623e-12 -6.066000947615458e-06)
(0.09200737082937455 -9.031511176185155e-13 -6.065998675602393e-06)
(0.09200737085048186 -8.481895198880477e-13 -6.065996371130181e-06)
(0.09200737083701302 2.104965464911517e-12 -6.065994166739542e-06)
(0.09200737082826509 -1.011178487988658e-12 -6.065991884351886e-06)
(0.09200737084737129 -6.498227247429502e-13 -6.065989750533889e-06)
(0.09200737083562732 2.156553209436717e-12 -6.065987466897062e-06)
(0.09200737082377664 -1.083762866913381e-12 -6.065985416515639e-06)
(0.09200737084695924 -1.135953195251685e-12 -6.065983099812459e-06)
(0.09200737083426577 1.795860473313455e-12 -6.065981162052243e-06)
(0.09200737082915415 -1.218361480212877e-12 -6.065978763063368e-06)
(0.09200737084680299 -9.092406498732546e-13 -6.065976991635544e-06)
(0.09200737084035969 1.858300056531155e-12 -6.065974432821904e-06)
(0.09200737082583846 -1.156086920483188e-12 -6.065972920732682e-06)
(0.09200737085479939 -1.114324301616411e-12 -6.065970074760599e-06)
(0.09200737083525 1.931359029978807e-12 -6.065968982000974e-06)
(0.09200737083728948 -1.2667446349681e-12 -6.065965636401912e-06)
(0.09200737084544931 -9.31088649536976e-13 -6.065965233297315e-06)
(0.09200737085167723 1.692328343701401e-12 -6.065961034934694e-06)
(0.09200737082408798 -1.190602244771812e-12 -6.065961774679207e-06)
(0.09200737087104091 -1.022407721181327e-12 -6.065956134270029e-06)
(0.09200737082684612 2.206407797369579e-12 -6.065958776025505e-06)
(0.09200737085748338 -1.54341442345253e-12 -6.065950710874501e-06)
(0.09200737083242734 -9.75178725844284e-13 -6.0659565199594e-06)
(0.09200737088193804 1.223623633123251e-12 -6.065944398043241e-06)
(0.09200737080381384 -9.679385821641107e-13 -6.065955474057442e-06)
(0.09200737091490924 -1.745866924307274e-12 -6.065936592502827e-06)
(0.09200737079748969 2.648589171382067e-12 -6.065956408213593e-06)
(0.09200737091885608 -2.877145359150328e-12 -6.065926307473822e-06)
(0.09200737079256907 -3.223655522041837e-13 -6.06596058143422e-06)
(0.09200737096516129 -2.1450561939973e-12 -6.065911934354282e-06)
(0.09200737076716126 1.38399994429305e-12 -6.065970054101458e-06)
(0.09200737101305816 -5.880572410585627e-12 -6.065890842442435e-06)
(0.09200737076830952 2.391076432592812e-12 -6.065988257439239e-06)
(0.09200737105840301 -9.850278591631261e-12 -6.065858674262903e-06)
(0.09200737082308579 2.419791188185087e-12 -6.066021381115052e-06)
(0.09200737105808356 -3.686471128051862e-11 -6.065807172473678e-06)
(0.1527549784663289 -3.120411642057487e-11 -6.406015054124805e-06)
(0.1527549785796451 4.727565407524339e-11 -6.406006217057258e-06)
(0.1527549782670597 8.147097860744809e-12 -6.405996517202431e-06)
(0.1527549783294913 1.341673146087861e-11 -6.405988833608505e-06)
(0.1527549781786833 5.765992735118422e-12 -6.405982430315298e-06)
(0.1527549782139911 4.267991597008391e-12 -6.405976966488052e-06)
(0.1527549781393658 6.709094515777111e-12 -6.405972170864283e-06)
(0.1527549781324697 1.508004436462817e-12 -6.40596787254662e-06)
(0.1527549781176387 1.23951733219696e-12 -6.405963951688744e-06)
(0.152754978106913 3.911441940928324e-12 -6.405960319545935e-06)
(0.152754978080772 2.822186813609177e-13 -6.405956918039352e-06)
(0.152754978095092 1.880560973891166e-13 -6.405953696330298e-06)
(0.1527549780754723 3.597235720028992e-12 -6.405950626028435e-06)
(0.1527549780621884 -4.910010349844564e-13 -6.405947672262522e-06)
(0.1527549780731567 -5.674798113598279e-13 -6.405944825793373e-06)
(0.1527549780631434 2.734607541846427e-12 -6.405942055634482e-06)
(0.1527549780495439 -8.837889857108745e-13 -6.405939367544525e-06)
(0.1527549780660802 -8.163435089922655e-13 -6.405936727498073e-06)
(0.1527549780544661 2.755615878182976e-12 -6.40593415745539e-06)
(0.1527549780439371 -9.29022207724854e-13 -6.405931610735081e-06)
(0.1527549780590047 -8.418523278063443e-13 -6.405929133553523e-06)
(0.1527549780496651 2.636993934237506e-12 -6.405926653723362e-06)
(0.1527549780377132 -1.056025001452318e-12 -6.405924254154279e-06)
(0.152754978055729 -1.015861135629854e-12 -6.405921819350195e-06)
(0.1527549780450685 2.554527231069859e-12 -6.405919491638647e-06)
(0.1527549780363221 -1.200068261004546e-12 -6.405917079908918e-06)
(0.1527549780524885 -8.127918752749298e-13 -6.405914827259354e-06)
(0.1527549780437565 2.629984326166328e-12 -6.405912413672558e-06)
(0.1527549780317313 -1.280947477098531e-12 -6.405910250064774e-06)
(0.1527549780518633 -1.367924121192197e-12 -6.405907800471357e-06)
(0.1527549780418831 2.152106766278188e-12 -6.405905757287205e-06)
(0.1527549780369436 -1.458051435736402e-12 -6.405903219042573e-06)
(0.1527549780516231 -1.146612143099698e-12 -6.40590135387485e-06)
(0.1527549780481924 2.26643119353993e-12 -6.405898643826868e-06)
(0.1527549780334393 -1.418434586281362e-12 -6.405897056585353e-06)
(0.1527549780595451 -1.333631393686278e-12 -6.405894038070741e-06)
(0.1527549780427017 2.291381695776547e-12 -6.405892900433671e-06)
(0.1527549780452215 -1.469194945116016e-12 -6.405889345631187e-06)
(0.1527549780501807 -1.225563489029903e-12 -6.405888947550201e-06)
(0.152754978059733 2.089997666062884e-12 -6.405884477615997e-06)
(0.1527549780313961 -1.539695926876904e-12 -6.405885305396615e-06)
(0.152754978076408 -1.134042834876021e-12 -6.405879288075931e-06)
(0.1527549780345741 2.515654923953663e-12 -6.405882156169369e-06)
(0.1527549780661212 -1.685916628469242e-12 -6.405873537326845e-06)
(0.1527549780367718 -1.42615358271222e-12 -6.40587980305401e-06)
(0.1527549780906337 1.707832088110953e-12 -6.405866831925765e-06)
(0.1527549780106566 -1.525757209504104e-12 -6.405878747743492e-06)
(0.1527549781209439 -1.772542485126405e-12 -6.405858524775518e-06)
(0.1527549780043495 2.714541138395977e-12 -6.40587981598478e-06)
(0.1527549781279824 -2.953545452174446e-12 -6.40584755746307e-06)
(0.1527549779956296 -1.042479651696817e-12 -6.405884358086296e-06)
(0.1527549781731224 -1.937790566449449e-12 -6.40583220409289e-06)
(0.1527549779716443 7.380925507398645e-13 -6.40589458304622e-06)
(0.1527549782198318 -6.359706253172717e-12 -6.405809639709818e-06)
(0.1527549779722694 1.966129842201302e-12 -6.405914161839603e-06)
(0.1527549782612548 -1.161414536560292e-11 -6.405775155987951e-06)
(0.1527549780295198 2.974314649877373e-12 -6.405949675716583e-06)
(0.1527549782476332 -4.712173785804824e-11 -6.405719789225213e-06)
(0.2008986033783176 -3.979853959326641e-11 -6.675011708520901e-06)
(0.2008986035899099 5.173966078948036e-11 -6.675003441565913e-06)
(0.2008986032698655 1.31450126141399e-11 -6.674993433246642e-06)
(0.2008986033367924 1.565753474938537e-11 -6.674985455171823e-06)
(0.2008986031850672 8.239271503875115e-12 -6.674978810467428e-06)
(0.2008986032152318 5.273846038605696e-12 -6.674973133474928e-06)
(0.2008986031425813 8.45120910357204e-12 -6.674968149134101e-06)
(0.2008986031337552 2.098376547056138e-12 -6.674963679251306e-06)
(0.2008986031153027 1.80948323486685e-12 -6.674959600530532e-06)
(0.200898603105593 4.721242915825919e-12 -6.674955821046986e-06)
(0.2008986030792933 5.8633488053604e-13 -6.674952280763717e-06)
(0.2008986030900136 3.260575442707589e-13 -6.674948926927864e-06)
(0.2008986030724916 4.296645219763472e-12 -6.674945730318343e-06)
(0.2008986030590612 -3.920167628781262e-13 -6.674942654592387e-06)
(0.2008986030667802 -5.746289305118501e-13 -6.674939690334968e-06)
(0.2008986030586023 3.225503715122642e-12 -6.674936805270725e-06)
(0.20089860304522 -9.090759412190179e-13 -6.674934005582863e-06)
(0.2008986030586735 -9.204547271116353e-13 -6.674931255609602e-06)
(0.2008986030493565 3.211451343371763e-12 -6.674928578653493e-06)
(0.2008986030390875 -9.902539147703048e-13 -6.674925925635315e-06)
(0.2008986030511834 -9.652575812365198e-13 -6.674923345237257e-06)
(0.2008986030441222 3.070574543201886e-12 -6.674920761670003e-06)
(0.200898603032464 -1.147773138633572e-12 -6.674918262132853e-06)
(0.2008986030475307 -1.176185156638726e-12 -6.674915725163922e-06)
(0.2008986030392209 2.950037374576126e-12 -6.674913300599505e-06)
(0.2008986030308047 -1.330382826105486e-12 -6.674910787371194e-06)
(0.2008986030441227 -9.753577058257221e-13 -6.674908441211307e-06)
(0.2008986030378616 3.049955835428625e-12 -6.674905925595144e-06)
(0.2008986030260822 -1.417878513737059e-12 -6.674903672713323e-06)
(0.2008986030433181 -1.591756816987609e-12 -6.674901118793303e-06)
(0.2008986030356343 2.450818806058667e-12 -6.674898992259253e-06)
(0.2008986030311346 -1.643423989923764e-12 -6.674896344804219e-06)
(0.2008986030429867 -1.386050584564083e-12 -6.674894405184831e-06)
(0.2008986030420563 2.623448731459622e-12 -6.674891576755104e-06)
(0.2008986030274985 -1.624447604872609e-12 -6.674889929261685e-06)
(0.2008986030508133 -1.546759389724406e-12 -6.674886776061762e-06)
(0.2008986030362755 2.584336500126155e-12 -6.674885601309918e-06)
(0.200898603039466 -1.616488140465573e-12 -6.674881883794185e-06)
(0.2008986030414882 -1.527551832153789e-12 -6.674881486754968e-06)
(0.2008986030537387 2.445613412385816e-12 -6.674876806395767e-06)
(0.2008986030252423 -1.845733150907517e-12 -6.674877698750323e-06)
(0.2008986030680456 -1.242358887854057e-12 -6.674871390368084e-06)
(0.2008986030283325 2.749077374270014e-12 -6.674874428941431e-06)
(0.200898603060774 -1.749881857998552e-12 -6.674865383633037e-06)
(0.2008986030278112 -1.897916485314456e-12 -6.674871996334514e-06)
(0.2008986030849449 2.166310956241164e-12 -6.674858372167534e-06)
(0.2008986030042598 -2.061239396290872e-12 -6.674870928898276e-06)
(0.2008986031128396 -1.763978958069519e-12 -6.674849675121304e-06)
(0.2008986029976739 2.67730179387338e-12 -6.674872095437379e-06)
(0.2008986031226341 -2.906660573930353e-12 -6.674838178826709e-06)
(0.2008986029859692 -1.800114572619387e-12 -6.674876916743985e-06)
(0.2008986031662239 -1.691539951060659e-12 -6.674822066894478e-06)
(0.2008986029635484 2.919499247448464e-14 -6.674887716424857e-06)
(0.2008986032117061 -6.735731307855306e-12 -6.674798365352783e-06)
(0.2008986029635292 1.50984780854791e-12 -6.674908349083089e-06)
(0.2008986032494324 -1.331828558586544e-11 -6.67476210346265e-06)
(0.2008986030212506 3.670875933421378e-12 -6.674945679358711e-06)
(0.2008986032298895 -5.581320707868511e-11 -6.674703870548164e-06)
(0.2413934138713976 -4.880038819298044e-11 -6.900539847263955e-06)
(0.2413934141679433 5.405373085508415e-11 -6.90053214610183e-06)
(0.2413934138497297 1.824853862685655e-11 -6.900521977182923e-06)
(0.241393413920672 1.77787986835395e-11 -6.900513818509992e-06)
(0.241393413770649 1.087279310401278e-11 -6.900507016477587e-06)
(0.2413934137959989 6.344419690787525e-12 -6.900501193264222e-06)
(0.2413934137254795 1.02144731759001e-11 -6.900496074305433e-06)
(0.2413934137153439 2.805176836379805e-12 -6.900491478261727e-06)
(0.2413934136936689 2.446800613296158e-12 -6.900487280658315e-06)
(0.2413934136845613 5.52123788343285e-12 -6.900483388132867e-06)
(0.2413934136585907 9.734368875309177e-13 -6.90047973979897e-06)
(0.2413934136658251 5.015029100481784e-13 -6.900476281859049e-06)
(0.2413934136499556 4.961685242211102e-12 -6.900472984782669e-06)
(0.2413934136368275 -2.222561812817265e-13 -6.900469811299395e-06)
(0.2413934136414823 -5.479700008105833e-13 -6.900466752015989e-06)
(0.2413934136346828 3.677826571928201e-12 -6.900463773777204e-06)
(0.2413934136219044 -8.747054447871509e-13 -6.900460883194199e-06)
(0.241393413632366 -1.00455520843019e-12 -6.900458043374659e-06)
(0.2413934136248735 3.616943894692589e-12 -6.900455278744221e-06)
(0.2413934136152655 -9.971638464298513e-13 -6.900452538375994e-06)
(0.2413934136245068 -1.071667919343525e-12 -6.900449872913994e-06)
(0.2413934136192563 3.453343585507516e-12 -6.900447203773523e-06)
(0.2413934136082899 -1.185943409716506e-12 -6.900444621544928e-06)
(0.241393413620502 -1.321883185664136e-12 -6.900442000083186e-06)
(0.2413934136140693 3.291199164497728e-12 -6.900439495148779e-06)
(0.2413934136063657 -1.409362467349219e-12 -6.900436897862415e-06)
(0.241393413616893 -1.12782868202854e-12 -6.900434473873709e-06)
(0.2413934136125786 3.41574278048536e-12 -6.900431873718474e-06)
(0.2413934136014945 -1.502975123071358e-12 -6.900429546291273e-06)
(0.2413934136159343 -1.801353708364909e-12 -6.900426905987684e-06)
(0.2413934136100964 2.693015817800841e-12 -6.900424709525011e-06)
(0.2413934136063769 -1.781270530920015e-12 -6.900421971840536e-06)
(0.2413934136154951 -1.618566993874124e-12 -6.900419969256628e-06)
(0.2413934136165587 2.927010312058928e-12 -6.900417043386538e-06)
(0.241393413602656 -1.781169013982241e-12 -6.900415344080305e-06)
(0.2413934136232213 -1.747224936587124e-12 -6.900412080630565e-06)
(0.2413934136105491 2.8139256807576e-12 -6.900410872238699e-06)
(0.2413934136146892 -1.716997250758121e-12 -6.900407022463581e-06)
(0.2413934136139451 -1.826781101000672e-12 -6.900406621779266e-06)
(0.2413934136283116 2.753215977253717e-12 -6.90040177164983e-06)
(0.2413934136002275 -2.109775762263141e-12 -6.900402710358051e-06)
(0.2413934136406279 -1.340292732736861e-12 -6.900396168745899e-06)
(0.2413934136027282 2.914513046534389e-12 -6.900399337085839e-06)
(0.241393413636193 -1.752152445467079e-12 -6.900389951873499e-06)
(0.2413934136000849 -2.372957793621822e-12 -6.900396833521075e-06)
(0.2413934136595651 2.58490002326559e-12 -6.900382690675782e-06)
(0.2413934135791429 -2.566154660989472e-12 -6.900395748506318e-06)
(0.24139341368538 -1.72868185308253e-12 -6.900373677480552e-06)
(0.2413934135719163 2.558904199711602e-12 -6.900396985113915e-06)
(0.2413934136977224 -2.772941826698425e-12 -6.900361754599019e-06)
(0.2413934135579496 -2.559711148334899e-12 -6.900402020346225e-06)
(0.2413934137394204 -1.439660628460782e-12 -6.900345033529303e-06)
(0.2413934135370662 -7.041632134631536e-13 -6.900413269026706e-06)
(0.2413934137837856 -7.04875372888263e-12 -6.90032042246938e-06)
(0.2413934135362543 1.068469461074865e-12 -6.900434730079028e-06)
(0.2413934138180973 -1.49706589171586e-11 -6.90028275044445e-06)
(0.2413934135927928 4.403955314693378e-12 -6.900473471699267e-06)
(0.2413934137985204 -6.279788656267512e-11 -6.900222342485412e-06)
(0.277058254869352 -5.802542425292788e-11 -7.098213777911405e-06)
(0.2770582552378746 5.439977299192926e-11 -7.09820679565423e-06)
(0.2770582549283306 2.332159251784977e-11 -7.098196587248433e-06)
(0.2770582550031929 1.978254222673991e-11 -7.09818834292709e-06)
(0.2770582548570105 1.363834994817572e-11 -7.098181452979058e-06)
(0.2770582548779337 7.495614462771391e-12 -7.098175537593203e-06)
(0.2770582548096901 1.200712729791937e-11 -7.098170326860814e-06)
(0.2770582547988138 3.623307149665354e-12 -7.098165639890314e-06)
(0.2770582547742699 3.164687656812804e-12 -7.098161353086225e-06)
(0.2770582547653907 6.322601356903616e-12 -7.098157373170515e-06)
(0.2770582547401481 1.437979950664832e-12 -7.098153639390336e-06)
(0.2770582547440233 7.270660398165316e-13 -7.098150097655918e-06)
(0.2770582547294083 5.602041463609896e-12 -7.098146718588259e-06)
(0.2770582547169604 9.186675210887153e-15 -7.098143464447565e-06)
(0.2770582547187305 -4.788984516701281e-13 -7.098140326047325e-06)
(0.2770582547128944 4.098981839303779e-12 -7.098137269683126e-06)
(0.2770582547010394 -7.894673126846538e-13 -7.09813430241957e-06)
(0.277058254708606 -1.059751336897862e-12 -7.09813138644989e-06)
(0.2770582547025001 3.978422460877378e-12 -7.098128547170911e-06)
(0.2770582546938954 -9.602255778551026e-13 -7.098125732229147e-06)
(0.2770582547004 -1.154133841613379e-12 -7.098122993860129e-06)
(0.2770582546965438 3.790580662867108e-12 -7.098120251291227e-06)
(0.2770582546866118 -1.180347159185483e-12 -7.098117597837913e-06)
(0.2770582546960679 -1.44533058813419e-12 -7.098114903633587e-06)
(0.2770582546910828 3.583641575163651e-12 -7.098112329180245e-06)
(0.2770582546844167 -1.447159081191771e-12 -7.098109659396558e-06)
(0.2770582546922228 -1.261096077190012e-12 -7.098107167818192e-06)
(0.2770582546893979 3.732498435687408e-12 -7.098104494713061e-06)
(0.2770582546793874 -1.548653268995911e-12 -7.098102102260293e-06)