/*--------------------------------*- C++ -*----------------------------------*\
| =========                 |                                                 |
| \\      /  F ield         | OpenFOAM: The Open Source CFD Toolbox           |
|  \\    /   O peration     | Version:  v1812                                 |
|   \\  /    A nd           | Web:      www.OpenFOAM.com                      |
|    \\/     M anipulation  |                                                 |
\*---------------------------------------------------------------------------*/
FoamFile
{
    version     2.0;
    format      ascii;
    class       volVectorField;
    location    "20000";
    object      wallShearStress;
}
// * * * * * * * * * * * * * * * * * * * * * * * * * * * * * * * * * * * * * //

dimensions      [0 2 -2 0 0 0 0];


internalField   uniform (0 0 0);

boundaryField
{
    inlet
    {
        type            cyclic;
    }
    outlet
    {
        type            cyclic;
    }
    bottomWall
    {
        type            calculated;
        value           nonuniform List<vector> 
58
(
(-0.00967976763390717 1.205105889002709e-13 5.358514389808644e-08)
(-0.009679767631946026 -2.355925622833675e-13 5.358449813229651e-08)
(-0.009679767628595034 6.093180031235883e-14 5.358443223963048e-08)
(-0.009679767629418029 -8.209924504608099e-14 5.358437707088112e-08)
(-0.009679767627130567 8.132582268110042e-15 5.358432871983965e-08)
(-0.009679767628249999 -2.038149252977573e-14 5.358428744237381e-08)
(-0.009679767626858571 -2.041027998272755e-14 5.358425034677402e-08)
(-0.009679767626722645 -7.102139511148264e-15 5.358421677278594e-08)
(-0.009679767626824322 1.479951369036216e-15 5.358418578511585e-08)
(-0.009679767626524611 -1.799827758431586e-14 5.358415683592152e-08)
(-0.009679767626008537 1.190529417076909e-15 5.358412952259013e-08)
(-0.00967976762657035 8.653387186923734e-16 5.358410350652985e-08)
(-0.009679767626060109 -1.540844383757027e-14 5.358407858052335e-08)
(-0.009679767625781413 4.154330689456766e-15 5.358405451018625e-08)
(-0.009679767626281892 4.481137279621371e-15 5.358403122895778e-08)
(-0.009679767625945395 -1.262468547244438e-14 5.358400851354033e-08)
(-0.009679767625640151 5.431288466520185e-15 5.358398640437975e-08)
(-0.009679767626221299 5.08604776016232e-15 5.358396466850029e-08)
(-0.009679767625836973 -1.345181715193967e-14 5.358394344237396e-08)
(-0.009679767625572922 4.87579168522459e-15 5.358392241278738e-08)
(-0.009679767626120682 4.948862499024803e-15 5.358390189145082e-08)
(-0.00967976762576942 -1.272945990555709e-14 5.358388137829838e-08)
(-0.009679767625484951 5.489104872028992e-15 5.358386143880293e-08)
(-0.009679767626085243 5.845804274771234e-15 5.358384129093652e-08)
(-0.009679767625712861 -1.300725515182999e-14 5.358382188727873e-08)
(-0.0096797676254718 5.818116420929085e-15 5.358380193995563e-08)
(-0.009679767626028896 3.923067590191246e-15 5.35837830931825e-08)
(-0.009679767625662673 -1.263586838062009e-14 5.358376317357693e-08)
(-0.009679767625391309 6.650134439890242e-15 5.358374496506859e-08)
(-0.009679767626030109 7.686154120184115e-15 5.358372484438476e-08)
(-0.009679767625684716 -1.129735694064588e-14 5.358370748332582e-08)
(-0.009679767625516891 7.440795764176886e-15 5.358368679327063e-08)
(-0.009679767626051178 5.057688512308761e-15 5.358367067211489e-08)
(-0.009679767625776185 -1.135367038241926e-14 5.358364884930957e-08)
(-0.009679767625445122 5.773270874012389e-15 5.358363463329374e-08)
(-0.00967976762616817 8.241824201026164e-15 5.358361075748229e-08)
(-0.009679767625719335 -1.191346085518411e-14 5.358359960796809e-08)
(-0.00967976762567662 9.155350099985422e-15 5.35835721270584e-08)
(-0.009679767626066486 3.56244755127368e-15 5.358356601185866e-08)
(-0.009679767625969919 -1.038032773288408e-14 5.358353236003911e-08)
(-0.009679767625416421 5.301062096757279e-15 5.358353456458708e-08)
(-0.009679767626473318 1.092222857335789e-14 5.358349046218753e-08)
(-0.009679767625617716 -1.705126208259115e-14 5.358350651022172e-08)
(-0.009679767625975279 1.25899587243771e-14 5.358344479613023e-08)
(-0.009679767625862748 7.781380401264804e-16 5.358348390717686e-08)
(-0.009679767626453407 -3.129652067846993e-15 5.358339269096692e-08)
(-0.009679767625112067 -3.147312264060629e-15 5.358347016476249e-08)
(-0.00967976762710536 2.016493568683142e-14 5.358332973314966e-08)
(-0.009679767625130993 -2.779052746265554e-14 5.358347092683618e-08)
(-0.009679767626907795 2.924027740702615e-14 5.358324869756287e-08)
(-0.009679767625218048 -1.271683823009867e-14 5.358349543741082e-08)
(-0.00967976762786708 3.03942566054957e-14 5.358313786564771e-08)
(-0.009679767624746699 -3.203979415722965e-14 5.358355895463426e-08)
(-0.009679767628626868 5.777925334251582e-14 5.358297853241541e-08)
(-0.009679767624869103 -3.987935640090345e-14 5.358368834033537e-08)
(-0.009679767629676362 7.709251367087529e-14 5.358274280922743e-08)
(-0.009679767625504062 -3.508725223634357e-14 5.358393030679626e-08)
(-0.009679767630674893 1.288793060036677e-13 5.358243091471876e-08)
)
;
    }
    topWall
    {
        type            calculated;
        value           nonuniform List<vector> 
58
(
(-0.0005600523118510835 -6.616353233964163e-14 1.692672593866792e-08)
(-0.0005600523141872799 -2.808555277730023e-14 1.692658454834036e-08)
(-0.0005600523145753832 -3.778841613257565e-15 1.692667535874633e-08)
(-0.0005600523149041458 1.944074113049478e-15 1.692653951292726e-08)
(-0.0005600523144726326 6.062442946076126e-15 1.692664676766018e-08)
(-0.0005600523147201961 5.264519248612215e-15 1.692651651899463e-08)
(-0.0005600523142223194 4.877678654307394e-15 1.692663102653351e-08)
(-0.0005600523144857697 4.230846841654769e-15 1.692649952787351e-08)
(-0.0005600523140152309 3.481754619712611e-15 1.692661802867892e-08)
(-0.0005600523143150269 2.362761901802671e-15 1.692648449747349e-08)
(-0.0005600523138433531 3.328468229277653e-15 1.692660674214705e-08)
(-0.0005600523141889745 1.308616782348068e-15 1.692647152585624e-08)
(-0.0005600523137220604 2.389100942132353e-15 1.692659744194487e-08)
(-0.0005600523140710903 1.803759637116223e-15 1.69264608165174e-08)
(-0.0005600523136109768 1.87842889399476e-15 1.69265901236043e-08)
(-0.0005600523139861073 6.559929827332879e-16 1.692645226144158e-08)
(-0.0005600523135172501 2.427095255862823e-15 1.692658453426036e-08)
(-0.000560052313909462 1.497141651289405e-16 1.692644558654314e-08)
(-0.0005600523134487397 1.767303521071194e-15 1.692658033150753e-08)
(-0.0005600523138409469 8.194517278823078e-16 1.692644048544855e-08)
(-0.0005600523133802473 1.573141270866048e-15 1.692657717170975e-08)
(-0.0005600523137867464 7.226132520464851e-17 1.692643668199125e-08)
(-0.0005600523133076737 2.286296928990825e-15 1.692657475328159e-08)
(-0.00056005231373027 -4.156197778607344e-16 1.692643394734472e-08)
(-0.0005600523132564615 1.744126862316819e-15 1.692657282932768e-08)
(-0.000560052313673355 8.215815082776668e-17 1.692643210627661e-08)
(-0.0005600523132025467 1.733180395245778e-15 1.692657119876469e-08)
(-0.0005600523136341076 -7.855344270999363e-16 1.692643103109465e-08)
(-0.0005600523131502499 2.679708565207889e-15 1.692656970506491e-08)
(-0.0005600523135895097 -1.314784942283711e-15 1.692643062688263e-08)
(-0.000560052313110959 2.390132207361933e-15 1.692656822999161e-08)
(-0.0005600523135429406 -7.262602660152692e-16 1.692643082615111e-08)
(-0.0005600523130648279 2.578144636298316e-15 1.692656668243923e-08)
(-0.0005600523135022233 -2.02946882407549e-15 1.692643157895914e-08)
(-0.0005600523130237143 3.815469755638886e-15 1.692656500081112e-08)
(-0.0005600523134596512 -2.829002090049029e-15 1.69264328389289e-08)
(-0.0005600523129998829 3.927963686150198e-15 1.692656315246393e-08)
(-0.0005600523134110903 -2.890970761448393e-15 1.692643455596778e-08)
(-0.0005600523129705763 4.736362122246801e-15 1.692656113176043e-08)
(-0.0005600523133690131 -4.659911039703583e-15 1.692643666667002e-08)
(-0.0005600523129388854 6.773904222336028e-15 1.692655897108702e-08)
(-0.0005600523133232503 -6.393435575308669e-15 1.692643907656811e-08)
(-0.0005600523129302808 7.881319561457084e-15 1.692655675036473e-08)
(-0.0005600523132645465 -7.448547805369333e-15 1.692644164999812e-08)
(-0.0005600523129211945 9.859758998880484e-15 1.692655460164075e-08)
(-0.000560052313202594 -1.047406384888084e-14 1.692644419888027e-08)
(-0.0005600523129160744 1.308707051517264e-14 1.692655272325767e-08)
(-0.0005600523131271618 -1.353693669126097e-14 1.692644646529347e-08)
(-0.000560052312941724 1.533813234131715e-14 1.692655138318082e-08)
(-0.000560052313031219 -1.565985239747656e-14 1.692644815759594e-08)
(-0.0005600523129963979 1.753921485749937e-14 1.692655091876423e-08)
(-0.0005600523129304411 -1.847191060757038e-14 1.692644837924957e-08)
(-0.000560052313090503 1.748031585756804e-14 1.692655086407414e-08)
(-0.0005600523128480616 -1.668006486508029e-14 1.692645002171823e-08)
(-0.0005600523132328944 6.129441849512405e-15 1.692655575442986e-08)
(-0.0005600523129677785 -4.385232302345471e-15 1.692637918769375e-08)
(-0.0005600523139903831 -7.789155384993767e-14 1.692636913447018e-08)
(-0.0005600523143074913 1.180851488524726e-13 1.69265047490533e-08)
)
;
    }
    left
    {
        type            cyclic;
    }
    right
    {
        type            cyclic;
    }
}


// ************************************************************************* //
