/*--------------------------------*- C++ -*----------------------------------*\
| =========                 |                                                 |
| \\      /  F ield         | OpenFOAM: The Open Source CFD Toolbox           |
|  \\    /   O peration     | Version:  v1812                                 |
|   \\  /    A nd           | Web:      www.OpenFOAM.com                      |
|    \\/     M anipulation  |                                                 |
\*---------------------------------------------------------------------------*/
FoamFile
{
    version     2.0;
    format      ascii;
    class       volScalarField;
    location    "0";
    object      nut;
}
// * * * * * * * * * * * * * * * * * * * * * * * * * * * * * * * * * * * * * //

dimensions      [0 2 -1 0 0 0 0];


internalField   nonuniform List<scalar> 
1408
(
7.462797388236119e-08
8.522015966031794e-08
4.286026822249617e-08
1.736432756109572e-07
6.854288401028254e-07
2.956595513221403e-08
1.495786062553522e-08
1.471581952521307e-07
3.552837670362963e-08
1.572042617350662e-08
2.913872963234859e-08
7.995933341927645e-08
1.820208127500258e-06
5.449765028516577e-08
1.801023867555013e-07
1.008689060951729e-07
8.990592526201445e-08
9.30658668847545e-07
2.903144895601065e-08
2.715551431228278e-08
1.050742507029495e-07
5.942656404158324e-08
2.390568146178406e-07
2.35051915553872e-07
1.640311746063792e-07
1.465403832086235e-07
7.475532622450703e-09
1.846888840674246e-08
1.454985625000415e-08
7.806241041556934e-08
4.9895242372853e-08
7.638197091834424e-09
0.0001
0.0001
0.0001
0.0001
0.0001
0.0001
0.0001
0.0001
0.0001
0.0001
0.0001
0.0001
1.244933167853997e-07
1.172368273543185e-07
4.129399311092151e-08
1.737184214756946e-07
1.264658503923474e-06
4.31811931261784e-08
2.460352657368517e-08
2.143111147798289e-07
5.806934567845269e-08
2.723052641944002e-08
3.585430875705424e-08
1.27023913338245e-07
2.84454252720308e-06
5.877651756695564e-08
2.659920078278965e-07
1.504298539738991e-07
8.670627966249082e-08
1.441253756562003e-06
2.962981306352653e-08
3.660806605816512e-08
1.736099346595734e-07
8.569734434342463e-08
2.566509547878386e-07
3.370087039284564e-07
1.969014347910474e-07
2.554192522485992e-07
8.318287441984365e-09
3.2118972660675e-08
2.363325520614074e-08
1.063599820559978e-07
5.718217407943213e-08
1.133694330784776e-08
0.0001
0.0001
0.0001
0.0001
0.0001
0.0001
0.0001
0.0001
0.0001
0.0001
0.0001
0.0001
6.461569605031433e-07
7.901147508779136e-07
5.017649753411402e-08
2.767566537739668e-07
5.307115263971923e-06
1.853985978773282e-07
1.570117031761122e-07
7.055680441018046e-07
3.816828968460274e-07
3.410625073871063e-07
3.052470876371118e-07
6.326156898722704e-07
1.292659648722397e-05
2.56977293217799e-06
3.810110051150643e-06
3.174861464410284e-06
4.688880551611404e-07
6.667967944857003e-06
1.2717787210096e-07
5.980014909906741e-07
1.800636718342289e-06
1.096341569577039e-06
1.244658237364415e-06
1.69784099354453e-06
1.164548059518239e-06
1.264278675576776e-06
8.224309577806585e-08
2.032522671291416e-07
8.201978049822649e-07
9.341011064624134e-07
2.213959964014272e-07
1.939741514990378e-07
0.0001
0.0001
0.0001
0.0001
0.0001
0.0001
0.0001
0.0001
0.0001
0.0001
0.0001
0.0001
7.937726733059089e-07
1.055363584122624e-06
8.31675119455053e-08
3.493777330154522e-07
4.332678259421961e-06
1.943149856978749e-07
2.32769999371853e-07
6.461236689512941e-07
4.806385492292375e-07
6.827465688841835e-07
4.386722755279721e-07
6.155265407111252e-07
1.308708797224886e-05
5.743886847102079e-06
6.853060034431624e-06
5.722220694995551e-06
1.111899254881484e-06
7.138523626450469e-06
3.000625445757617e-07
9.825828079801977e-07
3.214958600916537e-06
1.599831294040085e-06
2.152803713504502e-06
2.241928547799439e-06
1.695688329004142e-06
1.261107237114266e-06
1.325638848400797e-07
2.852799201409887e-07
1.578080708624976e-06
1.036660482480409e-06
3.386522289487411e-07
3.151528855780842e-07
0.0001
0.0001
0.0001
0.0001
0.0001
0.0001
0.0001
0.0001
0.0001
0.0001
0.0001
0.0001
1.604490110759717e-06
4.268525278364865e-06
2.463928130194981e-07
1.145597645457119e-06
1.891946337986064e-06
1.080522483646983e-06
1.09765629031323e-06
9.937933574119825e-07
1.190307342844976e-06
2.464049853974244e-06
4.741712714581965e-06
1.649535937477162e-06
2.260633532276541e-05
2.443705239786882e-05
2.262146323030831e-05
1.757744913669582e-05
5.166920322848397e-06
1.010078498036978e-05
1.724822480349402e-06
5.903322321749229e-06
1.062026934932674e-05
6.390189720039668e-06
9.923178814207779e-06
7.571617012175952e-06
6.539886387710772e-06
1.569602171481423e-06
1.704900452892949e-06
6.427560445682426e-07
9.717397917754298e-06
7.178325141371934e-06
1.029814810642123e-06
1.604854923858343e-06
0.0001
0.0001
0.0001
0.0001
0.0001
0.0001
0.0001
0.0001
0.0001
0.0001
0.0001
0.0001
1.371747382664516e-06
1.154733546636106e-05
5.860113120431503e-07
2.036212711225784e-06
1.462974465707431e-06
8.227244982526713e-06
5.000830324344168e-06
7.580341550254976e-06
4.205176209372422e-06
2.659498248539414e-06
1.832863919150636e-05
5.00595499921887e-06
5.895322142633641e-05
1.772010473391352e-05
6.708619477220582e-06
5.785875696835222e-06
6.187234053926541e-06
2.021921390386138e-05
1.194836886723669e-05
2.574154454372184e-05
1.204276175374203e-05
1.520194439846837e-05
3.047953600061815e-06
2.336377278322257e-05
1.841902076371279e-05
7.827196026292937e-06
1.057980039233578e-05
2.667142207178949e-07
3.127931599110437e-05
5.515807885694692e-05
1.692076476438789e-06
4.555142112839183e-06
0.0001
0.0001
0.0001
0.0001
0.0001
0.0001
0.0001
0.0001
0.0001
0.0001
0.0001
0.0001
1.372208446612267e-05
9.158363069355624e-06
8.29174559916088e-06
4.94534891899261e-06
4.342478117452765e-06
2.430057828562314e-05
8.183660048454367e-06
2.263524377111196e-05
2.507771414342059e-05
3.057909656432902e-06
1.114502545613089e-05
1.390802511289287e-05
0.0001293760604783811
7.39824530528191e-06
1.323873633600323e-05
1.580078455031544e-05
6.101320346151114e-06
4.047077885326053e-06
3.748108087237785e-05
9.081672153829846e-05
3.056508227867395e-05
3.680084247334201e-05
1.379364528570007e-05
1.383818567988856e-05
3.094699124670375e-05
8.076261475604283e-06
2.318364067740379e-05
7.083768749770252e-06
1.193755982104283e-05
7.249597298481651e-05
5.917310399552071e-06
7.182572801575008e-06
0.0001
0.0001
0.0001
0.0001
0.0001
0.0001
0.0001
0.0001
0.0001
0.0001
0.0001
0.0001
4.106571907457426e-05
1.234688636369954e-05
1.859704774565754e-06
8.904151485535694e-06
9.177420946386188e-06
7.629763782581393e-05
8.988408985407516e-06
3.444557079639416e-06
2.183934750401839e-05
6.938579079847718e-06
7.478513756872136e-06
5.385067038861862e-05
5.08888534019663e-05
2.711804329824133e-05
6.798186261283198e-05
1.271221335099735e-05
4.96660837334115e-05
1.242794611141187e-05
1.634317910491285e-05
0.0001217278194905951
2.404971452377135e-06
7.096037625211815e-06
0.0001003919391682135
8.636012406595413e-06
4.178668028059706e-05
9.757225231853044e-06
1.115419714376179e-05
1.382324709186903e-05
8.08535325837644e-06
8.091506776611169e-06
2.745072956802067e-05
6.83666366038955e-06
0.0001
0.0001
0.0001
0.0001
0.0001
0.0001
0.0001
0.0001
0.0001
0.0001
0.0001
0.0001
1.772256394452564e-05
4.541498417087711e-05
8.720902412720935e-07
4.27116191722844e-06
1.758026226956369e-06
2.379557795943117e-05
7.116932285059869e-06
6.51751743825699e-06
2.064556393429559e-05
6.772962959585148e-06
4.269611210314524e-06
6.720481036897083e-06
1.525249794420596e-05
1.166767768890531e-05
2.300725375920315e-05
7.045502031737212e-06
4.022703868223204e-06
7.368493251175214e-05
1.778872594914414e-05
3.739525483583508e-05
1.096203561165836e-05
1.285812442023202e-05
7.534812813273809e-05
1.255911769896586e-05
3.285356775184552e-05
1.29874815160023e-05
9.765161591525837e-06
3.369609212022128e-06
3.490464906407943e-06
1.711294501920181e-05
2.084919419220087e-05
3.815551817944623e-06
0.0001
0.0001
0.0001
0.0001
0.0001
0.0001
0.0001
0.0001
0.0001
0.0001
0.0001
0.0001
8.446828154714644e-06
4.027108370523761e-06
3.546364751592251e-06
4.114326393120241e-06
3.364861129805845e-05
1.641227597100296e-05
5.267992763450278e-06
8.958856817894219e-06
2.07073975954853e-06
4.72712831200458e-05
2.997261478876638e-06
5.542578719521426e-06
5.292766281018772e-06
1.306266056617037e-05
8.819065917186094e-06
1.918284582612755e-05
1.197569892626736e-05
6.926968214647745e-05
3.224873556440755e-05
3.31778133760519e-05
6.579761275545118e-05
2.87520122078501e-05
4.122615784358143e-06
2.280334753194332e-05
5.03313361243203e-05
1.715467361596407e-05
1.214540063995224e-05
1.030364415038061e-05
4.428911706670375e-06
9.565362316011939e-06
5.125133193038674e-06
7.194196443277269e-06
0.0001
0.0001
0.0001
0.0001
0.0001
0.0001
0.0001
0.0001
0.0001
0.0001
0.0001
0.0001
5.93589090643891e-06
5.786841866297606e-05
5.774994348362428e-06
4.102916186111452e-05
1.962383634258386e-05
1.051650447468551e-05
3.355548930734933e-06
5.871796590348663e-06
8.872270981477079e-06
3.200412430887834e-05
2.718584035683622e-06
5.986872949740985e-06
3.698007621962351e-06
9.190971839376663e-06
5.199082363548997e-06
1.073173573412528e-06
3.469367750179045e-06
1.355064368993139e-05
1.165953509277648e-05
2.422300871824652e-05
0.0001007773786495042
7.385877095207977e-05
6.913761265016251e-06
4.324660968215543e-05
3.590047121373001e-05
4.108157213983859e-06
7.834408706635992e-06
4.50842899829555e-06
2.809423551676118e-06
5.207970837283324e-05
1.036807429915715e-05
6.098410180377297e-06
0.0001
0.0001
0.0001
0.0001
0.0001
0.0001
0.0001
0.0001
0.0001
0.0001
0.0001
0.0001
1.902738142165139e-05
9.407906987893968e-05
1.803691341937065e-05
5.965741656955012e-05
4.178787125538247e-06
1.311093955057841e-05
2.906942358198443e-06
1.922333758242195e-06
6.938422613444996e-06
5.268356102842753e-06
1.616759320594746e-05
4.085523763224397e-06
8.227888521170623e-06
2.821813858636129e-06
2.0361868390423e-06
6.205860075963102e-06
2.382258556023098e-06
1.4714758326891e-06
1.440363987547226e-05
9.448243083680331e-06
1.676432361640878e-05
0.0001541565999536041
3.507195652138329e-05
1.005829931125347e-05
1.813576526405492e-05
3.199429131937748e-06
2.649124456331629e-06
2.327162151742393e-06
3.509789009662787e-06
2.234104458113219e-05
7.564971935664577e-06
4.698450493469578e-05
0.0001
0.0001
0.0001
0.0001
0.0001
0.0001
0.0001
0.0001
0.0001
0.0001
0.0001
0.0001
2.892560490015417e-06
1.069094888754717e-05
1.431876737179615e-05
1.030010241181599e-05
1.457684935256794e-05
1.16273068933342e-05
1.299561296315045e-06
4.070068414750343e-06
8.022924665710657e-06
8.499105997046946e-06
9.119020621035333e-06
1.518679512420345e-05
5.852761649177806e-06
1.417700949898857e-05
1.306525584790182e-06
2.077569402657518e-06
1.511104864538781e-06
3.057868432290044e-06
1.840170473249777e-06
1.484798154081188e-06
4.817049947774867e-06
5.894494589845654e-06
2.026550585091532e-05
1.23132631110886e-05
2.532985975571912e-05
6.273610452663162e-07
4.243641652957297e-06
1.932817280435549e-06
6.897581103657723e-06
4.76454849377439e-06
2.118341738434419e-05
1.349993667947464e-05
0.0001
0.0001
0.0001
0.0001
0.0001
0.0001
0.0001
0.0001
0.0001
0.0001
0.0001
0.0001
9.315533151138563e-06
1.038811306662398e-05
2.247304437688022e-05
2.517640703270541e-05
3.866331558888966e-05
5.726121465028932e-06
2.749215465311263e-06
3.015759201530583e-06
4.844028028839135e-06
1.409476958978679e-05
4.637804945258191e-06
1.225000626608196e-05
2.580732840643519e-05
4.07244860245457e-05
2.322509329435837e-06
2.394424744780072e-06
1.173845768924247e-05
6.274248611265069e-06
2.459486897873794e-06
6.181627356319647e-06
2.861809590944192e-06
3.031664766412094e-06
5.652708264395055e-06
1.498871948718529e-05
2.834766533897086e-05
3.787458002024492e-06
8.645635823451148e-06
1.083935153155787e-06
4.465478393201732e-06
4.9903136659356e-06
1.035497499735999e-05
5.075638001971613e-06
0.0001
0.0001
0.0001
0.0001
0.0001
0.0001
0.0001
0.0001
0.0001
0.0001
0.0001
0.0001
1.551202340378149e-05
6.677601147882617e-06
9.008385640965594e-05
7.545625997587314e-06
8.878747902451425e-06
6.811279056741078e-06
3.520056200652965e-06
5.496864895665093e-06
1.089427209359883e-05
9.40624290054303e-06
6.891092156262944e-06
6.957277185735007e-06
1.269064286130548e-05
5.164437108662499e-05
4.116556288884234e-06
3.696427815926048e-06
8.227167075687802e-06
1.691885875669147e-05
1.167346755561439e-05
2.306267696585089e-06
3.274005048086397e-06
2.611885921784699e-05
3.158724679484873e-06
8.719661935486962e-06
8.589016327411235e-06
1.127886051282976e-05
8.45555777502123e-06
2.148405181542987e-06
3.700469440107037e-06
4.778039214887064e-06
5.909441693817298e-06
3.535266663607503e-05
0.0001
0.0001
0.0001
0.0001
0.0001
0.0001
0.0001
0.0001
0.0001
0.0001
0.0001
0.0001
4.883867212143958e-06
6.590689996773651e-06
9.361709870758736e-05
5.823612012288698e-06
7.901369110000591e-06
6.996543302739915e-06
5.784179434260972e-06
4.490774844509824e-06
1.979954493171261e-05
5.591209073249821e-06
1.228822261095696e-05
1.061522888634036e-07
1.464646278431601e-05
2.30472648082894e-05
4.399676596290205e-06
3.009266054144708e-06
8.40229399272934e-06
7.064103833655107e-06
3.254507912708535e-06
5.888706867942326e-06
1.97888452910268e-05
3.491486988053186e-05
8.439971922330361e-06
3.326327007757508e-06
4.217416581425323e-05
1.299730803053578e-05
5.144031128435775e-06
3.174014272684564e-06
2.940860412434683e-06
4.168230027829728e-06
2.823549974851883e-05
1.020774578503083e-05
0.0001
0.0001
0.0001
0.0001
0.0001
0.0001
0.0001
0.0001
0.0001
0.0001
0.0001
0.0001
7.717166430908923e-06
4.298354170049195e-06
2.409084922137165e-06
5.156764018649439e-06
3.218696343867082e-06
7.013201181051209e-06
4.793307512468364e-06
3.094216242188179e-06
1.812162204622311e-05
3.98182695400374e-06
8.374413739348828e-06
6.392946353799556e-07
4.268132883507154e-06
3.129304332013994e-06
5.15276488693102e-06
2.84988599382909e-06
1.248507575621553e-05
8.138797104153542e-06
8.020090377017347e-06
5.053702600191852e-06
4.972315326096522e-05
1.332233094583945e-05
3.370593851053294e-06
1.513558209899618e-05
6.132273686905458e-06
2.104973307409533e-05
1.793542174389168e-06
3.872877991124249e-06
3.181117537399763e-06
2.836946068093077e-06
1.934664706544673e-05
5.103026800706696e-06
0.0001
0.0001
0.0001
0.0001
0.0001
0.0001
0.0001
0.0001
0.0001
0.0001
0.0001
0.0001
7.214737397046077e-06
4.717357279299615e-06
1.74186522510771e-06
4.5123576719834e-06
3.213406026267989e-06
3.100076965668249e-06
4.681256416802034e-06
7.106029080694641e-06
1.363779411499374e-05
2.672988874124196e-06
5.112257415369168e-06
2.191595091382924e-06
4.133387851864939e-06
1.086296810975868e-05
9.006945275140233e-06
3.148319373227618e-06
7.683199980423748e-06
1.541166115709139e-05
2.968388423245453e-05
7.65642897923996e-06
6.059362915890101e-06
3.946463358043358e-06
2.039559053179633e-05
2.356043926929446e-05
5.434447370535103e-06
1.290203746189015e-05
2.524184299405892e-05
4.418004120735799e-06
5.150254308802763e-06
2.617258878136891e-05
5.720536152604281e-06
5.881616555119525e-06
0.0001
0.0001
0.0001
0.0001
0.0001
0.0001
0.0001
0.0001
0.0001
0.0001
0.0001
0.0001
8.282734216776693e-06
4.424181103572768e-06
3.162134265073818e-06
4.743308617434427e-06
1.069736471397458e-06
3.450643318347084e-06
2.754394528928733e-05
1.589401725237244e-05
5.730914427942824e-06
3.453559927004149e-06
1.307413037104568e-05
2.174150352077042e-06
3.979356408991e-06
1.606831858263804e-05
8.227170818433021e-06
6.647197518374927e-06
2.436245394847645e-06
7.112076583055834e-06
2.896654857921446e-05
1.762180409507278e-05
4.840579994275236e-06
2.162797462895766e-06
1.120179512028018e-05
8.907060041759307e-06
6.050120986535529e-06
9.570635723234735e-06
6.987236564705336e-05
3.518179302497722e-06
4.27756425910156e-06
6.212970455588016e-05
8.974086222498666e-06
2.32712284243496e-05
0.0001
0.0001
0.0001
0.0001
0.0001
0.0001
0.0001
0.0001
0.0001
0.0001
0.0001
0.0001
7.403728490170784e-06
5.091766364479751e-06
3.661041286949961e-06
2.677760743779257e-05
6.294116482347858e-06
3.217017217773118e-06
6.133099677766235e-05
2.446585512044282e-05
4.105591867050562e-06
7.048110030281929e-06
7.346343745084044e-06
1.19571537619452e-06
2.439255898936058e-06
3.116911187289978e-05
2.932130316447755e-06
8.047936685650248e-07
1.456716138722444e-05
4.488519752013972e-06
3.439806644368195e-07
1.801827079278418e-05
2.122700192389468e-05
1.302272106812648e-05
4.037898180683571e-06
3.261598365211801e-06
6.443034154409104e-06
4.465036439331898e-06
1.609617646192569e-05
3.237739633466345e-05
3.582798767806241e-06
3.948934804587268e-05
3.694231709428242e-06
3.181661547597766e-05
0.0001
0.0001
0.0001
0.0001
0.0001
0.0001
0.0001
0.0001
0.0001
0.0001
0.0001
0.0001
3.149875410681723e-06
6.080514474240443e-06
4.206866928154307e-06
2.795513188071633e-05
3.421930919012681e-05
4.057564991398719e-06
5.605057300677225e-05
1.365010812806748e-05
1.994995951021266e-06
1.366662442334229e-05
4.947648131614625e-06
1.422823412189701e-06
2.874104529680466e-06
4.264644331677303e-05
2.925790233002546e-05
1.996447464756019e-06
1.666476768454419e-05
2.743344596213753e-06
3.856862263836493e-06
9.448955235875768e-06
4.0503181566331e-06
3.268609618084268e-06
3.231041688093848e-06
4.978963018828694e-06
6.502222503581896e-06
3.141628046126986e-06
4.836092515732401e-06
1.242239578680027e-05
2.230737372019109e-06
8.611855281446017e-06
4.374123201005742e-06
2.615507062539054e-05
0.0001
0.0001
0.0001
0.0001
0.0001
0.0001
0.0001
0.0001
0.0001
0.0001
0.0001
0.0001
5.803136934463903e-06
3.626826963776029e-05
3.598850933633433e-06
5.154560757618899e-06
1.490571202637099e-05
5.168494484766574e-05
3.256904670527741e-05
4.458222898831563e-06
2.832817973458132e-06
3.36266876832916e-05
5.124105574569408e-05
8.307392715291291e-07
3.536053494790124e-06
2.564521643009218e-05
1.725242383213104e-05
7.233711790891468e-06
1.860716035361879e-05
3.259186970381779e-06
5.283036990957585e-06
1.38692120641406e-05
6.468456976317503e-06
1.190550129439047e-05
1.123862491501562e-05
2.793270457163871e-05
8.14471985081453e-06
5.592454753294062e-06
9.154387861841121e-06
2.744610913730294e-06
6.835523683337872e-06
2.945825174313688e-06
1.230953868081766e-05
2.207326110743645e-05
0.0001
0.0001
0.0001
0.0001
0.0001
0.0001
0.0001
0.0001
0.0001
0.0001
0.0001
0.0001
5.971499384728335e-06
5.879053963060006e-05
4.966901321835548e-06
3.990703103208992e-06
2.037423490337992e-06
3.979721347162473e-05
1.086171912188154e-05
2.796168569966558e-06
4.948128495121455e-06
1.527393179319933e-05
5.903024752237296e-05
4.206363459695508e-06
3.658904408972995e-06
1.85851049904346e-05
1.325077606719302e-05
2.797695340970214e-05
7.593479598608894e-06
5.683886210348705e-06
1.214808859684138e-06
3.990466340385137e-05
4.301611642121794e-06
3.797294518617546e-06
6.850140387456746e-06
2.664133831530487e-05
1.014631094814203e-05
6.618888843321727e-06
1.260058853521715e-05
2.123169317685327e-06
3.101511148281774e-06
7.276700840421911e-06
6.352728302822908e-06
6.293063074961193e-06
0.0001
0.0001
0.0001
0.0001
0.0001
0.0001
0.0001
0.0001
0.0001
0.0001
0.0001
0.0001
7.360141065216736e-05
3.933863205593711e-05
6.700818332931528e-06
9.741978011253543e-06
2.888826403294515e-06
1.2748938908136e-05
7.304160243871659e-06
3.869418503452038e-06
1.369567867688986e-05
2.811882543872278e-06
5.772436683479439e-05
5.317118497539742e-06
6.304339377438083e-06
5.692143261830647e-06
2.130915059920499e-06
4.210473289962974e-06
6.29479081163887e-06
1.902582941811876e-05
3.061295869758417e-06
2.110196593396697e-06
4.150980317205623e-06
6.019382190765054e-06
1.423218090918909e-05
2.800892060311135e-05
1.257808789448157e-05
4.264770963016646e-06
1.571252084868798e-05
1.389885829910851e-05
5.362116203124357e-06
5.166937340830483e-06
3.710023314740913e-05
5.168151983253296e-05
0.0001
0.0001
0.0001
0.0001
0.0001
0.0001
0.0001
0.0001
0.0001
0.0001
0.0001
0.0001
0.000105042568041023
2.042348495557014e-05
1.82654797126319e-05
2.677697469122784e-06
2.647269896624003e-06
1.576194637393764e-06
5.415455449220867e-06
8.293366244404611e-05
1.483338381737135e-05
6.140979494429216e-06
1.52150095894868e-05
6.90971517962569e-06
3.309825433064555e-06
6.905336928759419e-06
5.984782070057722e-06
1.824689693675673e-06
9.585303270478616e-06
1.091076691283961e-05
8.134697292110014e-06
2.504256733473293e-05
2.91647650469232e-05
8.506878656422841e-06
1.513323036370322e-05
1.64148361950358e-05
9.789477089151104e-06
3.905148396841376e-06
1.816219119922215e-06
1.179991792745805e-05
8.830354539311526e-06
1.917735704821617e-05
9.47362265162097e-05
0.00012745139412171
0.0001
0.0001
0.0001
0.0001
0.0001
0.0001
0.0001
0.0001
0.0001
0.0001
0.0001
0.0001
3.263142390866458e-05
6.058519500483363e-06
5.121949625199386e-06
7.992431236037782e-06
1.472206893470345e-05
4.926936672159065e-06
0.0001702399209507561
2.849176392574523e-05
1.20140631509174e-05
4.927344472847987e-06
9.743415832305755e-06
8.587181340306633e-06
9.108697028963151e-06
5.432134333892863e-06
1.011482747738741e-05
7.951744219210083e-06
8.199668348730642e-06
1.589100901805497e-06
4.418725720688368e-05
0.0001390124291435594
7.154147422132485e-05
1.547763908820012e-05
1.193592786555085e-05
2.47057455840704e-05
2.378310980153299e-05
2.442454811121582e-06
2.44058397282681e-06
4.55196567552107e-06
8.024951423532929e-06
8.63099399692134e-05
9.403034859476611e-05
4.592476508377078e-05
0.0001
0.0001
0.0001
0.0001
0.0001
0.0001
0.0001
0.0001
0.0001
0.0001
0.0001
0.0001
8.517106223500795e-06
1.615414114269015e-06
1.671764837721599e-06
5.965950016798729e-06
0.0001223052823351557
1.008121040866536e-05
0.0001890683124302957
8.992856132397526e-06
1.373360240304971e-05
3.523696333604758e-06
6.411156877030169e-06
7.076081742692302e-06
9.393143937848345e-06
2.835131835119397e-06
1.864948421372185e-05
5.469005890063824e-06
3.648844758172974e-06
6.392309580632031e-07
8.282044071633515e-05
0.0001024415391257267
6.229907572252361e-05
2.164732227111167e-05
1.154372329025448e-05
9.846404046127165e-06
5.37444620590263e-06
1.5430861479624e-06
1.313841606300783e-06
1.66948234597761e-06
7.679512472807008e-06
3.113035924017192e-05
1.976818439151524e-05
1.442168167506044e-05
0.0001
0.0001
0.0001
0.0001
0.0001
0.0001
0.0001
0.0001
0.0001
0.0001
0.0001
0.0001
1.161415557820961e-06
5.184690558324519e-07
4.625816504494361e-07
3.884507516739879e-06
9.084355168016966e-05
5.732069798661408e-06
9.038328147000764e-05
3.13034902743681e-06
1.268085797978849e-05
7.888238678945445e-06
4.338872963733714e-06
4.304744139016273e-06
4.627706670928481e-06
1.465071283160372e-06
1.721360446258072e-05
3.231409374525645e-06
7.506664248017031e-07
6.59959021132386e-07
6.354749625733987e-05
1.888768829709152e-05
1.011319521157293e-05
1.198688045115788e-05
6.125184516136856e-06
1.70484891384811e-06
3.626011310706904e-07
1.058622980927326e-06
1.714524143302333e-07
5.609241355675545e-07
1.652549484367965e-06
5.353406821811482e-06
3.9947954018461e-06
3.149584366695374e-06
0.0001
0.0001
0.0001
0.0001
0.0001
0.0001
0.0001
0.0001
0.0001
0.0001
0.0001
0.0001
2.219581322355184e-07
8.094406784508657e-07
1.51791167616361e-06
2.68042990397312e-06
2.327502969188904e-05
2.835325053560581e-06
2.201304373030358e-05
7.522335016370928e-07
2.882159260299024e-06
1.900823992226866e-06
1.509184415134652e-06
1.244604872338236e-06
5.67266371053495e-07
3.33971920711856e-06
3.572909539727404e-06
8.072808116038379e-07
9.434408201759835e-08
8.809482718155993e-07
1.49480265004853e-05
1.311039890272821e-06
1.676858883775514e-06
3.217784535341702e-06
9.561931973391245e-07
3.260964352450877e-07
2.96794208667739e-07
2.67323144213836e-07
1.064862452053691e-08
4.298681402477195e-07
1.667470481700203e-07
5.643037737347388e-07
1.057831911666828e-06
4.838328645706926e-07
0.0001
0.0001
0.0001
0.0001
0.0001
0.0001
0.0001
0.0001
0.0001
0.0001
0.0001
0.0001
1.792128845762766e-07
8.345879544209973e-07
1.855477100785829e-06
2.482589414369955e-06
1.105203770122513e-05
2.503952980182462e-06
1.172828952997092e-05
5.253551622191721e-07
1.601261395559849e-06
1.031523296308214e-06
1.160668910753895e-06
6.720363156485166e-07
3.758677811322151e-07
3.291117366964296e-06
2.186932866148665e-06
5.766897582683602e-07
6.415364211492606e-08
8.998801906454801e-07
5.641386096848761e-06
9.378051899035438e-07
1.129070860478804e-06
1.919604353250641e-06
5.064008892564508e-07
1.781955354444538e-07
2.934003180925574e-07
1.261697567326411e-07
1.057099553930022e-08
3.756060141451974e-07
1.118008007974401e-07
3.05453903741102e-07
7.17454545690655e-07
3.663341473671059e-07
0.0001
0.0001
0.0001
0.0001
0.0001
0.0001
0.0001
0.0001
0.0001
0.0001
0.0001
0.0001
6.168578959179969e-08
2.942154723610351e-07
5.468628036656718e-07
8.705724895090239e-07
1.374976173996958e-06
7.060124909882116e-07
1.205069707962125e-06
5.540431758144852e-08
1.966221535573746e-07
2.44687028397692e-07
2.393330535208603e-07
7.756142965911731e-08
1.601890923526949e-07
4.66370878126096e-07
2.504850139418135e-07
1.903907312080009e-07
5.095125560452476e-08
4.202711291465859e-07
2.291038045696882e-07
2.387921093191094e-07
1.428505269908899e-07
1.305177025759211e-07
2.888014727656081e-08
1.793743873720944e-08
9.046123729854774e-08
1.893358759086422e-08
5.154664199597005e-09
1.132200753588893e-07
1.465096272061354e-08
4.92833531011292e-08
2.140574948255678e-07
1.065832701198548e-07
0.0001
0.0001
0.0001
0.0001
0.0001
0.0001
0.0001
0.0001
0.0001
0.0001
0.0001
0.0001
5.462282660176922e-08
2.446531602414809e-07
3.478093428455867e-07
7.965657674948453e-07
1.026595228959916e-06
5.64752970071784e-07
8.75201471840656e-07
3.688934419129712e-08
1.824767801776065e-07
2.168490018590882e-07
1.818872373890337e-07
4.598533657264819e-08
1.604441920225843e-07
2.864941521886406e-07
1.906673839945005e-07
1.707689472841356e-07
5.135944479308425e-08
3.841371861067925e-07
1.41424942426699e-07
2.494564429203237e-07
8.351411603900374e-08
8.695603688472262e-08
2.227880198636722e-08
1.153535794618604e-08
7.115680356958317e-08
1.562085667709131e-08
4.894569440179337e-09
9.790083995085176e-08
1.366312897723311e-08
4.655218381915251e-08
1.827638169185776e-07
9.821399297324105e-08
0.0001
0.0001
0.0001
0.0001
0.0001
0.0001
0.0001
0.0001
0.0001
0.0001
0.0001
0.0001
)
;

boundaryField
{
    inlet
    {
        type            cyclic;
    }
    outlet
    {
        type            cyclic;
    }
    bottomWall
    {
        type            nutLowReWallFunction;
        Cmu             0.09;
        kappa           0.41;
        E               9.800000000000001;
        value           uniform 0.0001;
    }
    topWall
    {
        type            nutLowReWallFunction;
        Cmu             0.09;
        kappa           0.41;
        E               9.800000000000001;
        value           uniform 0.0001;
    }
    left
    {
        type            cyclic;
    }
    right
    {
        type            cyclic;
    }
}


// ************************************************************************* //
