/*--------------------------------*- C++ -*----------------------------------*\
| =========                 |                                                 |
| \\      /  F ield         | OpenFOAM: The Open Source CFD Toolbox           |
|  \\    /   O peration     | Version:  v1812                                 |
|   \\  /    A nd           | Web:      www.OpenFOAM.com                      |
|    \\/     M anipulation  |                                                 |
\*---------------------------------------------------------------------------*/
FoamFile
{
    version     2.0;
    format      ascii;
    class       volScalarField;
    location    "0";
    object      p;
}
// * * * * * * * * * * * * * * * * * * * * * * * * * * * * * * * * * * * * * //

dimensions      [0 2 -2 0 0 0 0];


internalField   nonuniform List<scalar> 
1408
(
0.001175808940863851
0.003104955308645464
-0.001463314509218532
-0.0005683605793919661
0.004201635011891866
0.0003617395405603578
0.01053811542705964
0.006289698504129099
-0.002804175495070912
-0.001366822111514563
0.007950868270555418
0.01415935175014158
0.004845936317182669
-0.001304234507999489
0.00326947403974518
0.0006234878275766185
0.00570410214608552
0.01454836567822872
0.003776244789109274
-0.003028292489627642
0.005727125750569526
0.01110837697825356
0.009052721171045455
-0.001045868114227366
0.01462130332459477
0.01730378271416671
0.0004162897485936761
0.01250476521587428
0.01082571946878944
0.009173916847095221
-0.00127238234267432
0.006894660856822242
0
0
0
0
0
0
0
0
0
0
0
0
0.001114262124489468
0.003158991581007217
-0.001582452216472695
-0.0006728552940510137
0.004519744153671608
0.0003525401462122148
0.01058558413971556
0.006284977894962737
-0.002797373286915286
-0.001383698888547306
0.007915423112033344
0.01407168019504134
0.004820720615312979
-0.001288574062429217
0.003233084837867476
0.0006586317495009786
0.005622790542134641
0.01499145071562375
0.003684517473728777
-0.003038600740562551
0.005732753596140828
0.01127783514219569
0.008842711675698833
-0.000950859918574946
0.01477211091152266
0.01765451549732393
0.0002617707444907893
0.01248662484800923
0.01083959425893294
0.009299180184311754
-0.001369684133301135
0.006845620428349559
0
0
0
0
0
0
0
0
0
0
0
0
0.0005754800460628425
0.003705219802752979
-0.002481088223426823
-0.00183071583579824
0.006802578219433276
4.854185408378156e-05
0.01112811515118054
0.006243198757068873
-0.002952534429959803
-0.00157032408199433
0.007783225903544084
0.01329875116794254
0.003712846999942471
-0.0012884563062385
0.0027821912229426
0.0006632817443553558
0.004803314870019073
0.01818785687149125
0.00297809412510556
-0.002997215419279607
0.005730497419204478
0.01289638824010263
0.006743666733168808
-0.0002284252816926204
0.01524517987762145
0.02053298810573127
-0.001530642589316006
0.01231727859022871
0.01088662897254117
0.01009853672299399
-0.002137817813505894
0.006803458845703263
0
0
0
0
0
0
0
0
0
0
0
0
0.0005944419349273037
0.003390252445244825
-0.002208896747124501
-0.001908366717942276
0.006133123273105031
-8.519048691307491e-06
0.01124223752478381
0.006196192962376382
-0.003032514625118794
-0.001694692949949879
0.007786676879761971
0.01326873464346026
0.003306726295568743
-0.00139985857862429
0.002667026647315605
0.0005415788424476065
0.004727092557748787
0.01771484486527967
0.003151014382616026
-0.002945418382097349
0.005658499042411045
0.01283565399432069
0.006732785598334305
-0.0004560484341771317
0.01494398063010575
0.01987652688136623
-0.001451517253317516
0.01229424550724463
0.01091891518252221
0.009755141791005147
-0.001955659434742787
0.007036308797010442
0
0
0
0
0
0
0
0
0
0
0
0
0.0008770837068790632
0.000650189156844585
-0.0007790043884165252
-0.002125474171865262
0.0030727549186953
-0.0006951419304283932
0.01204551068278178
0.005848189766451586
-0.003746732429367391
-0.002445872143568828
0.008268454548647483
0.01295624648436441
-0.0006778474212155127
-0.001803910004685327
0.001955993933508736
-0.0003167418406182709
0.0042431867636547
0.01246149684185534
0.00411409593773944
-0.002707782414779738
0.004973236615317474
0.01197569279880188
0.007177902243997595
-0.00194223957331609
0.01143765943109912
0.01721767861401898
-0.0006094872384966277
0.01230875167081696
0.01114203036438344
0.006905919458570799
-0.000871919599207118
0.008167960690351634
0
0
0
0
0
0
0
0
0
0
0
0
0.001337892962791611
-0.001283746459962244
-0.001127251335609446
-0.001389109931683239
0.002943410943487456
-0.002303681207579407
0.01273846943902913
0.005711584975897933
-0.004471155020074259
-0.00408614810231272
0.008728127675395908
0.01221063487125195
-0.00428622535857857
0.0007843371433431878
0.001416826340447519
-0.001205872020208134
0.003876841014591158
0.01035874913791163
0.004104412522359153
-0.004589363039096132
0.002499927222338747
0.01098656566123189
0.007182960135154952
-0.003452503143680902
0.00735088585502589
0.01527489388197287
-0.002164496417011283
0.01257881937053065
0.0116549156064923
0.004572487183013965
9.836300276495006e-05
0.007324578315215749
0
0
0
0
0
0
0
0
0
0
0
0
0.000545724374772004
-0.002099880946270606
-0.001389090981157697
-0.0009624839675399427
0.0004871482016877137
-0.003912497270065794
0.01262980748040145
0.00672339500610483
-0.004423096493700786
-0.005322299530756532
0.009235071026579427
0.01095903303967286
-0.008357054060354273
0.001203513796342652
-0.0004803385523465382
-0.001293655181818
0.00433464706018997
0.01055835167034254
0.003274321826079942
-0.008860171814970163
0.0002549461284979418
0.00756927985591325
0.006968560479884644
-0.002508999593550307
0.003264531891913971
0.01201910632418682
-0.0006172216951730673
0.01256654055886548
0.01295437061138996
0.003565420648078278
0.0003568087145144546
0.005086940977853515
0
0
0
0
0
0
0
0
0
0
0
0
-0.0002601318235261117
-0.004381075050208715
-0.001702158067480662
-0.002086352219657448
-0.002598196177045303
-0.003871387731544913
0.01188283234925526
0.008667007017478476
-0.004028487350587474
-0.006538523330168643
0.01287652417483974
0.01015954346903138
-0.001787453482398618
-0.001406475803787198
-0.007158316002764674
0.0006184723583406656
0.002475188322883363
0.01135415256921921
0.00610843418952187
-0.0121800045538659
-0.0008435698211906862
0.007690701532430883
0.00349292220254234
0.003191158542513263
-0.005726758853376656
0.005662791612325054
0.0008666975999106426
0.01023213882187975
0.01465961221429181
0.009988696130112671
-0.0001928539220031889
0.003404547982381036
0
0
0
0
0
0
0
0
0
0
0
0
0.002183137171620228
-0.004570496961168494
-0.002017796369512554
-0.003372645201334917
-0.005905168984188612
-0.003924842692972461
0.01176483625429656
0.008868944631424135
-0.003926070592229369
-0.00789880366329343
0.0119483895638852
0.01247025967884859
0.008550859690201909
0.003298060963640286
-0.007236075428097872
0.000193261487000497
0.002992983417712343
0.003827748457156257
0.001648147525934587
-0.00878700478896772
-0.006359395372141714
0.00810571567758173
0.00372050848208313
0.006917864461568401
-0.01090386742245835
-0.0002001531124922174
0.00210115603216116
0.008461068165774957
0.01346209999976302
0.01620402863322799
0.002753521851569988
0.003091693999191086
0
0
0
0
0
0
0
0
0
0
0
0
0.003440487008133512
-0.001723782247854304
-0.003385541364581509
-0.005045408744928244
-0.01209301243424376
-0.00759525363908972
0.008787623220388556
0.008326543407591173
-0.003446494447038664
-0.007049629567800782
0.0086683734782737
0.01083239697239336
0.01095900849659708
0.003491723076570701
-0.003793671868231858
0.0005100699144695503
0.0003421054309284379
-0.0004338536825887989
-0.004277134984800158
-0.007330540796353247
-0.01874018096062389
-0.002143821786960457
0.006048073102491217
0.001916796269760121
-0.01362859945979986
-0.0004358045821775847
0.002669434328721993
0.006850730172226619
0.01121203152014159
0.01564750190007195
0.005337857771453501
0.003546032709686553
0
0
0
0
0
0
0
0
0
0
0
0
0.003278573868071065
-0.0011913173842538
-0.004505685558852535
-0.005995186461139794
-0.01047069200064086
-0.01152689652375313
0.004511589139746432
0.007509258078120676
-0.001612953873958217
-0.004360411253395036
0.00649460474134072
0.008679187488921035
0.009366294654650914
0.003066412692840673
-0.0008479310347244916
0.003884248683659789
-0.0008573741036123732
0.004157721129426193
0.0001855645280478166
-0.003452589986290546
-0.01918477837448027
-0.01255087070413528
0.00584172054163063
-0.001039185416928338
-0.01018951122718947
0.001166535649776366
0.002473577853652461
0.006260213926698335
0.009417305823586781
0.007538652244203015
0.004594711829255577
0.002578009277307703
0
0
0
0
0
0
0
0
0
0
0
0
0.002023586821529161
0.0002944018490143382
-0.004592357942484934
-0.005531889139933322
-0.004484416632987616
-0.01448870761812288
-0.0008797446718993886
0.004420230532560565
0.001726759996363094
-0.0004500142792063791
0.004120670550024434
0.006509718757361366
0.00681360616488681
0.003530862378065906
0.001963422270390957
0.005536739829747515
0.0007402873745318562
0.00681468832444819
0.001215371492955781
0.002376077829586006
-0.008151298516051545
-0.01884065946327194
-6.251121650919584e-05
0.0009787075298718672
-0.005235952984878776
-0.001948597414416682
0.001935346974467894
0.005670397955118409
0.006928989947802403
0.004314618082694656
0.005156103179602705
0.00046706682843052
0
0
0
0
0
0
0
0
0
0
0
0
0.003675034813467732
0.00369467403523375
-0.003926711062053011
-0.001678752782699914
0.0007192197809037907
-0.01273767215314734
-0.004169915000419126
0.00222463434900943
0.002519853165043551
0.0008629888051770009
0.00362244095678504
0.004997163220428416
0.004951204892982505
0.003245805918849772
0.003225096096235558
0.004862125330982617
0.002372086786588019
0.005632292649631011
0.002636557356505497
0.001086214670636927
-0.002947174142196555
-0.005688416311595002
-0.0003542617285701262
0.0009654331193364887
-0.002801377665752256
-0.0016728997191136
0.001936076150144522
0.005357080066104882
0.005704158620252841
0.005553958524923833
0.006006298301376591
0.002946133194947508
0
0
0
0
0
0
0
0
0
0
0
0
0.004851627297926812
0.006287211617941476
-0.007910362901116618
-0.0002022754100088395
0.004624446401622839
-0.01001800998866111
-0.005073664460361331
0.001501561382426111
0.002319980637337182
0.0008483561854405755
0.003431217184606321
0.003944676462390178
0.00327103533191061
0.00222839964701425
0.003831660019310085
0.004254246245919257
0.002682264570122037
0.004856684677942095
0.003648108004481851
0.0007869654740578922
-0.00235045725250484
-0.001896232188312222
0.002266226772748342
-0.0001376715946848103
-0.002080915939484219
-0.001008704570016236
0.001886901285202994
0.005395271132030228
0.006462269283715778
0.005816112692903805
0.007034437938499758
0.004166988727168648
0
0
0
0
0
0
0
0
0
0
0
0
0.004386625779089439
0.007615658011568037
-0.01412335549875762
0.0004061855150608468
0.007643884270755416
-0.008710151361055636
-0.004388465722586405
0.001616925322057989
0.001497176190280212
0.0008979162393452831
0.002465280480744294
0.003353544358301962
0.002742430649833296
0.001750070631145989
0.004034019148247569
0.003993023395909968
0.002645150954237298
0.004726722846680273
0.00338346976628884
0.002037394587688789
-0.003705314946528316
-0.002487884173502291
0.001910484446618646
8.587994653464828e-05
-0.001052175714053282
-0.001054282562299639
0.001899385216857843
0.005605008333382606
0.006862048965626604
0.006064770528961589
0.006577054853488712
0.003032275571453654
0
0
0
0
0
0
0
0
0
0
0
0
0.005281563266181677
0.008099105293349238
-0.009783852499788885
0.001599206788123676
0.008141057923148561
-0.004527714849639486
-0.002386345908438654
0.001116137955865398
0.0006239444718354944
0.0011441338844237
0.001334760688497846
0.002919486561182176
0.002096481151390004
0.002124157164830742
0.004040926006162462
0.004231783665171705
0.002493040017440485
0.004715071450036122
0.003041185230195715
0.004025543358294862
-0.007355569634004871
-0.003460153290842451
0.0008274696100319452
0.0002934700177785427
-0.0001837490800245654
-0.0009479838682987385
0.002002362092549543
0.005952919472060862
0.007032567780094834
0.005991371145486633
0.004793911167467317
0.003885698238470071
0
0
0
0
0
0
0
0
0
0
0
0
0.004886590434369803
0.006730566400949489
-0.0009718738552267664
0.001292360541064542
0.004369840574040457
-0.0001570909239065088
-0.0003462378152673859
0.0006994198187261582
0.0003587948705819205
0.001005851878042249
0.0007482764643616836
0.002822182908374693
0.001586360894338349
0.002625238944107381
0.004028362053054401
0.00419906561739501
0.003091549743102218
0.004397398273162262
0.002198889911765843
0.004713975465551399
-0.009433484118669405
-0.002375520127408152
-0.0001998356793020793
-0.0005457271013228769
0.001826191302389637
-0.001167549589749719
0.002157528251995129
0.006257312827426042
0.007382419188395999
0.005124991846933766
0.003268669682646035
0.00471572034897421
0
0
0
0
0
0
0
0
0
0
0
0
0.00352304046963036
0.005857399052175311
0.0010249655088211
0.0002983771975285654
0.002539166407393108
0.001007623666357588
0.0003855970215744104
0.0004369120657647904
0.0002271394957767717
0.0006895985027100211
0.0003927758055519761
0.002401229975680303
0.001580688210334752
0.002691777683153248
0.003784102979267463
0.003777478758806135
0.003266356220879131
0.004011247610981305
0.002173874467123078
0.004044093604328551
-0.005782976201383537
-0.001189220528141858
-0.001767298810960231
-0.001265884820718404
0.003782501090806807
-0.000791821029160821
0.001604081510194539
0.006128937657629193
0.008023339437079086
0.002791539657066411
0.00361171631805057
0.003319021743662371
0
0
0
0
0
0
0
0
0
0
0
0
0.002689431896222122
0.005831535411462989
0.0007868000809305156
-0.0001642470290774979
0.001669247591474964
0.001200899086430776
-0.0003789982762934627
0.0005026664030133358
0.0005783644529619595
0.0003798121541329487
0.0001816243672799808
0.001654348040935275
0.001623623127089627
0.002426837060372477
0.003780141704348851
0.003695741363891345
0.00314189532020743
0.003888689588277903
0.003156378282833095
0.003710109800560948
-0.003083834463508348
-0.0006557390157549842
-0.002317287960512528
-0.001409647048704484
0.004045454182323521
0.0001914601277696121
0.0004166090095325828
0.005178835684875691
0.008545918628185647
0.001793851404608525
0.003854828246919542
0.00218406043011098
0
0
0
0
0
0
0
0
0
0
0
0
0.00251773223419252
0.006010356201534461
-0.0004123482434882312
-0.0006624874513150506
0.0007418514371350047
0.0001771016851765444
-0.001759816042609507
0.001465821390202084
0.0008381518881244345
-0.0006381969134417174
-0.0001850608177137777
0.0004413141709589628
0.001852474879630325
0.001394855639371055
0.004235477774517044
0.003934233579302015
0.002484531682643278
0.003600307942935855
0.005954093730042447
0.004261111005836319
-0.000778226792676804
0.000470287775408513
-0.002025368349761605
-0.001988488855928462
0.002540182107845367
0.001939444515394491
0.002035417183357521
0.00452793887933955
0.007955969403949376
0.003138068468001888
0.004907097238882722
0.001516416933215473
0
0
0
0
0
0
0
0
0
0
0
0
0.003244086220316327
0.003957547046530559
-0.001529450936915974
0.0003860189215976538
1.916379003600015e-07
-0.002109521187368489
-0.001634563424423839
0.003476630873209342
0.001267290833832567
-0.001191600720733358
-0.002290492959894455
-0.001089469781007335
0.002373941794945295
0.0003711156442132051
0.003483107853401132
0.003976367685290758
0.002098222980576434
0.003067886934121967
0.009514969324938723
0.004756976667444391
0.002722281223365215
0.002326183944143873
-0.003380294342972291
-0.003573951255801479
0.0004810792091526687
0.003197651373792197
0.003582253499144266
0.005407531899541799
0.00754073927209674
0.005755132387431428
0.005759095011258307
0.001745100054778447
0
0
0
0
0
0
0
0
0
0
0
0
0.003719230548422472
-0.001725857290578981
-0.0008903982696578922
0.00221509597323447
0.0001211267384569359
-0.004432878883102934
3.498384139594387e-05
0.006184397549552047
0.001903505417655888
-0.0001327598353667255
-0.008891416524975106
-0.002944189795712268
0.002719841377021609
-0.0003852235501084167
0.003296554293899716
0.003346510896922208
0.003256736625944177
0.002577319225779142
0.01108539892984605
0.004880215123366727
0.005672830404352487
0.0036787371703292
-0.00477563068373795
-0.005629164382150583
-0.0003600889366756139
0.004470412962399823
0.003831194270560927
0.006203727134649044
0.008082615431748616
0.007287145082154349
0.004447813329646404
0.001952831782806406
0
0
0
0
0
0
0
0
0
0
0
0
0.002323549531875514
-0.004132990713869722
0.0005826859112717654
0.003298627866755885
0.0002109730208752124
-0.004347204627480048
0.001788531684814161
0.008118723304978164
0.002129948150767127
0.003084206413312696
-0.0132032422760192
-0.003467358266277785
0.003207512310660888
-0.001409972496856819
0.003825151843241906
0.003444738130092814
0.004958579757319907
0.002277298604949818
0.01149066841403648
0.004739030150026933
0.006309784251620465
0.004955727101391769
-0.007243712386290957
-0.006907001377465404
-0.0005595751972558535
0.004353078547435999
0.00380624156314105
0.006823912432638557
0.009094316755491929
0.006684474549446496
0.003514408330165406
0.001198162810688061
0
0
0
0
0
0
0
0
0
0
0
0
-0.003773072735687304
-0.004596023898191912
0.001960794898914368
0.004486337596986001
-0.0001219247225014341
-0.003434992249883134
0.002684226952540247
0.00962073026475904
-0.0004404382960691304
-0.002247765637264057
-0.007865090615590146
-0.001463922065236944
0.003534142314113357
-0.003141697231678912
0.00483061581488852
0.005604750660191142
0.00503363351902245
0.002332601266980209
0.01277595190536956
0.005664525402573785
0.006161929783958611
0.007652908594263612
-0.01120506720266253
-0.009407061583368148
-0.001330646511694155
0.001829188034534777
0.004587569780821641
0.008944619493507956
0.01102146367287251
0.005763433919860741
0.001078554260235125
-0.003315700781030995
0
0
0
0
0
0
0
0
0
0
0
0
-0.006342086920516661
-0.002554795041106377
0.002518583731084157
0.006172809870997035
-0.0007775217124478209
-0.003735625150280897
0.001492386148818194
0.005770941281829113
-0.003334987238220156
-0.004814143830195255
-0.0001782394902722569
0.002793731146792452
0.003336145008664074
-0.004052695381599177
0.004996516917184651
0.008214654358847976
0.006480995875952108
0.002853093528691091
0.01366049770655069
0.003522360781045158
0.004636052833242872
0.009017269903322665
-0.01261429500670627
-0.01140799673021517
-0.002626556328010655
0.001364291364217554
0.00644898396248717
0.01251349562526572
0.01278310612820316
0.003702518904544771
-0.0009323049495458689
-0.007494956344615034
0
0
0
0
0
0
0
0
0
0
0
0
-0.002411119263075921
0.005096268694054169
0.005178969497220407
0.01039692242133767
-0.005049010204738818
-0.008948898403787068
-0.008909318029746009
0.007595698874052032
-9.604195213220679e-05
-0.002498862785650974
0.003650354080429964
0.007236275230995222
0.001160286550135116
-0.002723331600962102
0.00301645550288691
0.01651568062688254
0.01251674568154874
-0.0005602394081602099
0.005962071298997599
-0.002079135352461718
0.002228674260995683
0.01464573626056467
-0.01220788449086388
-0.01231983174432548
-0.003997333216226889
0.002731247054737423
0.008962367564377394
0.01740269138270877
0.0144608407128565
0.0002454641762252107
0.00429589955506042
-0.003901727266305926
0
0
0
0
0
0
0
0
0
0
0
0
-0.0008316089814734557
0.008212619568745276
0.006320879452479319
0.01072397033435318
-0.01075525026487324
-0.008897801437315171
-0.01009480767603622
0.01085845162817832
0.00172507701124203
-0.00228005194976123
0.003314430097644486
0.007811355924384379
-0.0002675236310986356
-0.0006771669833617027
0.0009741373441387435
0.01978105897404777
0.01638911951163744
-0.00224052994130636
0.002886990085236479
-0.001384259117935526
0.003819794236627477
0.01349761557595656
-0.01072017530710259
-0.01187055832660921
-0.004133694454172999
0.003989468125831644
0.009294421464041559
0.01796742074151734
0.01369052983216314
0.002768685082488128
0.01030694687467209
-0.002069467596536002
0
0
0
0
0
0
0
0
0
0
0
0
-0.002251693445020353
0.01096772054372811
0.003725381341579066
0.00879556838947384
-0.01065702365631793
-0.008381806797615656
-0.00851427106251487
0.01139283452587451
0.001731016522883217
-0.002020418995001988
0.003474924472211683
0.00726380800893248
-0.00113319040812882
0.002593607448478474
-0.0002151224628613836
0.02500083440420989
0.01266875903795228
-0.003003155563060121
0.003888021951554124
0.0001967888351408113
0.006960413510951637
0.01477786748249775
-0.01044510825071556
-0.01129515667085039
-0.004300671225896156
0.005136336808754027
0.008966578430299802
0.01788267374356761
0.01321625300227093
0.004292093447729121
0.0162831200112912
-0.00291345653457712
0
0
0
0
0
0
0
0
0
0
0
0
-0.003125198565275605
0.01264594650646896
0.003227506825470212
0.00802082500891424
-0.008794383082296148
-0.007802191314723317
-0.00468113012758335
0.01103279192119035
0.00135758544038388
-0.001120131362947732
0.003383071427052962
0.009700472662903163
-0.00201552221964541
0.005118386728442678
-0.002135130701670612
0.02313040591318337
0.01311503178864169
-0.003750325703317889
0.007872054874364922
0.001066567563216885
0.00911673184156434
0.0139385298051426
-0.01039916433330976
-0.01089112229764604
-0.004208428622276671
0.005592259733545454
0.008663877003978134
0.01833801049239057
0.01271139724769807
0.003803597221757386
0.01836734220249633
-0.002592681856340933
0
0
0
0
0
0
0
0
0
0
0
0
-0.003241502516859131
0.01282283636745555
0.003214968726845562
0.008064459643137538
-0.008547500799029394
-0.00771212746948037
-0.004161461681867191
0.01096970132204886
0.001287024687167466
-0.0009229087047135223
0.003438370369976918
0.01027525737901747
-0.00200740995588631
0.005515151190579631
-0.002353862791596787
0.02279734404071932
0.01325281559503796
-0.003779244121057379
0.00853892989018078
0.001178431335660907
0.009292345127210498
0.01378429435725678
-0.01038988731844767
-0.01083406706263414
-0.004170093014805755
0.005686053258347761
0.008610336982070206
0.01842067794006405
0.01265670907992264
0.00369636376289212
0.01862988584308407
-0.002517288719827606
0
0
0
0
0
0
0
0
0
0
0
0
-0.002298933909811693
0.01288544132989791
0.003229457045535957
0.008788083152358461
-0.007413175184646543
-0.007029934488808207
0.0002983029828247338
0.01112835778795248
0.001062523307827537
-0.0006500827192237083
0.004342287448377764
0.008055438612036182
-0.0007723760393847606
0.006217877342249053
-0.0002932335416234098
0.02319273340798639
0.01157829421503195
-0.002873104312013509
0.009297808667482546
0.002704300798922823
0.01004344502967465
0.01250080505792889
-0.01012796693421716
-0.01048972447686392
-0.00400188574611717
0.005758319701887688
0.008444682881573429
0.01888714497794541
0.01232086395221647
0.00369362066243395
0.01850136051080612
-0.002084184399295988
0
0
0
0
0
0
0
0
0
0
0
0
-0.002197494251962138
0.0129026288232188
0.003230046288645825
0.008905444608624863
-0.007312091149250815
-0.006965929858683925
0.0007698435337792059
0.01113993759897687
0.001007908538623928
-0.000635474635592043
0.004437394663520108
0.007761187400581519
-0.0006139373098233218
0.006295950645367404
-5.664586721729661e-05
0.02323856749516442
0.01140034379289002
-0.002768973721335003
0.009357455812176479
0.002858233961233492
0.01015230404247414
0.01238156353293066
-0.01010895061828364
-0.01045856195020032
-0.003977486739460986
0.005767770463768751
0.008424509641508662
0.01894182001473996
0.01229622562559604
0.003701702696775268
0.01847191267826761
-0.002025253981423489
0
0
0
0
0
0
0
0
0
0
0
0
)
;

boundaryField
{
    inlet
    {
        type            cyclic;
    }
    outlet
    {
        type            cyclic;
    }
    bottomWall
    {
        type            zeroGradient;
    }
    topWall
    {
        type            zeroGradient;
    }
    left
    {
        type            cyclic;
    }
    right
    {
        type            cyclic;
    }
}


// ************************************************************************* //
