/*--------------------------------*- C++ -*----------------------------------*\
| =========                 |                                                 |
| \\      /  F ield         | OpenFOAM: The Open Source CFD Toolbox           |
|  \\    /   O peration     | Version:  v1812                                 |
|   \\  /    A nd           | Web:      www.OpenFOAM.com                      |
|    \\/     M anipulation  |                                                 |
\*---------------------------------------------------------------------------*/
FoamFile
{
    version     2.0;
    format      ascii;
    class       volVectorField;
    location    "0";
    object      U;
}
// * * * * * * * * * * * * * * * * * * * * * * * * * * * * * * * * * * * * * //

dimensions      [0 1 -1 0 0 0 0];


internalField   nonuniform List<vector> 
1408
(
(0.1727334403345311 0.004469262612288484 -0.03021123244302214)
(0.1796058681809837 -0.006169218659609912 -0.03134157076664254)
(0.1594931587850137 0.01011673184077838 -0.007996964342917611)
(0.1881265032411552 0.006722949800254066 -0.04479592003270111)
(0.2243941513764396 -0.003726773106927535 -0.02659995455824361)
(0.2207464955800197 -0.003335613841646618 0.001060627130352446)
(0.2284384490740133 -0.003672666775268558 -0.0007418722348524016)
(0.2519016041722573 0.003751289641373385 -0.007238593473608175)
(0.274983941158975 0.001748621156482436 -0.002749372883071754)
(0.2849538995326269 -0.002194360877385804 0.001329390293794536)
(0.3241310381086575 -0.001498144952770331 -0.04251641355582175)
(0.3447228332549659 -6.125939020217215e-06 -0.05614748628856062)
(0.299126106613208 0.006755762196067437 -0.09209464160662448)
(0.2952990403902974 -0.005523131744165913 -0.01469579520278352)
(0.2905986297614675 -0.001916228990365201 -0.007366520642720207)
(0.2862317937879417 -0.001012998761748185 -0.01313195396714412)
(0.2861696975012568 -0.00291875413928665 -0.03499838651789365)
(0.2859751885095145 -0.0113781047992963 0.0002851694826073528)
(0.2396101817531261 -0.000724479773443365 -0.0004200869454856216)
(0.2404263591034943 -0.002369580860950188 0.01687537381350097)
(0.2909765132440594 -0.01043946642402161 0.01425351674195492)
(0.3406749268178244 -0.006625033237528509 0.02269890469991289)
(0.3629350139128805 0.01187669670995783 0.002283235042090194)
(0.3086501466567048 -0.01099011485546976 -0.05203262095009432)
(0.2819462076853077 -0.00194158819745859 -0.01978344131170607)
(0.1948539320745119 -0.001684925716469101 0.03032773276642346)
(0.1521502821411548 0.003831522111727077 -0.0002057396454261291)
(0.1574036707516083 0.001062002887009572 -0.02016439896461991)
(0.1756799085933622 -4.742050729653174e-05 -0.0285160363033556)
(0.1744912238404646 -0.001726310017550098 -0.02831011561853211)
(0.1580380509071509 -0.0003850165096710659 0.0008132159153978611)
(0.180672077806014 0.005113184584372031 -0.02581803522492776)
(0 0 0)
(0 0 0)
(0 0 0)
(0 0 0)
(0 0 0)
(0 0 0)
(0 0 0)
(0 0 0)
(0 0 0)
(0 0 0)
(0 0 0)
(0 0 0)
(0.1951830671151304 0.004815332757335159 -0.03093459892133829)
(0.2051544180937307 -0.004632713029073855 -0.03436074395372569)
(0.1804811356414112 0.009051225497047899 -0.008239581272647253)
(0.2073874447087944 0.007334333423969904 -0.04733525810528511)
(0.2504366860476076 -0.002104048055324464 -0.03745377562651282)
(0.2407114482941078 -0.003576278078841453 0.0002533132622430536)
(0.2460802029609528 -0.003620344159213898 0.0001023349266488978)
(0.2680445142233636 0.00433515835392773 -0.0043666134565835)
(0.2944536957344806 0.001590026031774756 0.0004267472272278772)
(0.3107291822707475 -0.00307161044306557 0.002965248207409232)
(0.3458733661792455 -0.002220768641049136 -0.04001618655610949)
(0.3729851641497185 -0.0005525456579443822 -0.05733132704321432)
(0.3241418323539723 0.004506529527595227 -0.09719023107236703)
(0.3302320713645137 -0.007131506212012998 -0.0162574527292808)
(0.324490632528298 -0.003210582087921928 -0.01038289885601168)
(0.3206446699995537 -0.001808485986887082 -0.01211980286717635)
(0.3320662024399739 -0.004442782368322226 -0.04023899722266411)
(0.319541812039776 -0.01010816811491783 -0.001490692038885893)
(0.2694897461340889 -0.001209847622654632 -0.001675943381203463)
(0.2681588781624899 -0.003097546594625226 0.01376100915436685)
(0.3291749355736451 -0.01151473370104117 0.009072976472780048)
(0.3663239445965277 -0.005882582208501378 0.02327024855007667)
(0.3979918135049985 0.008915146196424568 0.008886173619348197)
(0.3632473158300483 -0.01138087075332437 -0.04889914060274417)
(0.3214313529629897 -0.002418582409510126 -0.02712931677172388)
(0.22656974368529 -0.0007574689010133873 0.03328112327732261)
(0.1704312002229193 0.003305272307429505 0.0009446692827969512)
(0.1834337406874395 0.001055966526478715 -0.02095085580943412)
(0.2020346103942811 -0.0001259808226838637 -0.03003330186853986)
(0.195113772379389 0.000294009736507006 -0.03391648725688283)
(0.1791351645274625 -0.001950200312097106 0.001451378150940314)
(0.2008057352781112 0.004649127203113462 -0.02591017895307743)
(0 0 0)
(0 0 0)
(0 0 0)
(0 0 0)
(0 0 0)
(0 0 0)
(0 0 0)
(0 0 0)
(0 0 0)
(0 0 0)
(0 0 0)
(0 0 0)
(0.4189646655129576 0.008072700872376269 -0.03595250392302764)
(0.4721519024706984 0.01163283499147967 -0.06773290059587141)
(0.3925714022316927 0.00163283976310436 -0.01239572932962846)
(0.4570187910608565 0.0118166115738233 -0.07620256515780581)
(0.4999774013399307 0.01338215623864919 -0.1355925460360826)
(0.4770294577967477 -0.006669526563449876 -0.01050430334184961)
(0.4308742024443676 -0.003428438890024014 0.002695597910975109)
(0.4397834733742554 0.01013044977443609 0.02242777652467032)
(0.5067064007719627 -0.0001657089700198651 0.03611434291323672)
(0.5558680895299382 -0.01215308702837957 0.02222685795565623)
(0.6106463766781234 -0.01222302073085065 -0.009916694965149927)
(0.6352443160937119 -0.004959080357231587 -0.06755070426963579)
(0.6052956103785384 -0.02258880486782263 -0.1387999819626573)
(0.6583062981358486 -0.02259360491670259 -0.03621503378185226)
(0.6578994368209273 -0.01940932996596933 -0.03777292417051373)
(0.6786582559386427 -0.01291202452404011 -0.006544639469032805)
(0.7611277037159631 -0.02028708985609761 -0.0886156806619678)
(0.7053696077237354 0.001958045663616335 -0.02196673416391599)
(0.5551336660826272 -0.00626598636419851 -0.01238843851913558)
(0.5925531754335885 -0.01061597293016208 -0.02697199543123933)
(0.6932888346972038 -0.02403418982380972 -0.04597640507882064)
(0.6508061253853125 0.000654413517720773 0.02514685261393705)
(0.7571492803471471 -0.01886930655046734 0.06859643812103675)
(0.878893192083562 -0.01801867498519613 -0.01970413497550386)
(0.772889116516186 -0.007221306507105216 -0.09970717889719974)
(0.5377729695578169 0.008327189061203607 0.05435178401916276)
(0.4015445978357865 -0.00320858243071055 0.01827125491383959)
(0.431470754888782 -0.001188081431872387 -0.02494716011791565)
(0.4773483635436135 -0.0005067968143677517 -0.04382322678338484)
(0.426895133965749 0.01857798906352326 -0.08176685426714458)
(0.3989606610141843 -0.01574636890171617 0.001351295903300363)
(0.385414459566592 0.001364025909607179 -0.02523363152284025)
(0 0 0)
(0 0 0)
(0 0 0)
(0 0 0)
(0 0 0)
(0 0 0)
(0 0 0)
(0 0 0)
(0 0 0)
(0 0 0)
(0 0 0)
(0 0 0)
(0.4410933168754816 0.007865182940386331 -0.03341289002422635)
(0.5012401597144754 0.01174165620069925 -0.06774852156703295)
(0.4345748248279703 0.004122617098907457 -0.01630572256517138)
(0.4824812810180389 0.01035734125381137 -0.07483236875732036)
(0.526369097323943 0.01557288051663667 -0.1395835584771212)
(0.5098272415676984 -0.007011344564927116 -0.01277340331189592)
(0.462282747551284 -0.003853496156602002 -0.003179697634288253)
(0.4649083747030593 0.01114151575335228 0.02276186738033057)
(0.5297022482470323 -0.000182329144701976 0.04155311422507881)
(0.5752619551406212 -0.0140490408457891 0.02886568966512304)
(0.6317641608696534 -0.01378388787504091 -0.005318663360533105)
(0.6447008531011846 -0.005850964662796091 -0.06346847964510427)
(0.6312375638111305 -0.02874400423543537 -0.1333972232648407)
(0.6789585211969007 -0.02425299833906617 -0.04290913794913612)
(0.6790910445349818 -0.02352424381519831 -0.03856989934511607)
(0.7106617314863679 -0.01630789955888188 -0.007134862630204851)
(0.7867769445477496 -0.02343448383771213 -0.08992699759291144)
(0.7423360275579649 0.00110362533442673 -0.02779392964397157)
(0.5900790424392997 -0.006843932102927825 -0.01113559178021216)
(0.6237849073723116 -0.01051740875704888 -0.03582787060313576)
(0.7224314045073341 -0.02816252632486769 -0.05761033525088319)
(0.6927302118920967 0.0008241194169868747 0.01851145118123549)
(0.7893765266154236 -0.01906280467012644 0.06595386899762008)
(0.9139873060132704 -0.02295823725936638 -0.01559255735789443)
(0.8165516622764806 -0.008130339381112328 -0.09964902688824384)
(0.5861263681370397 0.01033825527090801 0.04470358499980374)
(0.4321419204342778 -0.003793520088173209 0.02178054745905213)
(0.4531020595548997 -0.004388284257998515 -0.02092942153946694)
(0.5043202619457475 -0.0011202682485268 -0.04267576592207568)
(0.4679885614347745 0.01950821033142686 -0.08196517105988559)
(0.4399589802252777 -0.01561087572872232 -0.006043992120641573)
(0.4177052067245112 0.001456009518304528 -0.02493776091221916)
(0 0 0)
(0 0 0)
(0 0 0)
(0 0 0)
(0 0 0)
(0 0 0)
(0 0 0)
(0 0 0)
(0 0 0)
(0 0 0)
(0 0 0)
(0 0 0)
(0.5732285591372698 0.007127181717576864 -0.01665631630658853)
(0.6735497124591604 0.01012240917401467 -0.05490165148750296)
(0.6835060339649057 0.0170366797226501 -0.04046965551202636)
(0.666806449379666 -0.0007376279300550792 -0.05481106023551361)
(0.6873275672768968 0.02737932106020183 -0.1663368758943367)
(0.7187089245414667 -0.009318161478515805 -0.02759530893375407)
(0.658468813230136 -0.006900611568316469 -0.03888669011950695)
(0.6180639727171763 0.01807896651083729 0.01492362744033018)
(0.6633200567021718 0.0003317973253219648 0.07111495122397958)
(0.6836388999899843 -0.02611889173258903 0.06769646082372553)
(0.7441026209065458 -0.02695172250827489 0.02340652166386624)
(0.7124222635054502 -0.01369408642338542 -0.03541388767664942)
(0.7612779433588566 -0.0754363844975794 -0.06929124708713905)
(0.7870694286080585 -0.03106461629683364 -0.081794818260186)
(0.7494693285037486 -0.04711033703923711 -0.03427210697658655)
(0.8533491420280266 -0.04137189240948255 -0.01201520190683767)
(0.917547998591165 -0.04251115508787603 -0.09409509084257034)
(0.9302092717688821 -0.01334241813713433 -0.06599369137644504)
(0.7911868679066816 -0.007978193101201861 -0.01014936881305454)
(0.7825870666478897 -0.004993970889362868 -0.1036314614245387)
(0.8737302713679531 -0.05354407516379329 -0.1295906533564531)
(0.9337709674209329 -0.003997405931631807 -0.03831481835306824)
(0.9504210480508299 -0.01456785017779154 0.02880779802300936)
(1.096492014010384 -0.05510743177216593 0.009659368019829008)
(1.048506391045321 -0.01513020892010548 -0.07745776228549876)
(0.8730918922232664 0.0240403708972674 -0.004751027063238331)
(0.6528398150193591 -0.00164995187570269 0.04744774397766633)
(0.5812480262023048 -0.02415993474694939 0.004720149887026913)
(0.6338897953149302 -0.01040221702532696 -0.02503677632466495)
(0.7015463704376279 0.02379032989143403 -0.08013217058753455)
(0.6915904991295754 -0.01233814674532867 -0.05431880656701216)
(0.6019303859972741 0.002473122002604298 -0.02316576306600112)
(0 0 0)
(0 0 0)
(0 0 0)
(0 0 0)
(0 0 0)
(0 0 0)
(0 0 0)
(0 0 0)
(0 0 0)
(0 0 0)
(0 0 0)
(0 0 0)
(0.7147039975980184 0.0238706228547538 -0.02371162688540251)
(0.7582067026670949 0.005126080441387851 -0.02782356574426863)
(0.8516136215229255 0.01817322854718788 -0.06134395528276321)
(0.8462041914998688 0.01290991787272342 -0.04415874548295036)
(0.7853725734048163 0.0212111614723971 -0.1377472439497315)
(0.8274551083118659 -0.01162313101271681 -0.01770603777944877)
(0.8362828161268272 -0.009185937022913026 -0.02871912385952225)
(0.7450349005109286 0.0230809980386354 -0.02547032328992613)
(0.7854173681614494 0.009253028061022572 0.05176940610381384)
(0.7462220464335045 -0.03796298556617723 0.07270847255797108)
(0.7858140408921955 -0.03452795851876281 0.02440609299970101)
(0.7274132406279843 -0.007561455283905723 0.01132315854942798)
(0.7648930153326702 -0.1352627415893157 -0.01151715379477731)
(0.8467199177717691 -0.008027326574618557 -0.09977011182486263)
(0.7083842135510051 -0.04132746986545115 0.02001787828665049)
(0.8397537516620694 -0.06982503602914589 -0.02096469369326539)
(0.8819576235620118 -0.0547303681002364 -0.06693878388496619)
(0.9097384864641613 -0.04914487458661439 -0.07328838164427022)
(0.8667218897222617 0.0120654490247955 -0.02408936027360989)
(0.8248294638173426 0.006134230787315786 -0.1648637019452214)
(0.8769361689151307 -0.07485055954457132 -0.1657533522463495)
(1.01049737327681 -0.04193369935899344 -0.07870826287644681)
(1.016242819693975 -0.007502817671840377 -0.03153925402427218)
(1.107808575798901 -0.07447226575400481 -0.01266384257875494)
(1.08278894412255 -0.0342794465582204 -0.05905472371306067)
(0.9813856967010811 0.04057121903117159 -0.02657356339790216)
(0.8040558670600799 0.02207452067382031 0.02691355371188481)
(0.7121338222113139 -0.03068663073686239 0.02847009692694331)
(0.6318577769897693 -0.03717348277077713 0.01213616478300881)
(0.7652598114637046 0.01018664290419753 -0.05408723064739079)
(0.8397046055025613 -0.00813241914789822 -0.08615772139733575)
(0.7703188216574791 0.007962903863478083 -0.03537861988187172)
(0 0 0)
(0 0 0)
(0 0 0)
(0 0 0)
(0 0 0)
(0 0 0)
(0 0 0)
(0 0 0)
(0 0 0)
(0 0 0)
(0 0 0)
(0 0 0)
(0.7887223770483611 0.02525835220469346 -0.02363275664445301)
(0.8110196632510638 0.01633312120149839 -0.01126873882069165)
(0.895606862824898 0.01796533801504989 -0.04468796344768775)
(0.9435983648771361 0.02255556613619418 -0.04228904581103795)
(0.9393953966543243 0.04015564869373228 -0.1269738972307464)
(0.9308748028505089 -0.01361128217589197 -0.04483326470227095)
(0.9207907958507273 -0.03924205401632884 0.01445026960113683)
(0.8195320224548597 0.02528033214852446 -0.06015326379997817)
(0.8554743004996921 0.02186737027744269 0.02772374589431946)
(0.8198724573252461 -0.04575534417126514 0.03024454187376099)
(0.8166666111744959 -0.04019121268633455 0.01021891888112542)
(0.7855984714856095 -0.002243594351078354 0.04451215971614537)
(0.7973422110663133 -0.160641086047349 0.04664756270102852)
(0.8021788169981304 0.04469354768426485 -0.08854884113635553)
(0.6978268489438937 -0.01675664513311979 0.1038954628356584)
(0.7828941797088445 -0.07656318524904972 -0.0004522326744266033)
(0.8062016497050941 -0.04712281945385564 0.006177818204692901)
(0.874376649037236 -0.05658649229289518 -0.06665392612895672)
(0.8392030090297931 0.0368876577014073 -0.05259721146965138)
(0.8676339469301868 0.01556480377037358 -0.1664881532787859)
(0.8805081102283421 -0.06989364728238037 -0.1534286316972768)
(1.012602899308176 -0.08147457965492552 -0.07989784222385213)
(1.0705946312916 -0.007376087505819835 -0.05391025535252613)
(1.111370926875533 -0.07830317810795004 -0.02437083313624471)
(1.057483479104887 -0.03773730050441228 -0.05441617996275244)
(1.010992872792482 0.06222255211071824 -0.02727811582429412)
(0.8378367176361217 0.01828338714629675 -0.03494748594025059)
(0.9361278218077764 0.005372373026428877 0.03303422787963761)
(0.6558828648054491 -0.04997584714905454 0.02919328366998234)
(0.7325618837153289 -0.02004763729763078 -0.004818061367996515)
(0.8624398027729637 -0.009337277474360355 -0.07634227807881323)
(0.8037399440615463 -0.001582866613559191 -0.03934987870786244)
(0 0 0)
(0 0 0)
(0 0 0)
(0 0 0)
(0 0 0)
(0 0 0)
(0 0 0)
(0 0 0)
(0 0 0)
(0 0 0)
(0 0 0)
(0 0 0)
(0.7082286593837658 0.003368734700727158 0.03737686232374199)
(0.7955152092257601 0.04173060058320088 0.03982563246797073)
(0.9138644373951486 0.04140959025406112 -0.011619616548215)
(0.9953452990818704 0.03172771728022645 -0.03661753760681539)
(1.049087500645055 0.03631912836086245 -0.08281363570464335)
(1.078657460820298 0.003973706362573202 -0.07333043982871137)
(1.027123559859128 -0.05941601096773074 0.04328678916770784)
(0.9089119804915611 0.04118166894676936 -0.04434134957546173)
(0.9072936316627871 0.06580760657999132 -0.02601576433593304)
(0.9767689847280198 -0.06222889253301322 -0.1122662807985391)
(1.048931759777699 -0.04444425933672432 -0.009909628299369802)
(0.9358646038461671 0.01605743377896639 -0.01776529271929532)
(0.9680517342536121 -0.134784634299802 0.05069700803866526)
(0.7366332802762421 0.1267308444273493 0.02806805689680807)
(0.7959647097243193 0.02293944897955354 0.08978323942965652)
(0.8395573117246986 -0.02306719506848025 0.08703575154896231)
(0.902695837747661 -0.03203030603140612 0.04364950140786208)
(0.9271540230535854 -0.01501308685399766 0.07758244277413524)
(0.8878413750109927 0.01866202976093701 -0.05284363904352835)
(0.9222413051961315 0.02640080577638904 -0.06141125214020907)
(0.8499508248211073 0.002208736983984152 -0.02568537961339457)
(0.9794292328063772 -0.05236639834939509 0.03106444289103302)
(1.076755117591442 -0.01198680655936686 0.005226872371171349)
(1.078326391491345 -0.04698973646687719 -0.008196598069542146)
(1.070429942977688 -0.03223211416340346 -0.003431358277953264)
(1.054390383984699 0.09902665463133127 -0.01542770804550139)
(0.979410515535574 -0.04629358175151703 -0.04134712270242476)
(1.038363092922973 -0.004563138732074428 -0.06908588633654779)
(1.058968196144532 0.002407747761399676 -0.01905774149124697)
(0.8058681240888648 -0.00303291522565415 0.08378521425422171)
(0.7812627033250604 -0.01420610228525476 -0.01359391916045219)
(0.72508456839701 0.002150987448762677 -0.008164535057043773)
(0 0 0)
(0 0 0)
(0 0 0)
(0 0 0)
(0 0 0)
(0 0 0)
(0 0 0)
(0 0 0)
(0 0 0)
(0 0 0)
(0 0 0)
(0 0 0)
(0.797591846480241 0.03820170410168248 0.03437826208948971)
(0.7696977586234405 0.03761514902190405 0.09451486548026405)
(0.9399850171665218 0.05389209468283072 -0.01123441168068437)
(0.9968569741963095 0.02850222313143128 -0.01411344470335723)
(1.051263152827437 0.02292928112318535 -0.07417436128311432)
(1.130490206047942 0.007624001660978614 -0.1221616257304639)
(1.065324942928088 -0.05553995074996883 0.01916227436506098)
(0.9917142903320022 0.0398101189504438 -0.03807858438779702)
(0.9618622613037429 0.09489939432103645 -0.05106896733472512)
(1.065478627277724 -0.08873434461549674 -0.009882605726583059)
(1.0967748894601 -0.02768047034932031 -0.07214293336891031)
(1.016049877755211 0.03856956707072159 -0.03993180285585333)
(1.032679534130877 -0.04988846863369441 -0.008103227290169129)
(0.815999250258568 0.1178072399601836 0.02245048849119259)
(0.7680517152125768 -0.0006638800248621125 -0.03399709351347213)
(0.8613882221211158 0.02418218020536105 0.1028318290121089)
(0.8946077512386483 0.01929851428654323 -0.03097020906203095)
(0.9393741749202319 -0.01628832103232251 0.0947483839488726)
(0.9717491576375462 -0.07490312123584777 0.0505425819122849)
(0.9638505675053752 0.03221056548259187 -0.002980237013013869)
(0.8845028333141628 0.08930053018627095 0.0884254879882741)
(1.009855701413369 0.007734306694705238 0.1247923652024218)
(1.042334092496934 -0.009281143877685392 0.07108861608682585)
(1.02630760495427 0.000197061815060456 0.03061858726019062)
(1.104758630021746 -0.05226734045049691 0.03343775803372807)
(1.062099034572261 0.1378103041472863 -0.0005635729848029142)
(1.021097839019601 -0.05968604025977526 0.0003564379513677613)
(1.067208074059522 -0.02425948621990626 -0.06440628512670996)
(1.080950551418307 -0.01383386096821847 -0.03564681381613906)
(0.8670369981880116 0.01514336046765718 0.02502489910989922)
(0.831565442219913 0.01002838521834591 0.02406386465371169)
(0.8013873469123326 0.02571743439457824 -0.01324079177615238)
(0 0 0)
(0 0 0)
(0 0 0)
(0 0 0)
(0 0 0)
(0 0 0)
(0 0 0)
(0 0 0)
(0 0 0)
(0 0 0)
(0 0 0)
(0 0 0)
(0.8808146437099674 0.04107800490548119 -0.03630960704592139)
(0.8929178301374316 0.07484322853231326 0.1263126188436315)
(0.9510669488272955 0.07362474221841001 -0.003959257085664545)
(0.8808762660062792 0.1041494042364158 0.09966765258058988)
(0.9945214143928708 0.04826500169461174 0.06037440746943096)
(1.122955279121254 -0.01743385805573177 -0.0951476490419626)
(1.125872522909846 -0.02491606079205006 -0.04476918786272261)
(1.158172719581429 0.02668658801989443 -0.02101803380026701)
(1.097388027998346 0.09200036112322041 -0.01502494818278776)
(1.181729983052221 -0.1151244353797168 0.001777750479397611)
(1.140328093068858 -0.02572933186927374 -0.07935726443599617)
(1.14684671153994 0.00221810857186743 -0.02600939480366208)
(1.106135395542119 0.01457427075018291 0.001498011853211057)
(0.982602053698708 0.1216721364506389 -0.07089346989533582)
(0.9759749823550199 -0.0486414998181772 -0.03313981460034197)
(0.857256036357387 0.05324210522883904 0.01381522660313812)
(0.9310206443190051 0.01615601104600245 -0.08932047340513717)
(0.8851632740887475 -0.0271394558048015 -0.005088063255500291)
(1.020185561424362 -0.08714785499434616 0.04937275701905357)
(0.9715299659909916 0.06468714522092872 0.00070224572668729)
(0.9420972309262667 0.07199163257699126 0.05577964855435416)
(1.038775099448165 0.001043987368750149 0.1312321779812193)
(1.039025736421698 -0.007392555168176603 0.1166102275019281)
(0.9993148727070874 0.06901233772665888 0.02950069701381963)
(1.105229421959592 -0.08592129034380203 0.06225829536283996)
(0.9598473165712589 0.1418570623218787 -0.05314385716990617)
(1.049889393686393 -0.04603781532509262 0.02329977560904559)
(1.059161027884277 -0.03351260667027779 0.01463203463591234)
(1.106673690412532 -0.01272063824600757 -0.01152699497733935)
(1.150033703094507 0.07485689061787545 0.001884493179794997)
(0.9102635894105074 0.0299492734385364 -0.01168013832830612)
(0.8968842202429981 0.025919665726625 0.002857939224217792)
(0 0 0)
(0 0 0)
(0 0 0)
(0 0 0)
(0 0 0)
(0 0 0)
(0 0 0)
(0 0 0)
(0 0 0)
(0 0 0)
(0 0 0)
(0 0 0)
(0.9345031227204067 -0.01774429827894449 -0.02394006542931149)
(0.9667808266529132 0.1101614088089607 0.08022414588904854)
(0.9370724193337893 0.1001188460465533 0.01644942964675448)
(0.8746607018439816 0.1421079043660535 0.1165674156184771)
(0.990545243241414 0.09918439473322127 0.1669739853108052)
(1.095638461166959 -0.017636054100751 -0.04445378421722543)
(1.15438679967457 -0.01492307240246952 -0.0687559219304906)
(1.184871597490877 0.01053464733561205 -0.04549159791340548)
(1.212097164624748 0.06821551278211282 -0.01386396858691982)
(1.227879094051466 -0.1055764582354699 -0.01186921119796086)
(1.150774520996857 -0.03285091535226493 -0.08835719612134822)
(1.156284850919103 -0.01915202592589887 -0.01716276690058462)
(1.15589377995961 0.02831514947421564 0.006292705952680584)
(1.135223614732145 0.06192639366282322 -0.04595571770891734)
(1.127714722903675 -0.03838870320176564 -0.06871232767571336)
(1.0207827440339 0.0107091092282623 0.04652515856030036)
(1.03517298179129 -0.03857535571326062 -0.02466665057966761)
(0.9759773111888503 0.004087849066866432 -0.1016624012887581)
(0.9890645325475669 -0.04697991569935764 -0.008166200944501243)
(0.9410796429275389 0.05583533640661423 0.03122167167989319)
(0.9930897545188189 0.02968268205529081 -0.01198813628404749)
(0.9999263147805038 -0.05503781342775488 0.08139655223783776)
(1.065892033543854 0.004527809825802408 0.1627765020937293)
(1.03962955593395 0.08868197195268891 0.007642541559378607)
(1.094995227375474 -0.06479768005331704 0.09911935845064279)
(1.004886061498176 0.05144673606625303 -0.05731482683500504)
(1.069321209160694 -0.03915684405276716 0.02532353524822251)
(1.083633530628592 -0.04634972907326152 0.02908088562100804)
(1.124877797895011 -0.04621324000927534 -0.003782590929329187)
(1.137351170055407 0.07551841524925963 -0.01824622742364436)
(1.031364728640861 0.05492926314744127 -0.06246787596783699)
(0.9659842331834163 0.005841347429731017 0.02439372500295747)
(0 0 0)
(0 0 0)
(0 0 0)
(0 0 0)
(0 0 0)
(0 0 0)
(0 0 0)
(0 0 0)
(0 0 0)
(0 0 0)
(0 0 0)
(0 0 0)
(1.03216345322045 -0.05488681494165085 -0.02811869196545815)
(0.9441319681318735 0.1190283801882872 0.0400064826556757)
(0.9473692265300391 0.1195114096298266 0.04124773381260645)
(0.8874049563760966 0.1053398919574605 0.054446358846601)
(0.9878623074095692 0.1215800844435245 0.1957383493149527)
(1.055504494693158 -0.01425220598519132 0.0554634107073305)
(1.17781528262245 -0.03697131556348823 -0.06322217789586698)
(1.213308829689291 -0.00944569800149817 -0.04527366846853087)
(1.24754361036373 0.02184262043316777 -0.05619735589987905)
(1.228925870416787 -0.07927951520479641 -0.0289147805591798)
(1.139453185122181 -0.05181111675859996 -0.06944209233949496)
(1.134211288172128 -0.02246548933576782 0.009733521506404429)
(1.136568587049075 0.004679663797803497 0.01001393167358382)
(1.178336778681 0.008862901910255103 -0.0005382491255710279)
(1.173680458293873 -0.0152109517842175 -0.05265004421939866)
(1.170161870794947 0.01799762810732073 -0.003884594840938028)
(1.181836343598206 -0.02070873584570525 0.002756935413572195)
(1.057697796568732 0.02144544312354185 -0.07058786341014879)
(1.020674215278973 0.00693781000385705 -0.008057801069090183)
(1.016859553630495 0.006534989794467387 0.04377208701911946)
(0.9936673002458701 0.001407750401949238 -0.09132589939029076)
(1.023840541172972 -0.1210891652373513 -0.055539392276202)
(1.09592102836144 -0.04434309749836499 0.1317441677477912)
(1.159999339449368 0.04074693437043843 0.09342183020095517)
(1.153335358964541 -0.0248473311356929 0.1182643247326223)
(1.102865039025981 -0.03366774094884727 0.02604086120272867)
(1.106689874747087 -0.0335625229183141 -0.008392380702160548)
(1.114121467167277 -0.04760583151864403 0.03820271958480217)
(1.140781425663622 -0.07983477357464705 0.006090326410014584)
(1.078932511010627 0.07192811597812444 0.005677391898026318)
(1.094116665586442 0.06544173397118191 -0.1094179151146261)
(1.052810578519719 0.05217139461436146 -0.02375653650608001)
(0 0 0)
(0 0 0)
(0 0 0)
(0 0 0)
(0 0 0)
(0 0 0)
(0 0 0)
(0 0 0)
(0 0 0)
(0 0 0)
(0 0 0)
(0 0 0)
(1.078565834521807 -0.02540064475717702 -0.0523206377546385)
(0.914702098040402 0.1326586647311835 0.01044770307694049)
(0.9392553322164622 0.1149943214263025 0.07539566272709798)
(0.892857471145567 0.05380867221251995 0.01744720542989599)
(0.986168772846471 0.112382305951217 0.1375647097398888)
(1.045389095389377 -0.0003192390282947197 0.1148542301138398)
(1.172151496325855 -0.04904165147558749 -0.05060026265951639)
(1.211227672924461 -0.01583216357521 -0.03313753792073592)
(1.178571151331611 -0.01142265503960396 -0.03755149164210238)
(1.150916346500491 -0.05656588803569614 -0.009875682408207159)
(1.084452685452225 -0.05000117139864823 -0.01858502837297472)
(1.117427476972312 -0.01573896997758825 0.02785476196136488)
(1.102978975460088 -0.01076461816795025 0.0395557449980718)
(1.150482294846911 -0.01260952171637203 0.03679240017029849)
(1.175537976744341 -0.008677097411200631 -0.02254590078942009)
(1.191558515016011 0.008614006894608364 -0.02132936544778759)
(1.208272433859916 0.0001648350432170043 -0.005750313138679397)
(1.170133579626585 0.01496310352187787 -0.02968217054737162)
(1.165045593211511 -0.005893373496897072 -0.02817282732538932)
(1.124725037136167 0.001111058864209896 0.001245920218211755)
(1.170364015308974 -0.007555922362873547 -0.001942384064652536)
(1.162442699388287 -0.06737525955640641 -0.07365823136653696)
(1.143862365753014 -0.08159162219712741 -0.01575223758929309)
(1.206816095199879 -0.03069116493464501 0.06913799423943581)
(1.247856968011778 -0.006777585888670563 0.0928527075613956)
(1.170012038846161 -0.02154855940779376 0.06941330422245275)
(1.128112429156676 -0.04084203302498345 -0.02185477970588715)
(1.135040833307465 -0.03918634164332378 0.03126562225060302)
(1.131661712228014 -0.08114725663254893 0.01617191959739048)
(1.071871472638935 0.0570934469116294 -0.00742600037785558)
(1.080989474399431 0.05716879016294543 -0.06215252134114597)
(1.090125665929965 0.06327514927059891 -0.01088598646886987)
(0 0 0)
(0 0 0)
(0 0 0)
(0 0 0)
(0 0 0)
(0 0 0)
(0 0 0)
(0 0 0)
(0 0 0)
(0 0 0)
(0 0 0)
(0 0 0)
(1.049159194909433 -0.007854164199640004 -0.01264700643235283)
(0.9779423582268881 0.1322409939757826 -0.03111673284729193)
(0.9001438624867946 0.1112514795224417 0.0907913496322465)
(0.9822385194886056 -1.724895214830245e-05 0.08916328977325062)
(0.9804329305916135 0.0829716287494669 0.04774744760835192)
(1.042006101131299 0.03125253750477756 0.1181743055553645)
(1.181480087188066 -0.0601702314174027 -0.04226413842979149)
(1.196625323671671 -0.02749697184964861 -0.01459311091601938)
(1.162787854918607 -0.02467096445741523 0.008666577667329462)
(1.108777784562233 -0.0539206788766197 0.02197260193913259)
(1.084580509810286 -0.03037146967163749 0.002993057872008928)
(1.123297729086125 -0.01855073148834788 0.03836485850007118)
(1.126419351921855 -0.0003778965892408394 -0.003183576620725297)
(1.118269916375822 -0.02690147709541296 0.005983430441540703)
(1.171836790010051 -0.01268855538579256 -0.007458925613431975)
(1.205813904364 -0.003622283646257156 -0.002198438912098171)
(1.219623747889573 0.006225335156984213 -0.001836126822805172)
(1.20718094705995 0.001102044163253831 -0.0257598634875519)
(1.233471437921156 -0.01668124127208558 0.0005686740550980334)
(1.241477467192717 -0.02154253282724277 -0.02542423707662361)
(1.255622004641613 -0.0640463798064304 -0.0004105404235224836)
(1.242498275098135 -0.02601557889722447 -0.03659984525889785)
(1.210138714013836 -0.02289417308771339 -0.01691870563049868)
(1.220094826449226 -0.04182441724191813 -0.006256711455158304)
(1.169941574889929 -0.01285023426939542 0.04900787109110774)
(1.186719261360806 -0.02281118477786313 0.0751665207965846)
(1.150839521003739 -0.04044256054381888 -0.02665660327514817)
(1.13698931283061 -0.03196875268212389 0.03193205692860873)
(1.128642705923356 -0.04687139771783178 0.01318036017995742)
(1.115693630605602 0.04050393863329225 -0.01807660297055359)
(1.10046532491022 0.0305777334043985 0.01399652638099372)
(1.069390495947407 0.07345304247950005 -0.004619068110657334)
(0 0 0)
(0 0 0)
(0 0 0)
(0 0 0)
(0 0 0)
(0 0 0)
(0 0 0)
(0 0 0)
(0 0 0)
(0 0 0)
(0 0 0)
(0 0 0)