/*--------------------------------*- C++ -*----------------------------------*\
| =========                 |                                                 |
| \\      /  F ield         | OpenFOAM: The Open Source CFD Toolbox           |
|  \\    /   O peration     | Version:  v1812                                 |
|   \\  /    A nd           | Web:      www.OpenFOAM.com                      |
|    \\/     M anipulation  |                                                 |
\*---------------------------------------------------------------------------*/
FoamFile
{
    version     2.0;
    format      ascii;
    class       volScalarField;
    location    "10000";
    object      nut;
}
// * * * * * * * * * * * * * * * * * * * * * * * * * * * * * * * * * * * * * //

dimensions      [0 2 -1 0 0 0 0];


internalField   nonuniform List<scalar> 
3770
(
5.784118111217687e-06
5.787453823771605e-06
5.785567583563973e-06
5.784142187953289e-06
5.787453710492683e-06
5.785567634018025e-06
5.784142213696416e-06
5.787453767525693e-06
5.785567689655244e-06
5.784142282267424e-06
5.787453910737346e-06
5.785566969247767e-06
5.784135141449335e-06
5.787620758056431e-06
5.786440367542818e-06
5.723404541799267e-06
5.720527403070599e-06
5.722302965254329e-06
5.723696866275904e-06
5.720528397901136e-06
5.722302664432602e-06
5.72369697965718e-06
5.720528271401291e-06
5.722302693479125e-06
5.723696873098735e-06
5.720528125197257e-06
5.722303547907436e-06
5.723704562219275e-06
5.72032809375479e-06
5.722229310912686e-06
5.785716107716125e-06
5.784540174609959e-06
5.787453603242348e-06
5.785567770705313e-06
5.784142008713801e-06
5.787453766640929e-06
5.785567480818576e-06
5.784142248376107e-06
5.787453599538002e-06
5.785567642326344e-06
5.784142134708153e-06
5.787453692850708e-06
5.785567560315552e-06
5.784142175984073e-06
5.787453647564387e-06
5.78556760589871e-06
5.784142137787663e-06
5.787453672225924e-06
5.785567586824803e-06
5.784142161790201e-06
5.787453664755588e-06
5.78556759875029e-06
5.784142154230969e-06
5.787453680989017e-06
5.78556759371583e-06
5.784142166277564e-06
5.787453727469556e-06
5.785567566429131e-06
3.94232313476191e-06
3.981057289188289e-06
3.962287645198081e-06
3.942563885839953e-06
3.98105377569906e-06
3.962288738279558e-06
3.942564236086738e-06
3.981054999566487e-06
3.96229030999752e-06
3.942565833553695e-06
3.981056819334664e-06
3.962268495257812e-06
3.942618567548898e-06
3.984228156374093e-06
3.918253322925313e-06
3.366669579075099e-06
3.361720472582352e-06
3.364028933597271e-06
3.368311289172649e-06
3.361718693733207e-06
3.364032173328571e-06
3.368309417831544e-06
3.361721653859829e-06
3.364030507968597e-06
3.368311314849625e-06
3.361719841783958e-06
3.364035779057464e-06
3.36832540727046e-06
3.360992687311889e-06
3.374524966299232e-06
3.963221286928395e-06
3.956051309756423e-06
3.98105525788673e-06
3.962290304818259e-06
3.942558561672146e-06
3.981055096497725e-06
3.962284309217465e-06
3.942564433213981e-06
3.981050609002061e-06
3.962289203737037e-06
3.942561518353666e-06
3.98105360557575e-06
3.962286686146846e-06
3.942563177116032e-06
3.981052015363019e-06
3.962288166445319e-06
3.942562038952912e-06
3.981053114706698e-06
3.962287231916615e-06
3.942562737745072e-06
3.981052526193599e-06
3.962288053484999e-06
3.942562721344084e-06
3.981052760472443e-06
3.962287537278959e-06
3.942562901360751e-06
3.981052777505376e-06
3.962260286455852e-06
2.13569955996561e-05
2.142841061324928e-05
2.13919247607869e-05
2.135757049400866e-05
2.142840345069622e-05
2.139192749704456e-05
2.13575696396144e-05
2.142840386677421e-05
2.139192661517773e-05
2.13575660480266e-05
2.142839426260836e-05
2.139184376723066e-05
2.13576895784365e-05
2.143448619062855e-05
2.131873634924314e-05
2.01350047074658e-05
2.00527713728183e-05
2.010391599383722e-05
2.014906029147603e-05
2.005295096482268e-05
2.010388102471645e-05
2.014906794659049e-05
2.005295144590286e-05
2.010386747975149e-05
2.01490533781811e-05
2.00529154997269e-05
2.010388039136553e-05
2.014848571689777e-05
2.004477252780192e-05
2.022054109926778e-05
2.140282137962292e-05
2.138579402216758e-05
2.142840834878835e-05
2.139191285241304e-05
2.135756082639579e-05
2.142840052010279e-05
2.139191599239379e-05
2.135756765382466e-05
2.142839462123054e-05
2.139192751658796e-05
2.135756371782378e-05
2.142840254490785e-05
2.139192307334102e-05
2.135756820204564e-05
2.14283982369597e-05
2.139192557650375e-05
2.135756527675538e-05
2.142840187001672e-05
2.139192380403734e-05
2.13575667575937e-05
2.142839979828976e-05
2.139192545435654e-05
2.135756655852942e-05
2.142840048688617e-05
2.139192461544806e-05
2.135756694144943e-05
2.142839979515634e-05
2.139185299394227e-05
7.484968933016314e-05
7.493020074058228e-05
7.488656217493182e-05
7.485048099146091e-05
7.493018781973947e-05
7.488656388591514e-05
7.485047189360178e-05
7.493017895131917e-05
7.488654055975515e-05
7.485043244537529e-05
7.493010759528736e-05
7.488631124587281e-05
7.485036116169807e-05
7.493673177579404e-05
7.481749001882913e-05
7.377990346637466e-05
7.369577500602159e-05
7.374924941313681e-05
7.379343081748136e-05
7.369631191215323e-05
7.374902036985584e-05
7.379352994190246e-05
7.369623374925963e-05
7.374897903877654e-05
7.379338211006646e-05
7.369603509857388e-05
7.374863068467576e-05
7.379217059946077e-05
7.368689104979715e-05
7.385583212089015e-05
7.490622014139648e-05
7.488233291161792e-05
7.493016699536001e-05
7.488646885081465e-05
7.485049868698787e-05
7.493015608964779e-05
7.488655885144337e-05
7.485045730071935e-05
7.493018448035492e-05
7.488655847764405e-05
7.485047958896773e-05
7.493018722642181e-05
7.48865669201676e-05
7.485047647778941e-05
7.493018649674147e-05
7.488656427153979e-05
7.485047811190662e-05
7.493018903400815e-05
7.488656552089736e-05
7.48504773942717e-05
7.493018811600834e-05
7.488656542234364e-05
7.485047809799735e-05
7.493018777526904e-05
7.488656521223585e-05
7.485047597318584e-05
7.493018305685306e-05
7.488646320278735e-05
0.0001877135471184562
0.0001877569579541368
0.0001877322625309315
0.0001877140444005527
0.0001877569386097682
0.0001877322478875093
0.0001877140075545872
0.0001877568983205005
0.0001877321617781996
0.0001877138712596675
0.0001877566756443751
0.0001877316594323064
0.0001877131822973686
0.0001877598402354544
0.0001877016562113352
0.0001871712483644568
0.0001871200860760825
0.000187152710133011
0.0001871778027403915
0.0001871211424873553
0.0001871520314350416
0.0001871781510081238
0.0001871208267749937
0.0001871519497294304
0.0001871776299727259
0.0001871202836587328
0.0001871507264390239
0.0001871754380036552
0.0001871135384476642
0.0001872090366330853
0.0001877646714371784
0.000187737171608268
0.0001877568188519781
0.0001877319595955242
0.0001877141727539597
0.0001877568359601011
0.0001877323021281791
0.000187713961760692
0.0001877569825701329
0.0001877322348364936
0.0001877140846037638
0.0001877569452644457
0.0001877323027973086
0.0001877140432223862
0.0001877569686332198
0.0001877322698323613
0.0001877140668582599
0.0001877569577838488
0.0001877322878496163
0.0001877140527838199
0.0001877569625361647
0.0001877322752779608
0.0001877140575402991
0.0001877569551616142
0.0001877322767031862
0.0001877140463727636
0.0001877569499555021
0.0001877322197857968
0.0003711578705323209
0.0003711696591694422
0.0003711626041138918
0.0003711580206106714
0.0003711696204637781
0.0003711625565487564
0.00037115793292392
0.0003711695262598924
0.0003711623668759883
0.000371157643116736
0.0003711690853948941
0.0003711614760433417
0.0003711563252917086
0.0003711698173543122
0.0003711576423630862
0.0003709561679929631
0.0003709276511936624
0.0003709458884495727
0.0003709572129807665
0.000370929255510718
0.0003709446328015502
0.0003709579322347413
0.0003709285896679469
0.0003709444874248364
0.0003709568185813095
0.0003709275979622218
0.0003709421074471647
0.0003709534716969098
0.0003709233506981599
0.0003709738945100149
0.0003712024288308386
0.0003711724673862493
0.0003711692597346927
0.0003711620223172671
0.0003711583644314622
0.0003711694371136442
0.0003711627217567191
0.0003711578436953399
0.0003711697642079904
0.000371162544663406
0.000371158157989715
0.0003711696544824976
0.0003711627249044555
0.0003711580369212843
0.0003711697192173297
0.0003711626294091475
0.0003711581030878275
0.0003711696831567165
0.000371162679175489
0.000371158060195437
0.0003711696963259563
0.0003711626412759289
0.0003711580728599984
0.0003711696750789928
0.0003711626449981083
0.0003711580436847387
0.0003711696689751609
0.0003711626309068038
0.0006194375693424476
0.0006194334922112069
0.0006194362373235727
0.0006194375107034831
0.000619433426366031
0.0006194361438847144
0.0006194373595243827
0.0006194332673552254
0.000619435833597637
0.0006194368967462084
0.0006194325975360287
0.0006194345264731747
0.0006194351241341766
0.0006194327789273189
0.0006194423307727123
0.0006193775424651413
0.0006193580579117659
0.0006193710707662832
0.0006193758022075208
0.0006193599956933557
0.000619369339207641
0.000619376900566403
0.0006193590016681038
0.0006193690794370847
0.0006193751217406316
0.000619357566305981
0.0006193655875290822
0.0006193708452194417
0.0006193559716821722
0.0006193917418090275
0.000619480619744236
0.0006194468940439729
0.0006194326192684349
0.0006194354357029546
0.0006194381463881095
0.0006194332050683647
0.0006194364518143519
0.0006194372437487
0.0006194337054170094
0.0006194361593708
0.0006194377882313114
0.0006194335137321549
0.0006194364701319479
0.0006194375619896543
0.0006194336209880022
0.0006194362949993226
0.0006194376800590302
0.0006194335541579605
0.0006194363816197071
0.0006194375982624745
0.0006194335745256079
0.0006194363106193892
0.0006194376205413787
0.0006194335350613043
0.0006194363153859165
0.0006194375672547935
0.0006194335275785792
0.000619436314440022
0.0009205449152904653
0.0009205345053913304
0.0009205418908034194
0.0009205447550108079
0.0009205344149320741
0.0009205417489908461
0.0009205445403101189
0.0009205341978193
0.0009205413250086155
0.0009205439164676443
0.0009205333388694047
0.0009205395800677337
0.0009205418414325595
0.0009205340033517828
0.0009205523273874268
0.0009205307935584882
0.0009205141164546742
0.0009205261247112135
0.0009205281080305673
0.0009205160012678374
0.0009205242031159155
0.000920529543702137
0.0009205148884956115
0.0009205237142385117
0.0009205271196608876
0.0009205130751167036
0.0009205193412176924
0.0009205223141655994
0.0009205125565889489
0.0009205483074522722
0.0009205897781394528
0.0009205526142314052
0.0009205339138297143
0.0009205409994661576
0.0009205457238660026
0.0009205342475802104
0.0009205421497819208
0.0009205444136057609
0.0009205348213592116
0.0009205418185225997
0.0009205451934026454
0.0009205345857732876
0.0009205422483969067
0.0009205448582999945
0.0009205347084063687
0.0009205419924667745
0.0009205450243434725
0.0009205346222292311
0.0009205421120248706
0.0009205449010983873
0.0009205346387895918
0.0009205420066923136
0.0009205449307875643
0.0009205345836506888
0.0009205420108266136
0.0009205448520591539
0.0009205345726548897
0.0009205420070981109
0.001265552686308678
0.001265539907990817
0.001265549549380964
0.001265552476858287
0.001265539785669538
0.001265549360418337
0.001265552206170532
0.001265539490472524
0.00126554883449141
0.001265551449326488
0.001265538427629674
0.001265546906762384
0.001265549251826707
0.001265539892919508
0.00126556180526995
0.00126555064832985
0.001265534594107051
0.001265547316817349
0.001265547914449699
0.001265536515902101
0.001265545066299704
0.001265549451814841
0.001265534970339075
0.00126554462842521
0.001265546624937882
0.001265532862864744
0.001265539629037584
0.001265541577778735
0.001265533532005877
0.001265572891227122
0.001265599849117927
0.001265560334714181
0.001265539947690555
0.001265548803533466
0.001265553798393516
0.001265539695219459
0.001265550150247839
0.001265552204121168
0.00126554043404575
0.001265549541653552
0.00126555307880659
0.001265540032820921
0.001265550025933433
0.001265552647062701
0.00126554021862334
0.001265549712311665
0.001265552847456271
0.001265540072847734
0.0012655498441373
0.001265552686345982
0.001265540104194511
0.00126554971289014
0.001265552718938742
0.001265540020230993
0.001265549710086789
0.00126555261666136
0.001265540004299082
0.001265549697354737
0.001652840412101228
0.001652827015656268
0.001652837580918565
0.001652840175246295
0.001652826866959643
0.001652837353314265
0.001652839859768629
0.001652826508823889
0.001652836751492579
0.001652839003758589
0.001652825300894291
0.001652834688848662
0.001652836743976092
0.001652827420204888
0.001652850562181259
0.001652840831189016
0.001652825192041402
0.001652838403102895
0.001652838251639547
0.001652826987717042
0.00165283591244284
0.00165283976958658
0.001652825154064567
0.001652835467293845
0.001652836660760068
0.001652822842712915
0.001652830077215644
0.001652831539406785
0.001652824426741142
0.001652866482841785
0.001652889356632341
0.001652848954050771
0.00165282787977198
0.001652837152223812
0.001652841867119911
0.001652826948820762
0.001652838494717563
0.001652840020534423
0.001652827745538657
0.001652837662872645
0.001652840935631155
0.001652827208910954
0.001652838177386832
0.001652840425680182
0.001652827430418335
0.001652837810019874
0.001652840642683722
0.001652827235095045
0.001652837946989245
0.001652840449558995
0.001652827272104207
0.001652837791401281
0.001652840479582746
0.00165282716310009
0.001652837780638759
0.001652840356672357
0.001652827139652955
0.001652837755688495
0.002087641328516136
0.002087628143314211
0.002087638768315163
0.002087641075237952
0.002087627973062551
0.002087638511455183
0.00208764072678679
0.002087627567672595
0.002087637859739977
0.002087639804468581
0.002087626269384254
0.002087635718189705
0.002087637503199974
0.002087628743683001
0.002087651838236021
0.002087642172876011
0.002087627064956985
0.002087640083233908
0.002087639603248083
0.002087628607108852
0.002087637469812638
0.002087641002503712
0.002087626620911704
0.002087637000732934
0.002087637740857048
0.002087624184663447
0.002087631412241736
0.002087632600763047
0.002087626334728791
0.002087669041983743
0.002087690879163419
0.002087651511057011
0.002087630089089618
0.002087638844451578
0.002087643169023907
0.002087628331518587
0.002087639992073554
0.002087641099853043
0.002087629076156346
0.002087638973264765
0.00208764198832117
0.002087628429333566
0.002087639484645592
0.002087641420304625
0.002087628658653279
0.00208763907035244
0.002087641633572795
0.002087628422319761
0.002087639202602525
0.002087641415128829
0.002087628456143685
0.00208763902515015
0.00208764143639078
0.002087628325504824
0.002087639004356384
0.002087641295976897
0.002087628292019505
0.002087638965157223
0.002578024831399684
0.002578012354513202
0.002578022351961258
0.002578024568875523
0.002578012166725884
0.00257802207521424
0.002578024198718932
0.002578011728592248
0.002578021397647626
0.002578023239591735
0.002578010385838351
0.002578019227060495
0.002578020887126419
0.002578012875438928
0.002578034983522634
0.002578025950688514
0.002578011562208061
0.002578023651999287
0.002578023219353274
0.002578012758432652
0.002578021029246836
0.002578024410158469
0.002578010727257704
0.00257802052511432
0.002578021116660419
0.002578008223146615
0.002578014886239817
0.002578015924742469
0.002578010439193053
0.002578051721156908
0.00257807370755406
0.00257803734955932
0.002578015708442712
0.00257802316624414
0.002578027124334648
0.002578012924602318
0.002578023908773327
0.002578024848485859
0.002578013499836556
0.002578022723902685
0.002578025633740512
0.002578012762344141
0.002578023191063713
0.002578025026739655
0.00257801296962359
0.00257802273736836
0.00257802521363572
0.002578012699365536
0.002578022852435075
0.002578024976300125
0.00257801272051594
0.002578022655832623
0.002578024981726891
0.002578012571042422
0.00257802262188115
0.002578024826560081
0.002578012523885953
0.002578022566698599
0.003129409085673345
0.003129397690524407
0.003129406467920045
0.003129408818906432
0.003129397488644243
0.003129406180038162
0.003129408437060225
0.003129397030827834
0.003129405497499959
0.0031294074659744
0.003129395679241739
0.003129403337258465
0.003129405036100912
0.003129397848407093
0.003129418168475886
0.003129410671471151
0.003129397203361162
0.003129407708403157
0.00312940764202145
0.003129397978537919
0.003129405156783521
0.003129408542066258
0.00312939599122785
0.003129404599860671
0.00312940532231073
0.003129393451013953
0.003129399020712305
0.003129399987047411
0.003129395134048992
0.003129433159009199
0.003129456071262208
0.003129424546539223
0.003129402841224347
0.003129408319439704
0.003129411936934208
0.003129398798635775
0.003129408408568691
0.003129409447803104
0.003129399072723913
0.003129407066176687
0.003129410044093321
0.003129398258476189
0.003129407438193577
0.003129409413769046
0.003129398409554441
0.003129406953012816
0.003129409549368649
0.003129398111369918
0.003129407034785745
0.003129409298211228
0.003129398108515028
0.003129406822028148
0.003129409279823091
0.003129397942266277
0.003129406770319375
0.003129409111798705
0.003129397876586681
0.003129406697930346
0.003740244014445927
0.003740234044215234
0.003740241114598466
0.003740243747554773
0.003740233830173637
0.003740240822448415
0.003740243362163982
0.003740233364137846
0.003740240150793473
0.00374024239768411
0.003740232029593612
0.003740238031518753
0.003740239872633781
0.003740233599607242
0.00374025141851175
0.003740246221947939
0.003740233944381064
0.00374024232291703
0.003740242830782252
0.003740234230494368
0.003740239902305331
0.003740243368133559
0.003740232362671664
0.003740239259701066
0.003740240308191071
0.003740229791348415
0.003740233821044882
0.003740234736486337
0.003740230366001194
0.003740263621577573
0.003740287930177396
0.003740262776971958
0.00374024140496765
0.003740244373706252
0.003740247576634139
0.003740235881813962
0.003740243517995249
0.003740244842586299
0.003740235704942102
0.003740242017738352
0.00374024515454446
0.003740234821380192
0.003740242232584039
0.00374024451187107
0.003740234876749125
0.003740241723049018
0.003740244568343879
0.003740234554653922
0.003740241752149304
0.003740244307022133
0.003740234514932393
0.003740241525138701
0.003740244255371273
0.003740234333195148
0.003740241449353736
0.003740244075696759
0.003740234243394076
0.003740241357501652
0.004400497518509114
0.004400489257102474
0.004400494346012042
0.004400497253346911
0.004400489032610175
0.004400494054195399
0.004400496870320943
0.004400488568314865
0.004400493403635812
0.004400495925790469
0.004400487269445032
0.004400491347471916
0.004400493313862568
0.004400488072820635
0.004400502824646947
0.004400500306091295
0.004400489620652239
0.004400495549362468
0.004400496655925652
0.004400489357230293
0.004400493303481058
0.004400496781208057
0.004400487660665376
0.004400492532565594
0.004400493941116065
0.004400485056429884
0.004400487292364827
0.004400488090958774
0.004400484101542208
0.004400511574067434
0.004400537213112082
0.004400519406716176
0.004400499189694781
0.004400499396003585
0.004400501985942064
0.004400492039624789
0.004400497317438244
0.004400498946395287
0.004400491262637531
0.004400495647932527
0.004400498880578801
0.004400490303439724
0.00440049563770182
0.00440049822572672
0.004400490221764005
0.004400495108320506
0.004400498176244694
0.004400489876178211
0.004400495062662354
0.004400497904113989
0.004400489785347813
0.004400494822465365
0.004400497810016159
0.004400489587688284
0.004400494714902418
0.004400497618158633
0.004400489468098717
0.004400494601544421
0.005092749200535178
0.005092742707568752
0.005092745903292928
0.005092748937783063
0.005092742473417206
0.005092745613532899
0.00509274856104121
0.005092742018203127
0.005092744989534699
0.005092747646993694
0.005092740771790553
0.005092743013701083
0.005092744973234737
0.005092740730446195
0.005092752314109266
0.005092752331226747
0.00509274354966609
0.005092747129204581
0.005092748671227812
0.005092742758168062
0.005092745057496921
0.005092748387055404
0.005092741224245986
0.005092744142362731
0.005092745793937981
0.005092738616272868
0.00509273912849861
0.005092739692244672
0.005092735948582638
0.005092757335081003
0.005092783614992414
0.005092773252147723
0.005092755388857327
0.005092752984522275
0.005092754803816163
0.005092746620319603
0.005092749571151025
0.005092751353049913
0.005092745155538562
0.005092747692573778
0.005092750840914555
0.005092744079923133
0.005092747408227806
0.005092750157169821
0.005092743834691599
0.00509274684928839
0.005092749981632462
0.005092743454112384
0.005092746713065022
0.005092749692515929
0.005092743302954387
0.005092746455195993
0.005092749548328917
0.005092743084908181
0.005092746309637478
0.005092749341779847
0.005092742931601483
0.005092746170846782
0.005795009453103667
0.00579500462553131
0.005795006279920692
0.005795009191673198
0.005795004382587794
0.005795005991558652
0.005795008823244588
0.00579500394155579
0.005795005395062529
0.005795007948753813
0.005795002764729804
0.005795003511134046
0.005795005267047001
0.005795001920941176
0.005795010531904802
0.005795012632221148
0.005795005821027668
0.005795007528012625
0.005795009228427688
0.005795004666265199
0.005795005628991203
0.005795008578256581
0.005795003257398386
0.005795004569542878
0.005795006239059567
0.005795000706896146
0.005794999794458298
0.005795000014177393
0.005794996425658128
0.005795012099326985
0.005795037734732462
0.0057950340619063
0.005795019851407472
0.005795015395533619
0.005795016377475642
0.005795009789328157
0.005795010749422037
0.005795012425726211
0.005795007622276112
0.005795008627990803
0.005795011431664013
0.005795006375095135
0.005795008040941968
0.005795010692309097
0.005795005951529249
0.00579500743601718
0.005795010378984483
0.005795005518480647
0.005795007198806401
0.005795010062099529
0.005795005300807024
0.005795006916398294
0.005795009862955514
0.005795005055616394
0.005795006728116761
0.00579500963761107
0.005795004866294425
0.005795006560332612
0.006484505131651401
0.006484501766243173
0.006484502354961064
0.006484504869898156
0.006484501514685764
0.00648450206490809
0.006484504510062229
0.00648450109090597
0.006484501491883081
0.006484503682819062
0.006484500003055781
0.006484499696066264
0.006484501077134447
0.006484498494175454
0.006484504560554791
0.006484508037231343
0.006484503122469563
0.006484503574375408
0.006484505152087696
0.00648450182362227
0.006484501842174101
0.006484504236847706
0.006484500503585192
0.006484500677380739
0.006484502121103378
0.006484498064415142
0.006484496156287316
0.006484496000509487
0.00648449251976821
0.006484503382267788
0.006484526769741606
0.006484528676202411
0.006484518693553739
0.006484513211416148
0.006484513427415966
0.006484508194971934
0.006484507655700601
0.006484508972586012
0.006484505397070902
0.0064845052763768
0.00648450752026839
0.006484503931929348
0.006484504406068037
0.006484506677507012
0.006484503324840493
0.006484503738821593
0.006484506221272428
0.00648450282104843
0.006484503397021355
0.006484505866214816
0.006484502533796083
0.006484503082670566
0.006484505608753962
0.006484502254284031
0.006484502849076919
0.006484505360608077
0.006484502027885501
0.006484502648740744
0.007141377915953262
0.007141375721850723
0.007141375654192447
0.007141377653145728
0.007141375461776652
0.007141375357824529
0.007141377301388079
0.007141375057337383
0.007141374798484988
0.007141376529979168
0.007141374061825748
0.00714137308888942
0.007141374084525367
0.007141372086969764
0.00714137613488356
0.007141380240955448
0.007141377010968374
0.007141376773481737
0.007141378076518343
0.007141375797799359
0.007141375196043557
0.007141377043505943
0.007141374551635165
0.007141373986365423
0.007141375108176192
0.007141372244058434
0.007141369796116574
0.007141369294061054
0.007141365918432428
0.007141373115265255
0.007141392892307859
0.007141399131190721
0.007141393028790256
0.007141387737555265
0.007141387400194567
0.007141383269788279
0.007141381720424236
0.007141382617912001
0.007141380017706764
0.007141379103043601
0.007141380777167783
0.007141378325461069
0.00714137800988826
0.007141379780157227
0.007141377537689567
0.007141377258568832
0.007141379196848794
0.007141376950013426
0.007141376829428181
0.007141378780383186
0.007141376591402379
0.007141376472907848
0.00714137846877484
0.007141376271969413
0.007141376197762055
0.007141378190131514
0.007141376008169949
0.007141375965565007
0.007751093443662396
0.00775109209574873
0.007751091651088767
0.007751093175019268
0.00775109182483676
0.007751091347649417
0.007751092827123608
0.007751091433889227
0.007751090808031573
0.007751092106826005
0.007751090522333798
0.007751089225762447
0.007751089862452347
0.007751088298927587
0.007751090862375153
0.007751094963083496
0.007751093098491387
0.007751092590218341
0.007751093622735772
0.007751092143213811
0.007751091222699622
0.007751092569719445
0.007751090978303859
0.0077510900107607
0.007751090800314833
0.007751088823580226
0.007751086219772967
0.007751085448380098
0.007751082212057561
0.007751086752702043
0.00775110242213786
0.007751111350769752
0.007751108520893294
0.007751104312373874
0.007751103700118223
0.007751100483256632
0.007751098398594404
0.007751098883711532
0.007751097003542986
0.007751095614196031
0.007751096752328243
0.007751095122482792
0.007751094318213788
0.00775109561098381
0.007751094169590502
0.00775109347917237
0.00775109491362499
0.007751093498643223
0.007751092963992423
0.007751094433889026
0.007751093070054124
0.007751092562087564
0.00775109406995252
0.007751092709038726
0.007751092245173356
0.00775109375927658
0.007751092409662562
0.007751091980464302
0.008305015807788765
0.008305015028393523
0.008305014420273225
0.008305015529124255
0.008305014744473482
0.008305014108446517
0.008305015181614439
0.008305014361698903
0.008305013590801803
0.008305014509003842
0.008305013525031199
0.008305012159952784
0.008305012495656754
0.008305011245465892
0.008305012796463887
0.008305016431150522
0.008305015587662948
0.008305015095438052
0.008305015895938744
0.008305014989054687
0.008305013981883691
0.00830501490611891
0.008305013923874385
0.008305012810933257
0.008305013298856235
0.008305011938190133
0.008305009452763525
0.008305008508121518
0.008305005458678068
0.008305008154551945
0.008305019882060196
0.008305029909942106
0.008305029602911235
0.008305026956830998
0.008305026317411692
0.008305023908161829
0.008305021677731367
0.008305021818514724
0.008305020436394236
0.008305018833961142
0.008305019513266364
0.008305018435287878
0.008305017381350864
0.008305018250101171
0.008305017345448518
0.008305016461433196
0.008305017456385478
0.008305016598471538
0.008305015868428158
0.008305016915348568
0.008305016104835531
0.008305015420903056
0.008305016502806708
0.00830501570288009
0.00830501506416122
0.008305016160068998
0.00830501537063906
0.008305014768502825
0.008799505122938298
0.008799504696124111
0.008799504064801362
0.008799504830771488
0.008799504397164405
0.008799503743311976
0.008799504480995939
0.008799504017864741
0.008799503248244902
0.008799503853337373
0.008799503246539712
0.008799501983346647
0.008799502086720135
0.008799501055699268
0.00879950195172075
0.008799504888651765
0.008799504741130334
0.008799504409983462
0.008799505031658703
0.008799504510202835
0.008799503572906191
0.00879950416414332
0.008799503566293413
0.008799502482870767
0.008799502724355797
0.00879950175897941
0.008799499563177989
0.008799498534541844
0.008799495718333467
0.008799497176336366
0.008799505511596974
0.008799515338635207
0.00879951699926757
0.008799515729915433
0.008799515348487139
0.008799513689820359
0.008799511607358389
0.008799511506380161
0.008799510445787591
0.008799508828735137
0.008799509149624017
0.008799508416091137
0.008799507280879032
0.008799507800128597
0.008799507227126604
0.008799506296659643
0.008799506931023507
0.008799506417506344
0.008799505638826805
0.00879950633553998
0.008799505867029354
0.008799505148654111
0.008799505879274661
0.00879950542690763
0.00879950475572768
0.008799505506208519
0.008799505065227796
0.008799504432210758
0.009234342916842116
0.009234342684837958
0.009234342113169498
0.00923434260785445
0.009234342369299825
0.009234341781393264
0.009234342254222186
0.009234341989707753
0.009234341309518852
0.009234341669272826
0.009234341277844003
0.009234340216518781
0.009234340154017905
0.009234339266734472
0.009234339740593719
0.00923434195184758
0.009234342231926275
0.009234342087289026
0.009234342583788692
0.009234342299946621
0.009234341528429195
0.009234341870744418
0.009234341494990939
0.009234340553886174
0.009234340609160617
0.009234339889171666
0.009234338039458567
0.009234337009935431
0.009234334469502814
0.009234335117002973
0.009234340761355618
0.009234349539916614
0.009234352527575537
0.009234352370989955
0.009234352403357815
0.009234351410009105
0.009234349674456863
0.00923434944290373
0.00923434859930064
0.00923434710512858
0.009234347170584776
0.009234346632130892
0.009234345528388428
0.009234345778431298
0.00923434538859224
0.009234344504421484
0.00923434485744638
0.009234344534857905
0.009234343797931055
0.00923434421797598
0.009234343938127599
0.009234343270792375
0.009234343724275831
0.009234343464727261
0.009234342846577865
0.009234343324105866
0.009234343077991777
0.009234342499769458
0.009611194275988326
0.009611194138972866
0.009611193655733706
0.009611193946836044
0.009611193805751274
0.009611193313809292
0.009611193588797598
0.00961119342671966
0.009611192863551972
0.009611193044869149
0.009611192775289911
0.009611191920399479
0.009611191761247495
0.009611190978731499
0.009611191180016994
0.009611192735808736
0.009611193251425742
0.009611193248822874
0.009611193667255111
0.00961119352480639
0.009611192940278526
0.009611193113904955
0.009611192865950564
0.009611192109817574
0.009611192044052417
0.009611191471345764
0.00961118995577916
0.009611188991261141
0.009611186762508902
0.009611186879671451
0.009611190541533334
0.009611197820065951
0.009611201490727587
0.009611202238499995
0.009611202724243841
0.009611202224433164
0.00961120097492073
0.009611200703367325