/*--------------------------------*- C++ -*----------------------------------*\
| =========                 |                                                 |
| \\      /  F ield         | OpenFOAM: The Open Source CFD Toolbox           |
|  \\    /   O peration     | Version:  v1812                                 |
|   \\  /    A nd           | Web:      www.OpenFOAM.com                      |
|    \\/     M anipulation  |                                                 |
\*---------------------------------------------------------------------------*/
FoamFile
{
    version     2.0;
    format      ascii;
    class       volScalarField;
    location    "10000";
    object      nuTilda_0;
}
// * * * * * * * * * * * * * * * * * * * * * * * * * * * * * * * * * * * * * //

dimensions      [0 2 -1 0 0 0 0];


internalField   nonuniform List<scalar> 
3770
(
0.0004976851377082419
0.0004978299849282801
0.0004977484203182904
0.0004976861894210752
0.0004978299798459455
0.0004977484223719268
0.000497686190332389
0.0004978299819469252
0.0004977484244748063
0.0004976861928767618
0.0004978299877780293
0.0004977483910445423
0.000497685866590253
0.0004978375415135839
0.0004977814275452726
0.0004950198845108934
0.0004948922104663033
0.0004949713702741943
0.0004950328877684596
0.0004948922579619354
0.0004949713539671464
0.0004950328944024343
0.000494892250337606
0.0004949713558811743
0.0004950328878126767
0.0004948922433308653
0.0004949713895542666
0.0004950332097132613
0.0004948836969972096
0.000494962331708358
0.0004977432153286584
0.0004977037647901556
0.0004978299775302773
0.0004977484275851048
0.0004976861831254422
0.0004978299819282708
0.0004977484168897896
0.0004976861916475556
0.0004978299758610975
0.0004977484227710019
0.0004976861876822556
0.0004978299791739012
0.0004977484197746087
0.0004976861889974767
0.0004978299776079735
0.0004977484213952643
0.0004976861875763495
0.0004978299784163912
0.0004977484207391027
0.0004976861884497855
0.0004978299781930806
0.0004977484211268085
0.0004976861881826545
0.0004978299787818897
0.0004977484209202839
0.0004976861886065521
0.0004978299809292621
0.0004977484188106944
0.0004604026109291974
0.0004622294354068938
0.0004613611523005798
0.0004604141023168084
0.0004622292797958343
0.0004613611952443334
0.000460414111130263
0.0004622293239502391
0.0004613612567951772
0.0004604141748181514
0.0004622294045762653
0.0004613601996080236
0.0004604161293962133
0.0004623811132664322
0.0004592534776765022
0.0004250116895978921
0.0004243037284413163
0.000424670013602134
0.0004251445527081543
0.0004243040855684659
0.0004246699997994633
0.000425144534916675
0.0004243041336925931
0.0004246699529198167
0.0004251445442715496
0.0004243040398262681
0.0004246704732726911
0.0004251442161724668
0.0004242252686882623
0.0004258600078053217
0.000461222709651014
0.0004609556025724631
0.0004622293732154883
0.0004613612658338809
0.000460413912575233
0.0004622293300943459
0.0004613610413952902
0.0004604141228901675
0.0004622291687324778
0.0004613612183515973
0.0004604140189213267
0.0004622292751406716
0.0004613611266441956
0.000460414074723925
0.0004622292179330677
0.0004613611786410368
0.00046041403284212
0.0004622292566853832
0.0004613611439211913
0.0004604140580255245
0.0004622292353914947
0.00046136117465778
0.0004604140601290829
0.0004622292422598681
0.0004613611535629563
0.0004604140642438701
0.000462229252175247
0.0004613599313509336
0.0006977726625073482
0.000699134015533479
0.0006984316365866907
0.0006977837020256968
0.0006991338598397931
0.0006984316728242691
0.0006977836787872952
0.000699133860750712
0.0006984316766286602
0.0006977836559836823
0.0006991337836754388
0.0006984303657813444
0.000697787140174892
0.0006992490686890906
0.000697051712744544
0.0006765882606483765
0.0006752583082341526
0.0006760822401420685
0.0006768185492156516
0.000675260632298186
0.0006760818368849112
0.000676818626446297
0.0006752606370650141
0.0006760817184838084
0.000676818490202825
0.0006752603307445322
0.000676082442755021
0.0006768107004563688
0.0006751278448120887
0.0006779703215845497
0.0006984210784402206
0.0006982061739189376
0.0006991341137330629
0.0006984315496546568
0.0006977836045513846
0.0006991338358575905
0.0006984315730709264
0.0006977836697938937
0.0006991337765175043
0.000698431692663053
0.0006977836311742824
0.0006991338565638537
0.0006984316461073938
0.0006977836715511624
0.0006991338087738687
0.0006984316647355519
0.000697783639307467
0.000699133847331685
0.0006984316423732212
0.000697783652801292
0.0006991338235035863
0.0006984316645546143
0.0006977836588281693
0.0006991338247981098
0.0006984316491992998
0.0006977836541814858
0.0006991338035669536
0.0006984301574679267
0.0009612466698601874
0.0009618691740993628
0.0009615325944395812
0.0009612527601075081
0.0009618690977305675
0.000961532607261013
0.0009612527224550042
0.0009618690659886157
0.0009615325302187785
0.0009612525911553615
0.000961868825029194
0.0009615314445405265
0.0009612535352292098
0.0009619210244255846
0.0009609966702637529
0.0009534487891144857
0.0009528712330927739
0.000953240812957699
0.0009535474542784545
0.0009528735017154836
0.0009532399758849961
0.0009535478009785764
0.0009528732391289477
0.0009532398317607658
0.000953547291284889
0.000952872558668164
0.0009532389467572144
0.0009535416788537388
0.0009528117022368353
0.0009539720996200588
0.0009615601612425027
0.0009614439492895329
0.0009618691611239151
0.0009615322764044481
0.0009612528167244476
0.0009618689906599751
0.0009615325898072512
0.0009612526758264152
0.0009618690834373495
0.0009615325952799047
0.0009612527528399401
0.0009618690988243694
0.0009615326198709835
0.0009612527407342949
0.0009618690906688777
0.0009615326106219358
0.0009612527435051779
0.0009618691036185978
0.0009615326109660846
0.0009612527414221912
0.0009618690990561802
0.0009615326148119496
0.0009612527462771209
0.0009618690964325222
0.0009615326141264595
0.0009612527365608206
0.0009618690652188662
0.0009615317911926515
0.001233323011921733
0.001233525293192714
0.001233412212740592
0.001233325298760365
0.001233525259949949
0.001233412186950724
0.001233325228655069
0.00123352518449325
0.001233412027219534
0.00123332497728794
0.001233524772999701
0.001233410986499497
0.001233324061355376
0.001233540975802301
0.001233266462369861
0.001231010844475228
0.001230815326592273
0.001230943040414902
0.00123104257208469
0.001230817358522115
0.001230941766791822
0.00123104322096825
0.001230816775281719
0.00123094161442817
0.001231042253157677
0.001230815766131916
0.001230939453952221
0.001231037721205289
0.00123079277246724
0.001231159778384433
0.001233462269104685
0.001233396229597824
0.001233525077591129
0.001233411647420141
0.001233325536035756
0.001233525069826402
0.001233412287977867
0.001233325145371453
0.001233525340694657
0.001233412164237955
0.001233325372901777
0.001233525273231971
0.001233412289198156
0.001233325295828594
0.001233525314378488
0.00123341222763006
0.0012333253386393
0.001233525295415365
0.001233412260207686
0.001233325312841264
0.001233525303961587
0.001233412237583841
0.001233325322011029
0.001233525290616053
0.001233412242017853
0.00123332530250012
0.001233525275756586
0.001233411969343713
0.001505640839066136
0.001505696018230008
0.001505664422479921
0.001505641518407835
0.001505695978974914
0.001505664364215725
0.001505641409385953
0.00150569586148398
0.001505664127137959
0.00150564104886335
0.001505695314881182
0.001505662980831913
0.00150563950621637
0.00150569962611487
0.001505633715916921
0.001504988197372939
0.001504919930286886
0.001504965422446395
0.00150499669296457
0.001504921916163142
0.001504963852477844
0.001504997587515901
0.001504921081997896
0.001504963676567213
0.001504996203551245
0.001504919847222191
0.001504960749939563
0.001504991902655017
0.001504911106874317
0.001505032139349597
0.001505711775364351
0.001505668295747046
0.00150569554072386
0.001505663696052217
0.001505641946544495
0.001505695752654509
0.001505664564098754
0.001505641297598509
0.001505696154886344
0.001505664348562709
0.001505641689982351
0.001505696021818464
0.001505664573264205
0.001505641539158949
0.001505696100089988
0.00150566445367403
0.001505641621238557
0.001505696056537246
0.00150566451596845
0.001505641567867672
0.001505696072290096
0.001505664468337723
0.001505641583261557
0.001505696046783718
0.00150566447484477
0.001505641548431547
0.001505696038289142
0.001505664412696822
0.00177485120276041
0.001774860797247186
0.001774855703354899
0.001774851313098594
0.001774860739120465
0.001774855612976913
0.001774851166673352
0.001774860584360329
0.001774855311289631
0.001774850717118753
0.00177485993498267
0.001774854045572095
0.001774849025763844
0.001774861230657324
0.00177485503431497
0.001774667089537375
0.001774637489015808
0.001774657863065013
0.001774668077246914
0.001774639355225168
0.001774656181002323
0.001774669141579348
0.001774638389117134
0.001774655929082867
0.001774667417150216
0.001774636995713998
0.001774652551090248
0.001774663219995473
0.001774634580575755
0.001774686743683191
0.001774898453788267
0.001774863330161831
0.001774860131129983
0.001774854922907541
0.001774851930100972
0.001774860523236752
0.001774855912845435
0.001774851053029114
0.001774861009212854
0.00177485562680185
0.001774851582778071
0.00177486082254701
0.001774855930602296
0.001774851363208323
0.00177486092728638
0.001774855758663765
0.001774851477656071
0.001774860861729389
0.001774855844498927
0.001774851398285676
0.00177486088238295
0.001774855773822196
0.00177485141970752
0.00177486084456955
0.001774855779689498
0.001774851369140592
0.001774860837991044
0.001774855769703121
0.002044218859935801
0.002044214650473132
0.002044218232654738
0.002044218777502637
0.002044214575457301
0.002044218113413478
0.00204421859768364
0.002044214386562942
0.002044217756315414
0.002044218074186245
0.002044213652350806
0.002044216386932521
0.002044216369756786
0.002044214580257732
0.002044225343079512
0.002044166916601893
0.002044149528129646
0.002044162098216995
0.002044165644714701
0.002044150993392073
0.002044160525089737
0.002044166868531054
0.002044150142011861
0.002044160063730609
0.00204416481731779
0.002044148616474606
0.002044156402438265
0.002044160774145593
0.002044147904000075
0.002044183005769916
0.002044258485852115
0.002044226271665864
0.002044214261527825
0.002044217494938926
0.002044219589777969
0.002044214407595921
0.002044218513583452
0.002044218510167365
0.0020442149421477
0.002044218175938437
0.002044219145318447
0.002044214708018871
0.00204421853098433
0.002044218864212195
0.00204421483072116
0.002044218318884869
0.002044219003527538
0.002044214747176154
0.002044218418524146
0.002044218899967073
0.002044214767667378
0.00204421832993939
0.002044218924910928
0.002044214718213927
0.002044218333350597
0.002044218859445874
0.002044214709743952
0.002044218330272504
0.002320981320668023
0.002320972923457473
0.002320979522037647
0.002320981172990795
0.002320972828175002
0.002320979374735772
0.002320980962897119
0.00232097259565487
0.002320978966280944
0.002320980374994713
0.002320971766410383
0.002320977506269247
0.002320978683598861
0.002320973009335594
0.002320988685226576
0.00232096686968952
0.002320953311475419
0.002320963999924504
0.002320965099808084
0.002320954736020688
0.002320962274289884
0.002320966303640919
0.002320953586851325
0.00232096192530447
0.00232096410476982
0.002320951944292042
0.002320958046534988
0.002320960185369562
0.002320952393477572
0.002320984393417542
0.002321018606684931
0.002320987558420256
0.002320973001734344
0.002320978949008603
0.002320982197844958
0.002320972739626287
0.002320980007100331
0.002320980966750084
0.002320973346945132
0.002320979518634986
0.00232098163981173
0.00232097301214239
0.002320979891764799
0.00232098130491365
0.002320973169688865
0.002320979649063467
0.002320981460341544
0.002320973048379526
0.002320979751955823
0.002320981335236263
0.002320973078036079
0.002320979648866352
0.002320981360876322
0.002320973010792107
0.00232097964621329
0.002320981281783229
0.002320972999950627
0.002320979636684103
0.002615766962346023
0.002615757393310473
0.002615765042568977
0.002615766786958974
0.002615757281144028
0.002615764870685649
0.002615766549375862
0.00261575701040963
0.002615764418477374
0.002615765904987274
0.002615756100450947
0.002615762879729492
0.00261576421096522
0.002615757725189369
0.002615774747949476
0.002615763138593843
0.00261575102964119
0.002615761236980505
0.002615761336599653
0.002615752353403229
0.002615759371300962
0.002615762483237221
0.002615750996697065
0.00261575903593166
0.002615760142881878
0.00261574925404053
0.002615754981699593
0.002615756290237564
0.002615750426481534
0.002615782468283122
0.002615804026955132
0.002615773487555911
0.002615758061952059
0.002615764723055605
0.002615768059051872
0.002615757333475069
0.002615765736004885
0.002615766671625121
0.002615757949148889
0.002615765105532989
0.002615767358648873
0.002615757534025236
0.002615765491700502
0.00261576697487175
0.002615757707571309
0.002615765215290352
0.002615767138296047
0.002615757556184207
0.002615765319113157
0.002615766992615498
0.002615757587205519
0.002615765200939927
0.002615767015928687
0.002615757504164153
0.00261576519215694
0.002615766923259182
0.002615757487552538
0.002615765173732749
0.002942258367488749
0.002942248604526564
0.00294225650935585
0.002942258177095281
0.002942248475090723
0.00294225631474136
0.002942257914140802
0.002942248169443228
0.002942255824871928
0.002942257218493393
0.002942247191791388
0.002942254216560778
0.002942255488932589
0.002942249056450511
0.002942266349395015
0.002942257702406363
0.002942246202223871
0.002942256096394114
0.002942255809737431
0.002942247361146532
0.002942254131674983
0.002942256865958348
0.002942245872165061
0.002942253780862247
0.002942254408214517
0.002942244035345122
0.002942249571018712
0.002942250537687281
0.002942245660402981
0.00294227791594441
0.002942295774652587
0.002942266077529857
0.002942250076140101
0.002942256567937314
0.002942259753314724
0.002942248739376121
0.002942257434691044
0.002942258195405656
0.00294224930901819
0.002942256664161306
0.002942258864239813
0.002942248814868268
0.002942257050760355
0.002942258436494441
0.002942248992644879
0.002942256736868007
0.00294225859708846
0.002942248810794001
0.002942256838768728
0.002942258432333913
0.002942248839634279
0.002942256702574034
0.00294225844923311
0.002942248740675152
0.002942256686049069
0.002942258343213517
0.002942248716642257
0.002942256655189861
0.003315551184049968
0.003315541612266845
0.003315549292638535
0.003315550980782298
0.003315541466201418
0.003315549077782945
0.003315550694505188
0.003315541128492363
0.003315548556707433
0.003315549953715883
0.003315540093030974
0.003315546883422611
0.003315548141935924
0.003315542004579076
0.003315559016987882
0.003315551645866901
0.003315540509932142
0.003315549867177355
0.003315549558950995
0.003315541438729593
0.003315547845028764
0.003315550478692482
0.003315539872662464
0.003315547458714027
0.003315547936783589
0.003315537940479916
0.003315543108711086
0.003315543933234177
0.003315539665673161
0.003315571522759026
0.003315588923352482
0.003315560862236186
0.003315544199972867
0.003315549921454752
0.00331555295126202
0.003315542047123806
0.003315550496243404
0.003315551195409152
0.003315542495939846
0.003315549579955026
0.003315551801649519
0.003315541922347805
0.003315549941879363
0.003315551333124144
0.003315542086177949
0.003315549590110841
0.003315551477563156
0.00331554187450275
0.00331554968108738
0.003315551293818971
0.003315541893844798
0.003315549526955215
0.003315551299416319
0.003315541778131476
0.00331554949950601
0.003315551179039746
0.003315541742915042
0.003315549455657017
0.003748779211357817
0.003748770100300413
0.003748777123155629
0.003748778997663597
0.003748769936199763
0.00374877689047139
0.003748778690870253
0.003748769570081131
0.003748776345748666
0.003748777911560792
0.003748768488502637
0.003748774616446924
0.003748775968660257
0.003748770206279357
0.003748786472571714
0.003748780380235489
0.003748769563304038
0.003748777989321502
0.00374877794863842
0.003748770198491581
0.003748775945234425
0.003748778670118486
0.003748768603287865
0.003748775503499925
0.003748776089864869
0.003748766568419041
0.003748771033671407
0.00374877181958196
0.003748767944875561
0.003748798370995329
0.003748816847817782
0.003748791614508852
0.003748774225149404
0.00374877860639802
0.003748781493812594
0.003748770981141993
0.003748778681239641
0.003748779500364447
0.003748771205926907
0.003748777602332706
0.003748779977967247
0.003748770548144842
0.003748777903591675
0.003748779473438091
0.003748770674303807
0.003748777511494565
0.003748779581784199
0.003748770430980636
0.003748777580863992
0.003748779380416354
0.003748770433144652
0.003748777406267441
0.00374877936709919
0.003748770299591791
0.003748777363382283
0.003748779231922826
0.00374877024864474
0.00374877730247752
0.004248730845375169
0.004248722515221572
0.004248728424479977
0.004248730621948374
0.004248722333561287
0.00424872817778126
0.004248730298660675
0.004248721944912067
0.00424872761891872
0.004248729490918138
0.004248720830232679
0.004248725847949121
0.004248727383466009
0.004248722118302952
0.004248736998079004
0.004248732667737575
0.004248722385297988
0.004248729396345223
0.00424872982912631
0.004248722642910562
0.0042487273730073
0.004248730278898569
0.00424872107697694
0.004248726840457424
0.004248727719308388
0.004248718927570035
0.004248722293495941
0.004248723066401392
0.004248719443018066
0.004248747205120319
0.00424876755154547
0.00424874654971093
0.004248728667108485
0.004248731149053392
0.004248733821166707
0.004248724044150802
0.00424873043739895
0.004248731535821916
0.004248723901500009
0.00424872917956374
0.004248731796914898
0.004248723157050117
0.004248729362519591
0.004248731259902324
0.004248723208910314
0.004248728933026268
0.004248731306964213
0.004248722934860161
0.004248728961404244
0.004248731088015567
0.004248722906408562
0.004248728767167591
0.004248731046774719
0.004248722754075809
0.004248728701925968
0.00424873089567325
0.00424872268090265
0.004248728622149586
0.004812233693982853
0.004812226506033427
0.004812230937072679
0.004812233463507006
0.004812226306815195
0.004812230679916185
0.004812233128934383
0.004812225903831103
0.004812230116482319
0.004812232305166609
0.00481222477474256
0.004812228328460733
0.004812230034952453
0.004812225442521994
0.004812238278661587
0.004812236129460835
0.004812226802210775
0.00481223196517531
0.004812232938059854
0.004812226594539256
0.004812230011825771
0.004812233047521677
0.004812225112015873
0.004812229346744296
0.004812230574485456
0.004812222845388823
0.0048122247850054
0.004812225490273774
0.004812222056301299
0.004812245913566568
0.004812268223352499
0.00481225276408155
0.004812235150429641
0.004812235331867844
0.004812237579957197
0.004812228918415896
0.004812233527409168
0.004812234935956295
0.00481222824855339
0.004812232069675216
0.004812234877912784
0.004812227406650471
0.004812232065338341
0.004812234309281775
0.004812227342333561
0.00481223159986794
0.004812234265178928
0.004812227035701672
0.004812231565306239
0.004812234028737877
0.004812226962479353
0.00481223135066611
0.004812233948347008
0.004812226789992286
0.004812231255142928
0.004812233780670372
0.004812226688057122
0.004812231152335311
0.005425287277499749
0.005425281435310824
0.005425284313657478
0.005425287041069868
0.005425281220484249
0.005425284049522847
0.005425286700833343
0.005425280812068617
0.005425283490848673
0.005425285876708815
0.00542527969146778
0.00542528171401547
0.005425283472113021
0.00542527962162929
0.005425290041412953
0.005425290103954747
0.00542528217736065
0.005425285401375548
0.005425286799788243
0.005425281487666625
0.005425283539945362
0.005425286544662649
0.005425280101343168
0.005425282722169621
0.005425284209683985
0.005425277753994693
0.005425278209043535
0.00542527872753106
0.00542527539632586
0.005425294594180304
0.00542531823469998
0.005425308944496353
0.005425292849164412
0.005425290686183837
0.005425292317576903
0.005425284947160033
0.005425287618530554
0.005425289213753353
0.005425283635217268
0.005425285923355127
0.005425288751839535
0.005425282660192597
0.005425285671906142
0.005425288138165775
0.005425282446219089
0.005425285164284231
0.005425287978867477
0.005425282097996361
0.005425285046708418
0.005425287719285342
0.005425281967557974
0.005425284809144401
0.005425287590951006
0.005425281770927954
0.005425284676237014
0.005425287404343948
0.005425281635034696
0.005425284547293004
0.006065752505639003
0.006065748050230505
0.00606574958018701
0.006065752264540755
0.00606574782150378
0.00606574931043459
0.006065751923322742
0.006065747415517639
0.006065748762259567
0.006065751114699583
0.006065746330240442
0.006065747024678595
0.006065748638757371
0.006065745517821734
0.006065753470701785
0.006065755451026861
0.006065749140586317
0.006065750716170703
0.006065752297277418
0.006065748094952837
0.006065748967150379
0.006065751697851013
0.006065746788495877
0.00606574799494863
0.00606574953737198
0.006065744433293469
0.006065743585485271
0.006065743801039314
0.006065740522330295
0.006065754946330066
0.006065778601843859
0.0060657752443249
0.006065762109615826
0.006065757995618809
0.00606575889572102
0.006065752807945092
0.006065753709839868
0.006065755250145905
0.00606575081356106
0.006065751746872145
0.006065754330168532
0.006065749655226616
0.006065751209479119
0.006065753650309883
0.006065749270733015
0.006065750646266006
0.006065753358891061
0.006065748865361468
0.006065750432231437
0.006065753067898136
0.00606574866984918
0.006065750166155347
0.006065752884643932
0.006065748443086623
0.006065749990816278
0.006065752676190246
0.006065748270068022
0.006065749831690112
0.006708462326837985
0.006708459163231899
0.006708459718955398
0.006708462080660676
0.006708458922455405
0.006708459442956316
0.006708461741375019
0.006708458525014073
0.006708458906234062
0.006708460962474337
0.006708457502847169
0.006708457218506995
0.006708458510389286
0.006708456053410632
0.006708461761934535
0.006708465064651018
0.006708460425878884
0.006708460849931274
0.00670846234465395
0.006708459222866448
0.006708459226376395
0.00670846148485882
0.006708457976531124
0.006708458136008769
0.006708459494569949
0.006708455681894817
0.006708453883390964
0.006708453749877759
0.006708450504545122
0.006708460682463598
0.006708482668678982
0.006708484487193634
0.00670847508693476
0.006708469929043921
0.006708470125937295
0.006708465200413028
0.006708464706668704
0.006708465939383085
0.006708462574711817
0.006708462465121231
0.006708464571074188
0.006708461190814538
0.006708461650933673
0.006708463781129132
0.00670846062557696
0.006708461019129757
0.006708463349879737
0.006708460146999463
0.006708460702091101
0.006708463017602537
0.006708459881443661
0.006708460401659469
0.006708462775820483
0.006708459618299747
0.006708460180850299
0.006708462542213674
0.006708459406783869
0.006708459988653657
0.007330417565730856
0.007330415476799973
0.007330415413980345
0.007330417315516533
0.007330415225000317
0.007330415128650833
0.007330416979647419
0.007330414840528752
0.007330414597306979
0.007330416244098303
0.007330413892880793
0.007330412969376711
0.007330413911023267
0.007330411984010364
0.007330415848576499
0.00733041978478795
0.007330416694631141
0.007330416465870143
0.007330417717030536
0.007330415553595592
0.007330414968686435
0.007330416733529313
0.00733041436192648
0.007330413820305632
0.007330414889695335
0.007330412162367289
0.007330409827034547
0.007330409361327093
0.007330406166803464
0.007330412994092672
0.007330431831106887
0.007330437794337412
0.007330431972492371
0.007330426927944831
0.007330426600151838
0.007330422661071596
0.007330421195911976
0.007330422047025833
0.00733041956722299
0.007330418698583109
0.007330420290017536
0.007330417949431742
0.007330417660801556
0.007330419343356105
0.007330417203813068
0.007330416941136513
0.007330418784828494
0.007330416639640168
0.007330416535938382
0.007330418390329547
0.007330416301991948
0.007330416192248289
0.007330418092876223
0.007330415997335526
0.007330415929466467
0.007330417827375324
0.007330415746959492
0.007330415704824303
0.00791413896566385
0.007914137671008443
0.007914137244526149
0.007914138707418644
0.007914137406980361
0.007914136950240866
0.007914138372362618
0.00791413703176104
0.007914136432559206
0.007914137679422548
0.007914136155861604
0.00791413491150653
0.007914135517369431
0.00791413399495397
0.007914136467393957
0.007914140427663224
0.007914138626164352
0.007914138134702989
0.007914139136002704
0.007914137719890826
0.007914136825636917
0.007914138124231541
0.007914136596209679
0.007914135663585512
0.007914136423051076
0.007914134523218352
0.007914132017544252
0.007914131287110621
0.007914128191713924
0.007914132535770705
0.007914147599168453
0.007914156198204849
0.007914153471926998
0.007914149421428323
0.007914148826741397
0.00791414573059988
0.007914143734611637
0.00791414419836192
0.007914142388255567
0.007914141054188405
0.007914142145678498
0.007914140574850407
0.007914139811074387
0.007914141051329435
0.007914139662618131
0.007914139001075871
0.007914140378044722
0.007914139013935523
0.007914138508607811
0.007914139918984306
0.00791413860503452
0.007914138118864607
0.007914139568194768
0.007914138257662049
0.007914137813851188
0.007914139269536597
0.007914137970446513
0.007914137556479883
0.008448611449029355
0.008448610696191279
0.008448610108352288
0.00844861117942592
0.008448610418298554
0.008448609804366833
0.008448610842660353
0.008448610048300983
0.00844860930414244
0.008448610191571834
0.008448609239128839
0.008448607919462683
0.008448608238543799
0.008448607013676248
0.008448608523896369
0.008448612052348092
0.008448611230668611
0.008448610750834489
0.008448611532519952
0.008448610660337957
0.00844860967850111
0.008448610575202646
0.008448609626486192
0.008448608547754552
0.008448609020064553
0.008448607703605985
0.008448605296890262
0.008448604392543356
0.008448601452959425
0.00844860404610444
0.008448615393759051
0.008448625108264189
0.008448624808888614
0.008448622244687747
0.008448621620335812
0.008448619286385498
0.008448617134131704
0.008448617268809586
0.008448615929099929
0.008448614379136323
0.00844861503423098
0.00844861398832579
0.008448612975761207
0.008448613814758386
0.008448612936762523
0.00844861208265222
0.008448613043785346
0.008448612210836214
0.008448611510997186
0.008448612522466035
0.008448611735729042
0.008448611075240225
0.00844861212198853
0.008448611346408627
0.008448610729992805
0.008448611790447414
0.008448611025154273
0.008448610441382868
0.008928416607148907
0.008928416193456853
0.008928415579940811
0.008928416323049653
0.008928415900107707
0.008928415265529385
0.008928415982615954
0.008928415531619809
0.008928414784681496
0.008928415372288336
0.008928414781993989
0.008928413554491591
0.008928413649983992
0.008928412636168163
0.008928413515337026
0.008928416377804557
0.008928416231480333
0.008928415906335288
0.008928416516595306
0.008928416014191082
0.008928415097342036
0.008928415673711004
0.008928415093988154
0.008928414039352465
0.008928414274054303
0.008928413335558112
0.008928411199715493
0.008928410207857977
0.008928407478057362
0.008928408884422825
0.008928416987782227
0.008928426549792765
0.008928428163605583
0.008928426926415193
0.008928426550693489
0.008928424936164945
0.008928422916033575
0.008928422816836045
0.008928421783816354
0.008928420211761476
0.00892842052193037
0.008928419806720286
0.008928418708614296
0.008928419212362072
0.008928418653122104
0.008928417749252569
0.008928418364709553
0.008928417863392999
0.008928417111310554
0.008928417787691448
0.008928417330182641
0.008928416632537456
0.008928417342809773
0.008928416901972701
0.008928416250641552
0.008928416980218089
0.008928416550400463
0.008928415934038375
0.009352060328096145
0.009352060103062087
0.009352059545364716
0.009352060026606247
0.009352059792792739
0.009352059220160995
0.009352059681277492
0.009352059422602749
0.009352058760042224
0.009352059110661609
0.009352058728482581
0.009352057693220639
0.009352057627501294
0.009352056753772238
0.009352057224001646
0.009352059384572096
0.009352059656897976
0.009352059512576179
0.009352060001416362
0.009352059728541395
0.009352058971363946
0.009352059306263606
0.009352058941054214
0.009352058022010192
0.009352058075771873
0.009352057373276356
0.009352055568261842
0.009352054570725186
0.009352052097736518
0.009352052721787072
0.009352058227684852
0.00935206679656342
0.009352069712506047
0.009352069557525544
0.009352069585263858
0.00935206861462104
0.009352066924815775
0.009352066698547795
0.009352065873873078
0.009352064415806768
0.009352064478148495
0.009352063951372435
0.009352062879025678
0.00935206312224098
0.009352062740036143
0.009352061877871833
0.00935206222118325
0.009352061904896279
0.009352061189837321
0.009352061599161512
0.009352061324398959
0.009352060673798221
0.009352061116114033
0.00935206086222117
0.00935206026015107
0.009352060725832178
0.009352060484790313
0.009352059920022221
0.009720311505178965
0.009720311372308514
0.009720310899517661
0.009720311183121834
0.009720311044312964
0.009720310563827817
0.009720310832664183
0.009720310673654699
0.00972031012359359
0.009720310300761269
0.009720310036765913
0.009720309200430441
0.009720309040714154
0.009720308269428943
0.009720308472748723
0.009720309995911565
0.009720310500500474
0.009720310495158339
0.009720310908075265
0.009720310772138878
0.009720310197011193
0.00972031036734545
0.009720310125959086
0.009720309385791463
0.009720309321164659
0.009720308760874676
0.009720307278467963
0.009720306340700381
0.009720304164691423
0.009720304274019728
0.009720307855002977
0.009720314976690398
0.009720318568849654
0.009720319298645086
0.009720319770464902
0.009720319280400196
0.009720318060960147
0.009720317795267504
0.009720317138218722
0.009720315882291877
0.009720315786278515
0.009720315347140209
0.00972031437536772
0.009720314430330359
0.009720314133999482
0.009720313356625033
0.009720313500216354
0.009720313274908143
0.009720312637836513
0.009720312846474184