/*--------------------------------*- C++ -*----------------------------------*\
| =========                 |                                                 |
| \\      /  F ield         | OpenFOAM: The Open Source CFD Toolbox           |
|  \\    /   O peration     | Version:  v1812                                 |
|   \\  /    A nd           | Web:      www.OpenFOAM.com                      |
|    \\/     M anipulation  |                                                 |
\*---------------------------------------------------------------------------*/
FoamFile
{
    version     2.0;
    format      ascii;
    class       volScalarField;
    location    "10000";
    object      nuTilda;
}
// * * * * * * * * * * * * * * * * * * * * * * * * * * * * * * * * * * * * * //

dimensions      [0 2 -1 0 0 0 0];


internalField   nonuniform List<scalar> 
3770
(
0.0004950339358275307
0.0004948922486503385
0.0004949713595814887
0.0004950328947742137
0.0004948922539434977
0.0004949713578430478
0.0004950328942898341
0.0004948922526279888
0.0004949713564028534
0.0004950328926547375
0.0004948922476874758
0.0004949713933355131
0.0004950332437760951
0.0004948842510030768
0.0004949487086606407
0.0004976995495685673
0.0004978300294839736
0.0004977484062758174
0.0004976861998554909
0.0004978299743735878
0.0004977484287392061
0.0004976861899357212
0.0004978299861092886
0.0004977484255578702
0.0004976862003169202
0.000497829994287882
0.0004977483994612277
0.0004976859091882612
0.0004978380813374556
0.0004977689545179845
0.0004949994132986455
0.0004950151241318699
0.0004948922515976386
0.0004949713541665332
0.0004950328980007952
0.0004948922526073141
0.0004949713608998984
0.0004950328933792674
0.0004948922562006504
0.0004949713573772179
0.0004950328953452779
0.0004948922544157079
0.0004949713591955081
0.0004950328949990853
0.0004948922551586669
0.0004949713583169462
0.0004950328959211678
0.0004948922548847581
0.0004949713586197419
0.0004950328953995279
0.000494892254904151
0.0004949713584968921
0.0004950328955403817
0.000494892254556823
0.0004949713586750953
0.00049503289532125
0.0004948922522022211
0.0004949713625605392
0.0004251501377415886
0.000424304068481314
0.0004246699925907096
0.0004251445612742922
0.0004243041185202826
0.0004246699922658414
0.0004251445748544756
0.0004243041285071529
0.0004246699923377183
0.0004251445723252158
0.000424304102510394
0.0004246705463713095
0.000425144894505851
0.0004242281843954765
0.0004257047622481146
0.0004606184490432608
0.0004622305841191212
0.0004613608558133348
0.0004604142971818869
0.000462229180873493
0.0004613613447849839
0.0004604140987678185
0.0004622294317517068
0.0004613612680646006
0.000460414327900651
0.0004622294871330469
0.0004613603074040998
0.0004604173123548381
0.0004623851079847056
0.0004589597250338159
0.000425149105908033
0.0004251112413531332
0.000424304021642745
0.0004246699670558836
0.0004251445078903771
0.0004243041220769395
0.0004246699384451011
0.0004251445638365543
0.0004243040839936022
0.0004246699789392154
0.0004251445348562509
0.000424304113087756
0.0004246699599884386
0.0004251445605780078
0.000424304099664792
0.0004246699763986364
0.0004251445527892518
0.0004243041111168432
0.0004246699712191173
0.0004251445590273769
0.0004243041064826862
0.0004246699751885792
0.000425144551485569
0.000424304112715294
0.0004246699775707343
0.0004251445596045587
0.0004243040874813592
0.0004246704004227184
0.0006768315566506112
0.0006752604473359907
0.0006760818950804279
0.0006768186650132945
0.000675260658442347
0.0006760818796543551
0.0006768187034244274
0.0006752606689982848
0.0006760818410849826
0.0006768186538689825
0.0006752605825909544
0.0006760829089664563
0.0006768127499785772
0.000675129123950873
0.0006776513687421029
0.0006979885875781385
0.0006991346292445559
0.0006984317104837423
0.000697783660775551
0.0006991338789871859
0.0006984317094077652
0.0006977836939090843
0.0006991338813783629
0.0006984315952234688
0.0006977835986126095
0.0006991335522965939
0.0006984298637592009
0.0006977873371815101
0.0006992493531367618
0.0006967991446971727
0.0006764559844239914
0.0006765223905550783
0.0006752601004679645
0.0006760817631845558
0.0006768186333344737
0.0006752606333769789
0.000676081796572993
0.0006768186658387772
0.0006752606139743794
0.0006760818244830857
0.0006768186499390545
0.0006752606390897789
0.0006760818149761737
0.0006768186782597754
0.0006752606374159794
0.0006760818417029575
0.0006768186764217584
0.0006752606437241939
0.0006760818485704131
0.0006768186853231852
0.0006752606452914225
0.0006760818383513687
0.0006768186620308717
0.0006752606633588308
0.0006760818550189582
0.0006768186872601073
0.0006752607011270967
0.0006760837863778373
0.0009535544761739291
0.0009528733833628727
0.0009532401843194079
0.0009535478598102108
0.000952873428167084
0.0009532401709618452
0.0009535478471655947
0.0009528734023061323
0.0009532400851729871
0.000953547704689629
0.0009528731546892665
0.0009532401414851738
0.0009535442076060293
0.0009528144615651894
0.0009538299284621421
0.0009613517190722399
0.0009618685925973609
0.0009615331281516848
0.0009612524427168764
0.0009618692564563774
0.0009615324806903278
0.0009612527659236809
0.0009618689705601935
0.0009615323445024536
0.0009612522633316986
0.0009618682805791157
0.0009615302753849997
0.0009612521521339652
0.0009619191073986821
0.0009608797097560971
0.0009534148512012008
0.0009534293108505908
0.0009528729897610639
0.0009532398679537561
0.0009535479299765296
0.0009528733178464018
0.0009532401547091252
0.0009535477891334016
0.0009528734248390239
0.0009532401349532913
0.0009535478618735529
0.0009528734176268784
0.0009532401750278423
0.0009535478554370291
0.0009528734306793722
0.0009532401666599671
0.0009535478686559186
0.0009528734274858673
0.0009532401816200583
0.0009535478652259823
0.000952873428304833
0.0009532401698260404
0.000953547860877083
0.0009528734311559227
0.0009532401690301246
0.0009535478604538282
0.0009528734566232172
0.0009532411257738415
0.001231045832850695
0.001230817214651062
0.001230942201853122
0.001231043290418502
0.001230817172171015
0.001230942171276202
0.001231043226696114
0.001230817099476684
0.00123094201196371
0.001231042970793795
0.001230816683618509
0.001230941358824239
0.001231040777012061
0.001230796326175008
0.00123111136970928
0.00123336238264196
0.001233523762041381
0.001233413099720434
0.001233324681541879
0.001233525543586932
0.001233411874428453
0.001233325322020836
0.001233524949932227
0.001233411724465696
0.001233324356243932
0.001233523943483794
0.001233409171439787
0.001233321467018176
0.001233538123783949
0.001233231682678586
0.001231027680498384
0.001231014947541191
0.001230816849717598
0.001230941649964306
0.00123104353000191
0.0012308169815652
0.0012309422705832
0.001231043137736993
0.001230817255516215
0.001230942143332775
0.001231043365914895
0.001230817182101372
0.001230942271874283
0.001231043290132371
0.00123081723091283
0.001230942211947719
0.001231043336491351
0.001230817207896387
0.001230942247423435
0.001231043309661486
0.001230817217369725
0.001230942222397504
0.001231043317583408
0.001230817202881449
0.001230942220491815
0.001231043293861497
0.001230817206448614
0.001230942539166788
0.001504998593560133
0.001504921740207043
0.001504964509319129
0.001504997667350763
0.001504921671947787
0.001504964448078362
0.001504997558092655
0.001504921555397794
0.001504964214582115
0.001504997197448041
0.00150492100262809
0.001504963192080829
0.001504995338951192
0.001504914231663519
0.001505013761021341
0.001505655631007319
0.001505694299481033
0.001505665422094573
0.00150564065663497
0.001505696319546595
0.001505663876620489
0.001505641552615342
0.001505695503694716
0.001505663684438102
0.001505640162817437
0.001505694271302189
0.001505660643987084
0.001505636306354094
0.001505696802187234
0.001505628189992331
0.001505019009465029
0.00150499575205476
0.00150492119933409
0.001504963791342493
0.00150499809426032
0.001504921439788535
0.001504964666401835
0.001504997448830493
0.001504921857393285
0.001504964435247764
0.001504997836786783
0.001504921713097587
0.001504964658459636
0.00150499768660763
0.001504921798757858
0.001504964541414817
0.001504997769471556
0.001504921750931148
0.001504964602476293
0.001504997716123056
0.00150492176874181
0.001504964556405069
0.001504997732698611
0.001504921740212206
0.001504964556797613
0.00150499769308407
0.001504921734652605
0.001504964640057916
0.001774669619891217
0.001774639204508513
0.001774657015592116
0.001774669236438526
0.001774639129365112
0.001774656924370054
0.001774669089234945
0.001774638975995527
0.001774656624499383
0.001774668641220328
0.001774638324987183
0.0017746553511402
0.001774666865390994
0.001774636314712549
0.0017746757794614
0.001774857196588155
0.001774859181134047
0.001774856673585345
0.001774850280517959
0.001774861088744794
0.001774854997254211
0.001774851348976305
0.001774860127381395
0.001774854744937003
0.001774849619961453
0.001774858735962389
0.001774851336839762
0.001774845563584648
0.001774858883970308
0.001774859495244748
0.001774700690874381
0.001774672654046431
0.001774638004249252
0.001774656242920682
0.001774669852854114
0.001774638916898156
0.001774657221037969
0.001774668979450615
0.001774639401443078
0.001774656941741809
0.001774669504952606
0.001774639216763939
0.001774657238844214
0.001774669285524154
0.001774639319529883
0.00177465707283199
0.001774669400310782
0.001774639256073364
0.001774657153389924
0.001774669320950233
0.001774639274097008
0.001774657087983751
0.001774669342948849
0.001774639234869142
0.001774657090182882
0.001774669289024863
0.001774639226276872
0.001774657106972779
0.002044167205550397
0.002044151030520963
0.002044161523725846
0.002044166985562748
0.002044150953344837
0.002044161405441397
0.002044166805314267
0.002044150782702543
0.002044161052788247
0.002044166283240213
0.002044150086000786
0.002044159436032972
0.002044164485964824
0.002044150031468408
0.002044172974330928
0.002044221503078508
0.002044213143864473
0.002044219081057253
0.002044217636818591
0.002044214913094928
0.00204421740803866
0.002044218806798553
0.002044213845978343
0.002044217083223242
0.002044216806419173
0.002044212334784341
0.002044213409938061
0.00204421280250388
0.002044212358247524
0.002044233863137883
0.00204420148542726
0.002044172080086785
0.002044150358250613
0.002044160760888833
0.002044167797585702
0.00204415085851953
0.002044161635571626
0.002044166668266001
0.002044151251200623
0.002044161456742168
0.002044167352538856
0.002044151114126968
0.002044161825863121
0.002044167071945369
0.002044151184115142
0.002044161607289091
0.002044167210934862
0.002044151130512312
0.002044161708478197
0.002044167108024806
0.002044151133497043
0.00204416162064982
0.002044167132820953
0.002044151092602153
0.002044161624205489
0.00204416706594647
0.002044151082151476
0.00204416162100164
0.002320966633774197
0.002320954654208671
0.002320963334447642
0.00232096645111028
0.002320954559859083
0.002320963188845072
0.002320966241287192
0.002320954335679619
0.002320962781524922
0.002320965655275233
0.002320953517709497
0.002320961237875545
0.002320963932530652
0.002320954509414512
0.002320973310928792
0.00232098261019692
0.002320971663514433
0.002320980415274597
0.002320980010837051
0.002320973244651871
0.002320978642024522
0.002320981188034808
0.002320971977842633
0.002320978315065925
0.002320979003354188
0.002320970353592233
0.002320974437798619
0.002320975093904516
0.002320970967995626
0.002320999496838112
0.002321002263053537
0.002320972151168022
0.00232095462023217
0.002320962748312013
0.002320967476658235
0.002320954514774018
0.002320963774697178
0.002320966232272601
0.002320955041257526
0.002320963324917755
0.002320966918227453
0.002320954762159655
0.002320963704048722
0.002320966583290682
0.002320954887991532
0.002320963459969029
0.002320966738771467
0.002320954786133111
0.002320963561367527
0.002320966613968875
0.002320954803164848
0.002320963461298828
0.002320966638764812
0.002320954740912223
0.002320963459776865
0.002320966559090102
0.002320954726483494
0.002320963449426388
0.002615762850653136
0.002615752217341733
0.002615760490200137
0.002615762669501434
0.00261575210588927
0.002615760319818909
0.002615762432609749
0.002615751838098332
0.002615759866787883
0.002615761789541452
0.002615750931372633
0.002615758301817511
0.002615760084062421
0.002615752491058919
0.002615770315865384
0.002615767736735814
0.002615756359202023
0.002615765994165638
0.002615765644444281
0.002615757739091406
0.002615764112881958
0.002615766780414155
0.002615756335482957
0.002615763778767082
0.002615764445046329
0.002615754602106345
0.002615759725874969
0.002615760594806843
0.002615755814159903
0.002615786985538154
0.002615799376613376
0.002615769162797532
0.002615752846454396
0.002615760164613601
0.002615763942179945
0.002615752177649029
0.002615761170558381
0.002615762552027445
0.002615752758594632
0.002615760550364184
0.002615763241520621
0.002615752367783428
0.002615760938156749
0.002615762858310001
0.002615752526679577
0.002615760662024998
0.002615763021256426
0.002615752384750382
0.002615760764132401
0.002615762876504674
0.002615752409061672
0.002615760648407601
0.002615762898273533
0.002615752328261299
0.00261576064107462
0.002615762806098381
0.002615752309499474
0.002615760621935737
0.002942257292291337
0.002942247216802814
0.002942255303177359
0.002942257101235413
0.002942247089644273
0.002942255110751532
0.002942256839274412
0.002942246784637865
0.00294225461911051
0.002942256145566251
0.002942245806784864
0.002942253002338584
0.002942254409347614
0.002942247669142792
0.002942265149033758
0.002942259061851239
0.00294224779034904
0.00294225751623489
0.002942257089546954
0.002942248953937383
0.002942255544993675
0.002942258141235808
0.002942247452135061
0.002942255189581499
0.002942255686021695
0.002942245619147644
0.002942250981745713
0.002942251814466205
0.002942247233324917
0.002942279316513201
0.00294229453135609
0.00294226492481744
0.002942248676771742
0.002942255359434497
0.002942258678654514
0.002942247364545954
0.002942256221578872
0.002942257119971728
0.002942247917635924
0.002942255457131414
0.002942257789337419
0.002942247436620377
0.002942255840978071
0.002942257361524489
0.002942247604904007
0.002942255530608054
0.002942257522158409
0.0029422474302856
0.002942255628202193
0.002942257357855313
0.002942247452824893
0.002942255496784691
0.002942257373095497
0.00294224735493835
0.002942255481878254
0.002942257267584677
0.002942247328687153
0.002942255453522505
0.003315550976911995
0.003315541318192265
0.003315549050353678
0.003315550774931766
0.003315541174156946
0.003315548837814753
0.003315550489922413
0.003315540836046237
0.003315548314139934
0.003315549750759939
0.003315539800154342
0.003315546639227004
0.003315547934358975
0.003315541726341834
0.003315558806195286
0.003315552108223092
0.003315541034851123
0.003315550338900066
0.003315549988171746
0.003315541953474776
0.003315548315274149
0.003315550905870126
0.003315540386309036
0.003315547924719468
0.003315548366464022
0.00331553845523082
0.003315543575572039
0.003315544360938554
0.003315540153965499
0.00331557198666373
0.003315588651041988
0.003315560617718343
0.003315543904754386
0.003315549677957858
0.003315552746494437
0.003315541761178389
0.003315550249335373
0.003315550991305852
0.003315542201466178
0.003315549336964811
0.003315551596643126
0.003315541635768448
0.003315549696247829
0.003315551128652997
0.003315541793017231
0.003315549347505455
0.003315551272627646
0.003315541586701472
0.003315549434778957
0.00331555109001329
0.003315541600994993
0.003315549284789701
0.003315551093257258
0.003315541485979335
0.003315549259443111
0.003315550974031359
0.003315541448833402
0.003315549217735744
0.00374877925596433
0.00374877012146592
0.003748777155140719
0.003748779042318265
0.003748769960967717
0.003748776925613238
0.003748778736961794
0.00374876959401055
0.0037487763779837
0.0037487779599501
0.003748768511013555
0.003748774647331145
0.003748776012171774
0.003748770258067275
0.003748786537356373
0.003748780576259072
0.003748769804050939
0.003748778211817502
0.003748778152462459
0.003748770417813769
0.003748776168351065
0.003748778873036319
0.003748768827853672
0.003748775720151714
0.003748776294952052
0.003748766793483837
0.003748771252290368
0.003748772020338447
0.00374876812737056
0.003748798597281866
0.00374881688620481
0.003748791629128093
0.003748774247072138
0.003748778637931213
0.003748781540229017
0.003748771012297078
0.003748778707604723
0.003748779546518228
0.003748771229215945
0.003748777634296016
0.003748780024098359
0.003748770579848306
0.00374877793062087
0.003748779519094425
0.003748770698296056
0.003748777543759466
0.003748779627829239
0.003748770461700329
0.003748777607333336
0.003748779426772413
0.00374877045720778
0.003748777439007054
0.003748779411345662
0.003748770324251843
0.003748777398320482
0.0037487792770672
0.003748770270825339
0.003748777341792192
0.004248730965644373
0.004248722630814046
0.004248728540758596
0.004248730742688288
0.004248722452896778
0.00424872829746526
0.004248730420976504
0.004248722063043988
0.004248727735152416
0.004248729615386697
0.004248720947282907
0.004248725963610125
0.004248727503713692
0.004248722268271234
0.004248737167234747
0.004248732818957407
0.00424872256405522
0.004248729564410419
0.004248729985934594
0.004248722796572428
0.004248727541174199
0.004248730434853019
0.004248721237051903
0.00424872700241424
0.004248727877904404
0.004248719087880555
0.004248722456912065
0.004248723219303941
0.004248719555590761
0.004248747364594544
0.004248767672848223
0.004248746640481227
0.00424872878349033
0.004248731264713837
0.004248733943687528
0.004248724169287954
0.004248730548180579
0.00424873165847319
0.004248724019587654
0.004248729295575713
0.00424873191909954
0.004248723283192595
0.004248729473941364
0.004248731381863085
0.004248723327469056
0.004248729049339963
0.004248731429116324
0.004248723059979921
0.004248729072207628
0.004248731210878967
0.004248723025073501
0.004248728884073498
0.004248731167013242
0.004248722873322599
0.004248728821409865
0.004248731017163286
0.004248722797585147
0.004248728745713338
0.004812233846050991
0.004812226656670879
0.004812231084363281
0.004812233615237432
0.004812226462309419
0.004812230831249812
0.004812233282251758
0.004812226058010525
0.004812230264442976
0.004812232460791084
0.004812224927427149
0.004812228474844152
0.004812230187197214
0.004812225634564547
0.00481223847186304
0.00481223626931499
0.004812226978213235
0.004812232136411626
0.004812233096790263
0.004812226743449427
0.004812230181780538
0.004812233205698048
0.004812225268680474
0.0048122295094477
0.004812230734652204
0.004812223002579312
0.004812224949857178
0.004812225642142772
0.0048122221608912
0.004812246080200567
0.004812268391727483
0.004812252887329276
0.004812235299760438
0.004812235478800984
0.004812237734027935
0.004812229080328385
0.004812233668923053
0.004812235088747627
0.004812228402582898
0.00481223221738132
0.004812235031671626
0.004812227569737807
0.004812232207306562
0.004812234461504488
0.004812227496928987
0.004812231747870711
0.004812234418712994
0.004812227197714906
0.004812231706811851
0.004812234181810065
0.004812227117180698
0.004812231499234708
0.004812234099542698
0.004812226945301232
0.004812231406126547
0.004812233932773262
0.00481222684068704
0.004812231308550894
0.005425287449077172
0.005425281606419895
0.005425284481535454
0.005425287212643579
0.005425281396481988
0.005425284221424885
0.005425286873865345
0.005425280986644643
0.005425283659412286
0.005425286051675832
0.005425279864904986
0.005425281881292606
0.005425283645493158
0.005425279833703097
0.005425290257721741
0.005425290264456613
0.005425282367053057
0.005425285587482405
0.005425286973050671
0.005425281650695831
0.005425283722784174
0.005425286717235935
0.005425280271535105
0.005425282898269742
0.005425284384158932
0.005425277924907813
0.005425278386904361
0.005425278892120041
0.005425275516562119
0.005425294769372485
0.005425318418217766
0.005425309087007782
0.005425293016944444
0.005425290853348422
0.00542529249145161
0.005425285128891347
0.005425287781183352
0.005425289386100576
0.005425283809708737
0.005425286091654692
0.005425288925462386
0.005425282843149562
0.005425285834979007
0.005425288309915326
0.005425282621251302
0.005425285332885632
0.005425288152208152
0.005425282279853753
0.005425285209387501
0.005425287891945919
0.005425282142811039
0.005425284978364419
0.005425287761942434
0.005425281946684054
0.0054252848477408
0.005425287576220199
0.005425281808355394
0.005425284723598122
0.00606575269494106
0.006065748238422471
0.006065749765237224
0.00606575245358061
0.006065748014756127
0.006065749499523903
0.00606575211362952
0.006065747607482401
0.00606574894856245
0.006065751306560542
0.006065746520998431
0.00606574720928639
0.006065748831103509
0.006065745746574426
0.006065753694917918
0.006065755628187498
0.00606574934376912
0.006065750919527012
0.006065752487668695
0.006065748275070933
0.00606574916598452
0.006065751887387273
0.006065746975322091
0.006065748187220741
0.006065749728200183
0.006065744621032322
0.006065743779490668
0.006065743980611387
0.006065740663470443
0.006065755137977448
0.006065778803511133
0.006065775408673047
0.006065762293043286
0.006065758179870984
0.006065759087162143
0.006065753006393929
0.006065753890575992
0.006065755438943883
0.006065751005153511
0.006065751932880946
0.006065754521627782
0.006065749854810098
0.006065751390364351
0.006065753838766042
0.006065749462940536
0.00606575083259407
0.006065753549825074
0.00606574906394088
0.00606575061296093
0.006065753257100399
0.006065748862277474
0.006065750352987425
0.006065753073190865
0.006065748635996013
0.006065750179388019
0.006065752865231136
0.006065748460996854
0.006065750025072661
0.006708462531928719
0.0067084593671329
0.006708459920526142
0.006708462285790602
0.006708459131001867
0.006708459648097656
0.006708461947507366
0.006708458732390811
0.006708459109036257
0.006708461169702652
0.006708457709342333
0.006708457420227762
0.006708458719608373
0.006708456293514874
0.006708461997684711
0.006708465263659679
0.00670846064374182
0.006708461068785168
0.006708462551286508
0.006708459420521136
0.006708459439362166
0.006708461690547602
0.006708458179717789
0.006708458343543594
0.006708459701064518
0.006708455886120256
0.006708454092216623
0.006708453944430415
0.006708450668504154
0.006708460886815052
0.006708482880050925
0.006708484670227233
0.006708475284263787
0.006708470129364381
0.006708470333104843
0.006708465413251252
0.006708464904804846
0.006708466143712077
0.006708462781689807
0.006708462667803073
0.00670846477827535
0.006708461404547589
0.006708461848979462
0.006708463985522535
0.00670846083310174
0.006708461221965151
0.00670846355672171
0.006708460359841018
0.006708460900112415
0.006708463222679891
0.006708460089263956
0.006708460604993918
0.006708462980542209
0.006708459826452962
0.006708460385447272
0.006708462747222438
0.006708459613419186
0.006708460197441093
0.007330417785248852
0.007330415694676793
0.00733041563008759
0.007330417534842417
0.00733041544719884
0.0073304153479491
0.007330417199757972
0.007330415061798393
0.007330414814910827
0.007330416464835003
0.007330414113249588
0.007330413186005803
0.007330414135146492
0.007330412233797483
0.00733041608988045
0.007330420000118454
0.007330416923700908
0.007330416697625904
0.007330417938358924
0.007330415766694555
0.007330415194261307
0.007330416954090414
0.007330414579736912
0.007330414041406549
0.00733041511017917
0.007330412381245808
0.007330410049178229
0.007330409569862413
0.00733040635202304
0.007330413211167675
0.007330432054401044
0.00733043799708894
0.007330432183557991
0.00733042714252991
0.007330426821598643
0.007330422886603505
0.007330421409578469
0.007330422264977117
0.007330419787792098
0.007330418916119346
0.007330420511437709
0.007330418175911652
0.007330417874315241
0.007330419561273883
0.007330417424971977
0.00733041715878466
0.007330419005735269
0.00733041686538681
0.007330416749632461
0.007330418608765876
0.007330416523405194
0.007330416410264336
0.007330418311921474
0.007330416219086327
0.007330416148165331
0.007330418046442705
0.007330415967674224
0.007330415927201284
0.007914139197080441
0.007914137900829978
0.007914137473175464
0.007914138938747326
0.007914137640537713
0.007914137181541664
0.007914138604241918
0.007914137264557147
0.007914136662568442
0.007914137911620227
0.0079141363879624
0.007914135141025461
0.007914135753662569
0.007914134251342495
0.00791413671590217
0.007914140658103282
0.007914138865631628
0.007914138377041975
0.007914139369392784
0.007914137946272295
0.007914137061664737
0.007914138356759075
0.007914136826307934
0.007914135896053652
0.007914136655277033
0.007914134754381626
0.007914132250667408
0.007914131508193029
0.007914128395106756
0.007914132762777458
0.007914147830822416
0.007914156415803758
0.007914153694898613
0.007914149648194497
0.007914149059814758
0.007914145966644037
0.007914143961493402
0.007914144428152782
0.007914142620308928
0.007914141284189415
0.007914142378802417
0.0079141408117586
0.007914140037777181
0.007914141281086324
0.007914139895202987
0.007914139231148717
0.007914140610671102
0.007914139250234346
0.007914138735569093
0.007914140149216247
0.00791413883790212
0.007914138349298362
0.007914139799304982
0.007914138490762224
0.007914138044569311
0.007914139500552626
0.007914138202840126
0.007914137790199016
0.008448611689987787
0.008448610935503186
0.008448610346841757
0.00844861142025195
0.008448610660843616
0.008448610045123454
0.008448611083904996
0.008448610290316638
0.008448609544034563
0.008448610432863253
0.00844860948044176
0.008448608159049504
0.008448608484288191
0.008448607274936232
0.008448608775746458
0.008448612293364913
0.00844861147718997
0.008448611000920722
0.008448611775404785
0.008448610897312303
0.008448609922790114
0.008448610817283524
0.00844860986643001
0.008448608789249497
0.008448609261526083
0.008448607944458879
0.008448605538775163
0.008448604623912013
0.008448601671630109
0.00844860428189379
0.008448615633566043
0.008448625339499111
0.008448625042424459
0.008448622481338914
0.008448621862698992
0.008448619530798509
0.008448617371544783
0.008448617507895217
0.008448616170188106
0.008448614619079812
0.008448615276727692
0.008448614233440472
0.008448613212910414
0.008448614053901892
0.008448613178375817
0.008448612322626002
0.008448613285773903
0.008448612455497778
0.008448611748515963
0.008448612761963953
0.008448611977551991
0.008448611315471919
0.008448612362709147
0.008448611588497759
0.008448610970165804
0.008448612030950415
0.008448611266892687
0.008448610684111381
0.008928416854980501
0.008928416439832648
0.008928415825835602
0.008928416570839268
0.008928416149199665
0.008928415513255197
0.008928416230685467
0.008928415780304393
0.008928415031763426
0.008928415620268177
0.008928415030149664
0.008928413801620376
0.008928413902372008
0.008928412900160365
0.008928413771227148
0.008928416627195771
0.008928416483851216
0.008928416161936769
0.00892841676628601
0.008928416258952561
0.00892841534763804
0.008928415922571242
0.008928415341073659
0.00892841428746066
0.008928414522317281
0.008928413583449316
0.008928411447993966
0.008928410447250875
0.008928407708027135
0.008928409126472647
0.008928417232845817
0.008928426789670105
0.008928428404728248
0.00892842717036914
0.008928426799627352
0.008928425186594612
0.008928423161126856
0.008928423062966052
0.008928422031581213
0.008928420458932768
0.00892842077108765
0.008928420057787965
0.008928418953509669
0.00892841945854631
0.008928418901373424
0.008928417996426409
0.008928418613425061
0.008928418114099498
0.008928417356588909
0.008928418034211355
0.008928417578654136
0.008928416879973341
0.00892841759053189
0.008928417150632631
0.00892841649783244
0.008928417227706062
0.008928416798882613
0.00892841618328973
0.009352060580429686
0.009352060353965732
0.009352059796069548
0.009352060278887981
0.009352060046121585
0.009352059472344257
0.009352059933788005
0.009352059675669683
0.009352059011829511
0.009352059362929451
0.009352058980942634
0.009352057945181472
0.009352057884365545
0.009352057018765014
0.00935205748090809
0.00935205963876299
0.009352059912128488
0.009352059771097321
0.009352060255466661
0.009352059978310543
0.009352059225550538
0.009352059559583029
0.009352059192830576
0.009352058274433786
0.009352058328382705
0.009352057625743157
0.00935205582061137
0.009352054815633141
0.009352052336200827
0.009352052968389729
0.009352058476781311
0.009352067043671454
0.009352069959304691
0.009352069806575356
0.009352069838308384
0.009352068868950049
0.009352067175083731
0.009352066949123135
0.009352066125907322
0.009352064667747359
0.009352064731683828
0.009352064206257966
0.00935206312893919
0.009352063372985256
0.009352062992609433
0.009352062129724517
0.009352062474285567
0.009352062159528437
0.00935206144020947
0.009352061850152129
0.00935206157711189
0.009352060925837617
0.009352061368399243
0.009352061115129512
0.009352060511835465
0.009352060977865831
0.00935206073771656
0.009352060173449974
0.009720311759619934
0.009720311625523613
0.009720311152720412
0.009720311437576699
0.00972031129956486
0.009720310818219153
0.009720311087275802
0.009720310928712755
0.009720310377675829
0.009720310555085024
0.009720310291335825
0.009720309454905089
0.00972030929932502
0.009720308533899697
0.009720308730623184
0.009720310252782272
0.009720310757260039
0.009720310754807528
0.009720311164084425
0.009720311024596412
0.009720310452800975
0.009720310622662239
0.009720310380021989
0.009720309640231246
0.009720309575895893
0.00972030901555619
0.009720307532706383
0.009720306588819406
0.009720304408045659
0.009720304522856502
0.009720308105694646
0.009720315227023466
0.009720318818385152
0.009720319550069745
0.009720320025438796
0.009720319536457646
0.009720318313826503
0.009720318048137869
0.009720317392356129
0.009720316136523853
0.009720316041854155
0.009720315603586526
0.009720314627967292
0.009720314683397168
0.009720314388590312
0.009720313610772666
0.00972031375531263
0.009720313531154066
0.009720312890883263