/*--------------------------------*- C++ -*----------------------------------*\
| =========                 |                                                 |
| \\      /  F ield         | OpenFOAM: The Open Source CFD Toolbox           |
|  \\    /   O peration     | Version:  v1812                                 |
|   \\  /    A nd           | Web:      www.OpenFOAM.com                      |
|    \\/     M anipulation  |                                                 |
\*---------------------------------------------------------------------------*/
FoamFile
{
    version     2.0;
    format      ascii;
    class       volScalarField;
    location    "10000";
    object      p;
}
// * * * * * * * * * * * * * * * * * * * * * * * * * * * * * * * * * * * * * //

dimensions      [0 2 -2 0 0 0 0];


internalField   nonuniform List<scalar> 
3770
(
1.409641262541197e-09
1.028821541596749e-07
2.87151014860309e-08
1.659110566535967e-08
1.057558380324006e-07
3.391429517813206e-08
2.507521649019247e-08
1.154376803245666e-07
4.609277947052664e-08
3.826883016398655e-08
1.35931734481626e-07
6.98684832538976e-08
5.220437162681863e-08
3.93043049795069e-08
-3.728440745830238e-07
-2.82039908861099e-07
1.483945112128787e-07
4.458510325904788e-08
8.959868264387974e-09
1.074150370586893e-07
8.086599659383809e-08
1.126986033739531e-08
1.198166060748345e-07
1.088141118356069e-07
3.330265682693583e-08
1.546170893151399e-07
1.304111720990816e-07
4.835572721092566e-08
1.314821863001564e-07
1.016004166004158e-07
-2.178631685965122e-07
-1.474131004899672e-07
2.851767629285471e-08
-3.376643430986206e-08
-3.216893151061623e-08
5.096430921481732e-08
1.188582791255957e-09
-2.053026623054314e-08
7.681129277985995e-08
-3.855174035862984e-09
-8.806994988082169e-09
6.827715275596775e-08
1.05941388267498e-08
-8.001871121539771e-09
8.27396043679427e-08
6.215394762174771e-09
-3.095276946233821e-09
7.852777012555302e-08
1.689630238822365e-08
8.051308393019796e-11
8.847516144039646e-08
1.42978002517333e-08
4.028866272491677e-09
9.099831414621311e-08
1.861327928936577e-08
8.204288283306006e-09
9.661696383289115e-08
1.623374753023875e-08
5.679811408126198e-09
1.041508706809129e-07
2.444501813541994e-08
1.945875573100258e-08
1.071406265239364e-07
2.960094404188242e-08
2.788853892688395e-08
1.168476414852145e-07
4.182383030119707e-08
4.106259332492128e-08
1.372136821219866e-07
6.533787335584351e-08
5.51368591864327e-08
4.238796331465341e-08
-3.263010063619438e-07
-2.327705437009594e-07
1.444893005988773e-07
3.724159336741703e-08
1.452333732848253e-08
1.099363022800302e-07
7.25713287113524e-08
1.705071604539735e-08
1.221916373008057e-07
1.00461140880394e-07
3.889687411297518e-08
1.569235194242623e-07
1.220963491387082e-07
5.340610533442164e-08
1.162978559815734e-07
4.700602742907903e-08
-2.444700016992592e-07
-1.403325866582774e-07
2.714355887921222e-08
-3.811456261372134e-08
-2.925100544027943e-08
5.234945972695472e-08
-3.069824722525639e-09
-1.772172851340578e-08
7.825975294084382e-08
-8.103098530593099e-09
-5.970534872065191e-09
6.97140306135726e-08
6.314336257500174e-09
-5.176990811240297e-09
8.417732185811651e-08
1.976762235791303e-09
-2.667439155391084e-10
7.996736617982653e-08
1.260951926071631e-08
2.910050715798914e-09
8.990985451737289e-08
1.006696519418989e-08
6.8934578399822e-09
9.239266292749614e-08
1.43070144153153e-08
1.099701707949503e-08
9.794670954653918e-08
1.210397819268059e-08
3.613450705158886e-09
1.021151235127129e-07
2.965242158067871e-08
1.616151383457261e-08
1.052200287870869e-07
3.473210103253314e-08
2.450359168645843e-08
1.149741240877609e-07
4.704715734517945e-08
3.767752915647888e-08
1.351843860650419e-07
7.02126371636992e-08
5.206888578272432e-08
5.668785854334772e-08
-2.112945852378727e-07
-1.405097215998524e-07
1.364711792718326e-07
3.206260611025966e-08
1.88538457394009e-08
1.117774537752127e-07
6.616444467664267e-08
2.163536857391284e-08
1.238686401329498e-07
9.396778202269283e-08
4.326503569563787e-08
1.585889367838858e-07
1.15722519162212e-07
5.684495662755745e-08
9.729309443614233e-08
-6.375654275898312e-08
-3.231782638642012e-07
-1.405441652429476e-07
2.218551788451773e-08
-3.304547854797713e-08
-3.251395788045714e-08
5.045476158575556e-08
2.133123485056596e-09
-2.110847720299349e-08
7.642938500181633e-08
-2.858960412905808e-09
-9.329674709402122e-09
6.787509301469976e-08
1.149621772739938e-08
-8.546633387022488e-09
8.233514528029767e-08
7.231834607529426e-09
-3.634930265206783e-09
7.812958004784187e-08
1.778091102640926e-08
-4.532426151879579e-10
8.806418680731683e-08
1.533289980257895e-08
3.590606622335335e-09
9.048453489734258e-08
1.944583903797872e-08
7.57606559414469e-09
9.594753609154739e-08
1.744465468432755e-08
-6.15786488693378e-09
9.57793250936111e-08
4.658007198880828e-08
5.409536444433768e-09
9.904215662782931e-08
5.156579284988422e-08
1.366088506771381e-08
1.088404559456163e-07
6.39751101876105e-08
2.684624348148821e-08
1.288760841286468e-07
8.672510060321649e-08
4.12956481284719e-08
7.920448287196459e-08
-6.422461012542701e-08
-4.166844615946143e-08
1.2666210695539e-07
3.283562303293226e-08
1.942304169671078e-08
1.112609480260174e-07
6.587177572679847e-08
2.244697541570718e-08
1.232091960588723e-07
9.356565188591119e-08
4.385887037166514e-08
1.579414193736293e-07
1.154546032046303e-07
5.670335842361243e-08
8.411686247879023e-08
-1.901740785448877e-07
-4.305277477990096e-07
-1.514768632841947e-07
1.514111481328128e-08
-1.643005962235178e-08
-4.321082169886567e-08
4.43307008156094e-08
1.902017583590307e-08
-3.195047275070893e-08
7.034608797990269e-08
1.409077169914175e-08
-2.013279105857507e-08
6.180759411573843e-08
2.836477280760648e-08
-1.937020885007335e-08
7.623848927305802e-08
2.419505945192692e-08
-1.444999444496396e-08
7.206184530782192e-08
3.463505294725363e-08
-1.126817745246259e-08
8.196234533281339e-08
3.230727043395545e-08
-7.163314391767934e-09
8.432094762627668e-08
3.629005548435509e-08
-3.303833322375149e-09
8.969731444694979e-08
3.455096260025216e-08
-1.276847099771591e-08
9.12305550134722e-08
5.840954740851841e-08
-1.992033457572829e-09
9.461381817899907e-08
6.326939582641894e-08
6.153649625009937e-09
1.044473987296185e-07
7.577269419906303e-08
1.93544386982522e-08
1.24275162473569e-07
9.814481963713481e-08
3.359295283140278e-08
9.359491112673996e-08
3.664548802373751e-08
2.871605057668594e-08
1.205999798870173e-07
3.192162770613474e-08
2.074814676021339e-08
1.112490792502121e-07
6.429675679473151e-08
2.40042268072861e-08
1.230176217198773e-07
9.184964208182831e-08
4.513522404099534e-08
1.577230037699751e-07
1.13844641034749e-07
5.800168888325234e-08
7.63907886382931e-08
-2.736319996319253e-07
-5.046868888486602e-07
-1.638631894125966e-07
9.517653936301708e-09
-4.804710422460468e-09
-5.055414863440757e-08
3.996130385488694e-08
3.078680588908601e-08
-3.945517009232197e-08
6.603426511518722e-08
2.592624090874619e-08
-2.75751703823905e-08
5.750954422617941e-08
4.011579064402347e-08
-2.685158980674707e-08
7.190353835196118e-08
3.605011254421064e-08
-2.191127915259828e-08
6.776441470559426e-08
4.6363637651728e-08
-1.873506762584991e-08
7.761891443203926e-08
4.41733791230302e-08
-1.455862671839296e-08
7.991279851471802e-08
4.801544000239137e-08
-1.083346533831758e-08
8.520443766759617e-08
4.649803543358295e-08
-1.663746460339936e-08
8.914286119731002e-08
6.491256954610543e-08
-6.562889715770506e-09
9.265531386729702e-08
6.963828989098172e-08
1.470807029042952e-09
1.025072370335633e-07
8.221694081956358e-08
1.470012075211757e-08
1.220783748677729e-07
1.042923385935722e-07
2.902962437047109e-08
1.013271374997835e-07
8.202069995147749e-08
5.878793199729013e-08
1.18875789523039e-07
3.200247480173597e-08
2.042667436245833e-08
1.113620489488729e-07
6.422630487645768e-08
2.388752951052438e-08
1.229404367502095e-07
9.156128045333421e-08
4.469590041676517e-08
1.576229783986033e-07
1.137679490596074e-07
5.885438215078132e-08
7.605980713015283e-08
-3.051981203697733e-07
-5.403108871839796e-07
-1.765962137632766e-07
6.369339216305844e-09
1.633605008920076e-09
-5.504696169874834e-08
3.808165559116181e-08
3.718286073220701e-08
-4.413256629196617e-08
6.421599537404749e-08
3.242946234286908e-08
-3.215363714751586e-08
5.573225309107935e-08
4.650599098361298e-08
-3.150347167106533e-08
7.005010156990247e-08
4.257990845688006e-08
-2.65196140190444e-08
6.598848684892583e-08
5.272207092739789e-08
-2.336392846710326e-08
7.575223057167644e-08
5.071484831445765e-08
-1.911424365711339e-08
7.79830724785427e-08
5.441984497353978e-08
-1.55316297557146e-08
8.318146141455962e-08
5.314636480964379e-08
-1.938999868450729e-08
8.868788456659909e-08
6.854585420341694e-08
-9.927069555631829e-09
9.233999783343466e-08
7.312239849138435e-08
-2.011942052263709e-09
1.021988837697606e-07
8.576892894335374e-08
1.12734419220522e-08
1.215048700267821e-07
1.076967258875976e-07
2.617795783324537e-08
1.058930771249732e-07
9.065072850971436e-08
5.964765999683288e-08
1.199355982040165e-07
3.388437727338681e-08
1.801247475020878e-08
1.11369035310832e-07
6.63787813806212e-08
2.161751303452962e-08
1.227556979982734e-07
9.34244717757893e-08
4.2119432262146e-08
1.574939817345245e-07
1.160903482214743e-07
5.888541340032715e-08
8.19532758752942e-08
-3.026908947689716e-07
-5.523614498708813e-07
-1.892867156560236e-07
5.501706666095688e-09
5.362819281624229e-09
-5.835161406450703e-08
3.784414486099098e-08
4.065996373161636e-08
-4.759937231358307e-08
6.406317743455939e-08
3.605996496173702e-08
-3.550542364727827e-08
5.563718183218406e-08
5.000275938813026e-08
-3.4953521675168e-08
6.985225343743518e-08
4.624039556659324e-08
-2.990894434368927e-08
6.589423517200939e-08
5.617735945380753e-08
-2.678095320076368e-08
7.553773831447119e-08
5.438628957918356e-08
-2.245464469901205e-08
7.770433198559201e-08
5.795215468253786e-08
-1.901827994019572e-08
8.28105794628134e-08
5.693099506521844e-08
-2.15939590033815e-08
8.917025710846998e-08
7.058994938614836e-08
-1.271705113559841e-08
9.300527945243244e-08
7.503659720836585e-08
-4.91004573105271e-09
1.028608892653994e-07
8.773320202292377e-08
8.48313334435156e-09
1.218934630774994e-07
1.096242247727948e-07
2.429252166697912e-08
1.095935327216651e-07
8.196882065651885e-08
4.633251583375429e-08
1.224459016767815e-07
3.655767530171966e-08
1.458852870659921e-08
1.113380850708311e-07
6.964265214323475e-08
1.826436952004691e-08
1.226076396685157e-07
9.626773332753618e-08
3.854392778689081e-08
1.575265598667461e-07
1.197410872790513e-07
5.875418893744966e-08
9.058844798086492e-08
-2.8489443036799e-07
-5.536205787403892e-07
-2.016086668296681e-07
5.947095879257226e-09
7.541645989617711e-09
-6.110285574757141e-08
3.861743498986119e-08
4.244650985571084e-08
-5.046867931644891e-08
6.489627358439197e-08
3.811557898530745e-08
-3.825106771273094e-08
5.660485814307591e-08
5.184637444695166e-08
-3.782659032223379e-08
7.06381952872842e-08
4.832457277691077e-08
-3.269747811156725e-08
6.685849947852969e-08
5.797366711749323e-08
-2.961143379680152e-08
7.630455232797732e-08
5.648082407520922e-08
-2.52179376622769e-08
7.841105017641985e-08
5.992052189941795e-08
-2.192978093013011e-08
8.340394954020954e-08
5.9221039670373e-08
-2.343952201767699e-08
9.017798923799182e-08
7.164283056270791e-08
-1.507625155509292e-08
9.420462470612343e-08
7.59821766552604e-08
-7.362036099599424e-09
1.040465344179755e-07
8.870885609853848e-08
6.172763026425548e-09
1.228352239592369e-07
1.106856509884243e-07
2.307595331616132e-08
1.128517094413536e-07
6.660105884831898e-08
2.805571249821275e-08
1.254263877646702e-07
3.914242006809534e-08
1.10276338580617e-08
1.114091327346311e-07
7.298011337559481e-08
1.469571239469964e-08
1.226430074224938e-07
9.914143200332772e-08
3.484764149323884e-08
1.578455031942179e-07
1.236959688431345e-07
5.887529203951548e-08
1.001595482881644e-07
-2.621823602052737e-07
-5.50576353162581e-07
-2.129242474385789e-07
6.86342543606946e-09
8.60765828569991e-09
-6.347837367698291e-08
3.993893066225187e-08
4.318368837679863e-08
-5.288698618214263e-08
6.62503667313665e-08
3.91799666251478e-08
-4.055377430921426e-08
5.814664946337019e-08
5.26761949476213e-08
-4.025367297253418e-08
7.195318137110708e-08
4.941963536954546e-08
-3.503781717619742e-08
6.839152958602276e-08
5.874950937648598e-08
-3.19888602783049e-08
7.760051476551489e-08
5.758590002757323e-08
-2.754893962582777e-08
7.965458478561854e-08
6.092272616046432e-08
-2.439305536954605e-08
8.452712892419565e-08
6.055369416510214e-08
-2.493550775431991e-08
9.142818776438948e-08
7.199878387889458e-08
-1.705549369790185e-08
9.568046585494217e-08
7.628242163763948e-08
-9.411354244265121e-09
1.054956158409955e-07
8.901195418074724e-08
4.303139017498179e-09
1.240572101456853e-07
1.111344946921142e-07
2.232688733277656e-08
1.160715294556007e-07
4.977084576290328e-08
8.982465097218802e-09
1.284845990863695e-07
4.13523454256908e-08
7.756396970216422e-09
1.114899725595534e-07
7.601117495640478e-08
1.135710740926844e-08
1.228538338675673e-07
1.016653623984833e-07
3.146831423881843e-08
1.584238034495213e-07
1.275418116643935e-07
5.940515714371965e-08
1.09164773651327e-07
-2.393685725610146e-07
-5.457364608522033e-07
-2.230686683503581e-07
7.789048485648178e-09
8.807670525812582e-09
-6.553525787857659e-08
4.160472899468718e-08
4.314910750208302e-08
-5.492134181526451e-08
6.784413941284338e-08
3.954982432862858e-08
-4.245744362457606e-08
6.003540743045856e-08
5.275967320635021e-08
-4.227914670165863e-08
7.353140616477228e-08
4.982856026972038e-08
-3.696905883683946e-08
7.026420066111032e-08
5.877525505225048e-08
-3.396231473011405e-08
7.916063284045871e-08
5.800714309869218e-08
-2.950194192298807e-08
8.117528781885227e-08
6.127661951700993e-08
-2.64641284712307e-08
8.590502113260801e-08
6.129184506825837e-08
-2.610865554191037e-08
9.271823719485462e-08
7.18891322713347e-08
-1.862915590618157e-08
9.718655483123366e-08
7.615913496077981e-08
-1.102879314398366e-08
1.069629810458032e-07
8.886055431606516e-08
2.876099495947853e-09
1.253465149450393e-07
1.112008508916184e-07
2.198453485188117e-08
1.189906012894745e-07
3.449078329909278e-08
-8.060403812626509e-09
1.311511524680427e-07
4.294813424987538e-08
5.051489467148729e-09
1.116029971413318e-07
7.841671078172519e-08
8.543616482033285e-09
1.232066755335752e-07
1.035858840444777e-07
2.872141099049064e-08
1.591988033340034e-07
1.309064971496568e-07
6.047660223440445e-08
1.172553751469389e-07
-2.193499010323175e-07
-5.407380930903702e-07
-2.316628425783377e-07
8.345017194765426e-09
8.343708139664543e-09
-6.727706365277877e-08
4.329576184675333e-08
4.261237009522942e-08
-5.653167466846253e-08
6.94228634779517e-08
3.944746804483916e-08
-4.39534879370111e-08
6.196448989641513e-08
5.238019317928361e-08
-4.386932875545374e-08
7.512024137647089e-08
4.977055036165478e-08
-3.84762967066989e-08
7.217027064915185e-08
5.833820703061156e-08
-3.54980905103225e-08
8.073629362228077e-08
5.79617684239462e-08
-3.105095176183682e-08
8.272648474767243e-08
6.120425160757614e-08
-2.809855657808333e-08
8.731287801763642e-08
6.158382008932142e-08
-2.672861538013251e-08
9.38593297613741e-08
7.128532006859587e-08
-1.960260858239735e-08
9.855474966368719e-08
7.559292942076523e-08
-1.202035561499637e-08
1.082857301442361e-07
8.824415371998178e-08
2.092590237070277e-09
1.265250967779782e-07
1.108059707646468e-07
2.212090980847322e-08
1.215313577691764e-07
2.126279403884803e-08
-2.24971930701714e-08
1.331471091958733e-07
4.394004713652793e-08
3.134384999086188e-09
1.115555805057636e-07
8.016590117633305e-08
6.503311877501617e-09
1.235459091920121e-07
1.048313987386163e-07
2.685782202497777e-08
1.599999279927525e-07
1.336696361078111e-07
6.202952260610282e-08
1.236011477371532e-07
-2.025481665486521e-07
-5.34772653452063e-07
-2.383838928880707e-07
8.103683575403954e-09
7.126669180193661e-09
-6.853401505230858e-08
4.484768321171841e-08
4.150604122950962e-08
-5.753897567981533e-08
7.080119706263641e-08
3.886034268751666e-08
-4.484778750707144e-08
6.378495932981623e-08
5.148231720643108e-08
-4.484178488238144e-08
7.654600727460186e-08
4.923084311876077e-08
-3.936343182490509e-08
7.396004065330327e-08
5.739275135205293e-08
-3.64182298317378e-08
8.215654149158707e-08
5.743375789815341e-08
-3.200436831578493e-08
8.413761573039146e-08
6.068136703482988e-08
-2.911574066335699e-08
8.857307703274575e-08
6.144028579082477e-08
-2.655745836761537e-08
9.461294744380308e-08
7.021196640848451e-08
-1.971135871408732e-08
9.951459914958466e-08
7.459475926234372e-08
-1.212347618497683e-08
1.091988519069626e-07
8.718014029908635e-08
2.190664868748299e-09
1.273456179939398e-07
1.099401250731846e-07
2.283549458914655e-08
1.231481592234341e-07
1.08983273289652e-08
-3.314207323041228e-08
1.340283140184453e-07
4.424268192293475e-08
2.280753521632104e-09
1.112184036390465e-07
8.108955219356244e-08
5.537105302266086e-09
1.237055225806482e-07
1.052899741494128e-07
2.618421653196592e-08
1.605984317261036e-07
1.355384099066206e-07
6.396972496903566e-08
1.276467090242473e-07
-1.896276271353116e-07
-5.272110273073358e-07
-2.426608234785567e-07
6.563904005681589e-09
5.088748010016768e-09
-6.911103317650067e-08
4.59254464830023e-08
3.987051584887124e-08
-5.768022214362647e-08
7.168974775819495e-08
3.780321738488002e-08
-4.490566979952233e-08
6.517458013405845e-08
5.012870542399907e-08
-4.492830415887654e-08
7.753007893895177e-08
4.822302034264442e-08
-3.938395634756918e-08
7.531119460356182e-08
5.600756897848477e-08
-3.645624258243045e-08
8.314876449031679e-08
5.643516078721787e-08
-3.209987136806475e-08
8.513659223586144e-08
5.971643832619016e-08
-2.924371290745272e-08
8.942926304639988e-08
6.081615411389778e-08
-2.524442232558807e-08
9.470652387104176e-08
6.861575469959771e-08
-1.86371686203131e-08
9.981148676909944e-08
7.311465211453202e-08
-1.102377146761441e-08
1.094566461875733e-07
8.563381248303525e-08
3.482125593230527e-09
1.275271175254885e-07
1.084548837311558e-07
2.422584422128186e-08
1.234859937058988e-07
3.022848441018455e-09
-4.007793396894034e-08
1.333866766530736e-07
4.398192843803111e-08
2.717546878965909e-09
1.102937497223818e-07
8.123887279705609e-08
5.923354820320699e-09
1.234119070344628e-07
1.049874431877433e-07
2.694469736663392e-08
1.606345250165688e-07
1.363373401131999e-07
6.595703747511394e-08
1.284156493720665e-07
-1.797776485579571e-07
-5.159610392573711e-07
-2.440074532860056e-07
3.215431987994077e-09
2.078423286400164e-09
-6.875806405244892e-08
4.626204808913672e-08
3.761265207117656e-08
-5.666973110044283e-08
7.18063521598468e-08
3.623342536248313e-08
-4.38237837744107e-08
6.588677536175536e-08
4.824683074765769e-08
-4.382838875630719e-08
7.780840508026895e-08
4.670550283452164e-08
-3.822740459327915e-08
7.59769171955888e-08
5.412026226088336e-08
-3.531718204947706e-08
8.345326677401656e-08
5.492223268979471e-08
-3.102389615561152e-08
8.546396732403436e-08
5.825111097205151e-08
-2.818155722794947e-08
8.961966481049396e-08
5.968021755720581e-08
-2.26043475416282e-08
9.388973991342544e-08
6.659197689325119e-08
-1.618968771381098e-08
9.918361879360068e-08
7.123826805452403e-08
-8.533372285804567e-09
1.088016505300654e-07
8.36919575817269e-08
6.130040464059119e-09
1.267808343481778e-07
1.063458802972275e-07
2.627200604180391e-08
1.221253447690724e-07
-2.128959834037472e-09
-4.300882309131875e-08
1.309152231471988e-07
4.328241318700402e-08
4.559436970097151e-09
1.085871270633257e-07
8.066215018788643e-08
7.827596648212642e-09
1.224299856450373e-07
1.03987764283878e-07
2.925634283847115e-08
1.597295055096207e-07
1.3581822838556e-07
6.756366939165631e-08
1.253214219183555e-07
-1.723746454501556e-07
-4.997572829858859e-07
-2.421360136018521e-07
-2.244967002930758e-09
-1.895537429007988e-09
-6.736931986555161e-08
4.553734325503597e-08
3.481108656643834e-08
-5.433252791083169e-08
7.086652548110894e-08
3.423238686025972e-08
-4.144187054077884e-08
6.562971199059402e-08
4.594233780807199e-08
-4.135384920497427e-08
7.710938106830128e-08
4.476365736951911e-08
-3.572148336713134e-08
7.566651344358724e-08
5.184163240466281e-08
-3.281264388282326e-08
8.280408798088151e-08
5.298040092016692e-08
-2.859115272711515e-08
8.485414689115409e-08
5.636546128568036e-08
-2.574066133215458e-08
8.88855066791083e-08
5.809270528595051e-08
-1.865795130960897e-08
9.205002489650925e-08
6.429614156781583e-08
-1.240959443894882e-08
9.753015354502089e-08
6.911977833388719e-08
-4.695915343371837e-09
1.071353007881792e-07
8.150905421843109e-08
1.007007894916045e-08
1.249446312514484e-07
1.036593977654602e-07
2.881330489533965e-08
1.19054068638858e-07
-4.813067867001765e-09
-4.245006259310154e-08
1.265713801608698e-07
4.238581468500613e-08
7.690476365758638e-09
1.059858136764802e-07
7.957118975442813e-08
1.11763253465738e-08
1.206135007698122e-07
1.024742365779561e-07
3.295057308358256e-08
1.575823257263674e-07
1.338852329242008e-07
6.826806157983624e-08
1.182037230556931e-07
-1.662014893691895e-07
-4.777420063004502e-07
-2.370686938487643e-07
-9.717157682599765e-09
-6.7029144352734e-09
-6.50345806078331e-08
4.361092927890882e-08
3.159421761460978e-08
-5.074492052515005e-08
6.875316766327107e-08
3.194917960678112e-08
-3.781149624761798e-08
6.429754479819415e-08
4.336032094329925e-08
-3.75617808445605e-08
7.532582085697918e-08
4.255533280895475e-08
-3.191377424741759e-08
7.427912717025693e-08
4.932197849687937e-08
-2.900019978996176e-08
8.109527745011336e-08
5.076731189502157e-08
-2.484539005396716e-08
8.320156388855451e-08
5.420769963325749e-08
-2.197214322412014e-08
8.712331729869169e-08
5.621876803980025e-08
-1.367781235502708e-08
8.925032179049892e-08
6.195694075894657e-08
-7.570197159659706e-09
9.491164356247396e-08
6.697756428241311e-08
2.110302722267566e-10
1.045131482203569e-07
7.929102718448573e-08
1.499703363888821e-08
1.220222863216331e-07
1.005596348211532e-07
3.159854557577372e-08
1.144812637065854e-07
-5.141206355411602e-09
-3.8981229389211e-08
1.206555021703654e-07
4.152017444414061e-08
1.179203264520463e-08
1.025755043211243e-07
7.818746849953526e-08
1.566124203632384e-08
1.179762944277451e-07
1.006483089905384e-07
3.762353378715467e-08
1.540634897162323e-07
1.305431111892244e-07
6.770876378189549e-08
1.076284930008421e-07
-1.603348291424071e-07
-4.504458753473045e-07
-2.292297753776012e-07
-1.865174655744516e-08
-1.204851485502576e-08
-6.20344132044181e-08
4.049540825688687e-08
2.817901936708664e-08
-4.619618330379573e-08
6.552523365585091e-08
2.958946056170474e-08
-3.321736507624648e-08
6.19345664772658e-08
4.072707248881282e-08
-3.27298785089703e-08
7.251784058124305e-08
4.029734698206894e-08
-2.708598998228504e-08
7.18652532214605e-08
4.678733165106717e-08
-2.41528656265332e-08
7.838749742225711e-08
4.850296955356846e-08
-2.006186488066269e-08
8.056507251749563e-08
5.199586628611962e-08
-1.715036785528534e-08
8.439526600915909e-08
5.427350404973207e-08
-8.067960505783288e-09
8.571935631474346e-08
5.975914926932716e-08
-2.084546199964412e-09
9.155991874447442e-08
6.498856036034127e-08
5.768978607662821e-09
1.01159413699239e-07
7.720354578084715e-08
2.047275542399964e-08
1.181966734527831e-07
9.72260813375933e-08
3.438456553475509e-08
1.088826269968423e-07
-3.549699501942963e-09
-3.349686828563113e-08
1.136694088270169e-07
4.086728523428808e-08
1.644185397165289e-08
9.857759903864438e-08
7.672062966742201e-08
2.084048319802552e-08
1.146728249838686e-07
9.868203076897829e-08
4.273882388166081e-08
1.492510506079999e-07
1.259559830120068e-07
6.577865526784896e-08
9.466161363026277e-08
-1.541106782717269e-07
-4.19234845697001e-07
-2.1924363001818e-07
-2.821427402899054e-08
-1.756220981694959e-08
-5.872225996676869e-08
3.640393396311736e-08
2.475413862042352e-08
-4.11113486725296e-08
6.142193330684899e-08
2.732578341347526e-08
-2.806561418342068e-08
5.876672782048384e-08
3.822217580858851e-08
-2.727899303381562e-08
6.892203149264146e-08
3.817082760492548e-08
-2.16504137257148e-08
6.866024974750079e-08
4.441659800699205e-08
-1.868855553655987e-08
7.491419258288838e-08
4.637045919035298e-08
-1.465161177331215e-08
7.717690756674025e-08
4.990988117363197e-08
-1.168996277027129e-08
8.093593865203068e-08
5.244426890426812e-08
-2.253333338340706e-09
8.176734775692689e-08
5.782159644570413e-08
3.622028085893043e-09
8.778143724761813e-08
6.325967283962811e-08
1.15458356453893e-08
9.736944950012185e-08
7.534033600649106e-08
2.605592461886536e-08
1.137558505900401e-07
9.383614686430512e-08
3.699910186087633e-08
1.027753304795795e-07
-5.16909985230452e-10
-2.680962257361665e-08
1.062272580071377e-07
4.051256664899522e-08
2.123210398305344e-08
9.428734077945762e-08
7.530503145396326e-08
2.625911327637415e-08
1.109337059436561e-07
9.667582312624882e-08
4.778316426807673e-08
1.433914978914224e-07
1.203877952109063e-07
6.264873367055435e-08
8.058177190421437e-08
-1.473254226262714e-07
-3.86016838032886e-07
-2.078896426310352e-07
-3.75696525155142e-08
-2.286794276474513e-08
-5.542131969832172e-08
3.165345805686154e-08
2.146033762985919e-08
-3.590615898283911e-08
5.67671802438354e-08
2.526568379239229e-08
-2.276787061605506e-08
5.509391111670303e-08
3.596106484317352e-08
-2.163336137583296e-08
6.485431664487017e-08
3.628639048490837e-08
-1.602939400126957e-08
6.497344417930816e-08
4.232090507342771e-08
-1.302699391831751e-08
7.09888354640591e-08
4.448373624046027e-08
-9.036568291458147e-09
7.334679270830972e-08
4.806419752281477e-08
-6.013724983378338e-09
7.7055146560877e-08
5.084395288075444e-08
3.431746902309984e-09
7.768544541314471e-08
5.618462333963777e-08
9.210634084845657e-09
8.386586058539181e-08
6.182309494576585e-08
1.7196435873255e-08
9.342520200089445e-08
7.372755359593445e-08
3.140317189301487e-08
1.090021735290242e-07
9.052196772534219e-08
3.935836502753574e-08
9.662860249257365e-08
3.394245066352117e-09
-1.96408030498424e-08
9.884030277881213e-08
4.046326670608528e-08
2.585559816089229e-08
8.997405991351373e-08
7.400930813736729e-08
3.155323651734197e-08
1.069887646602276e-07
9.467296338930405e-08
5.237207129963303e-08
1.368084342894465e-07
1.141545860158269e-07
5.864745763714568e-08
6.651494732749198e-08
-1.400338061143515e-07
-3.52556335927409e-07
-1.958710681164136e-07
-4.606762275208354e-08
-2.767966968597929e-08
-5.234933313098875e-08
2.658585585607015e-08
1.837565404193973e-08
-3.090958489777373e-08
5.18781000611731e-08
2.345021900137828e-08
-1.764481759295815e-08
5.121010025505338e-08
3.398368451683614e-08
-1.613202661481085e-08
6.061589810070876e-08
3.468414858607874e-08
-1.055388423785231e-08
6.110345733399165e-08
4.053599741316894e-08
-7.504563083811663e-09
6.690762102894422e-08
4.288375567157501e-08
-3.549963442345601e-09
6.936862811954448e-08
4.649948376423079e-08
-4.579048037677673e-10
7.30463062192723e-08
4.951511224389696e-08
8.764363791936936e-09
7.369937677274848e-08
5.484077660366637e-08
1.445728454191167e-08
8.003570626268019e-08
6.066345914149146e-08
2.249065357615754e-08
8.954388588512551e-08
7.234695075685095e-08
3.629621216019397e-08
1.04196203693866e-07
8.737367815892483e-08
4.143939706812347e-08
9.077165005027253e-08
7.743290376655019e-09
-1.248409237807131e-08
9.188722590136421e-08
4.068348284792373e-08
3.011979518351362e-08
8.58426898584882e-08
7.284908032520617e-08
3.647221380273472e-08
1.030249358802061e-07
9.268110599790203e-08
5.627932639966491e-08
1.298220287796642e-07
1.075577177940132e-07
5.414442853299312e-08
5.325830078993006e-08
-1.324269792812878e-07
-3.202375481651286e-07
-1.837881231894948e-07
-5.332221234020847e-08
-3.184446388129474e-08
-4.961719190289445e-08
2.149437741782488e-08
1.552975347501279e-08
-2.633091514787049e-08
4.701288402530789e-08
2.187299309949489e-08
-1.290968483853088e-08
4.734860204615406e-08
3.228329323076374e-08
-1.099586204620906e-08
5.644271803804173e-08
3.335410285805966e-08
-5.442772740627978e-09
5.728238837960547e-08
3.904904791440711e-08
-2.338253672681803e-09
6.290186808409293e-08
4.15626125256152e-08
1.588566473683845e-09
6.546982831587248e-08
4.520932269547276e-08
4.756723629379852e-09
6.913326280679127e-08
4.844949774517002e-08
1.362548840627457e-08
6.995839168850071e-08
5.37528766892532e-08
1.923964476996095e-08
7.64387042154122e-08
5.973999630931327e-08
2.730290118754273e-08
8.587158085170543e-08
7.116155916028477e-08
4.062722420788695e-08
9.952740647041022e-08
8.443850104388751e-08
4.325571673695956e-08
8.540336825893028e-08
1.217656751148178e-08
-5.66171036678407e-09
8.557237966423678e-08
4.111242308889295e-08
3.393140767096231e-08
8.202054532012346e-08
7.181267532864309e-08
4.088031388158608e-08
9.917200608305908e-08
9.069381235274601e-08
5.941315425911422e-08
1.226999589470697e-07
1.008485843460681e-07
4.945387849507899e-08
4.127291525582256e-08
-1.247080771433442e-07
-2.899200156672469e-07
-1.720209316429061e-07
-5.918430696095239e-08
-3.532852266565911e-08
-4.724522420055322e-08
1.659455568907637e-08
1.292323911134843e-08
-2.227717984629548e-08
4.234683680584173e-08
2.050598308524338e-08
-8.67073384492558e-09
4.366839336011182e-08
3.082648566714348e-08
-6.344547767141005e-09
5.249299161579715e-08
3.226177582267126e-08
-8.113149525728097e-10
5.366787451969767e-08
3.782193677352684e-08
2.353062981785009e-09
5.912520046130963e-08
4.04857257338644e-08
6.261295983394294e-09
6.180248759165743e-08
4.41597731985304e-08
9.510117309733411e-09
6.546572124680897e-08
4.761357783195487e-08
1.797028753691883e-08
6.654465449281792e-08
5.287803999293945e-08
2.351195460566748e-08
7.315496829202578e-08
5.900695617260279e-08
3.158525994777825e-08
8.248769591736736e-08
7.013054780988733e-08
4.436899175836897e-08
9.511673928151932e-08
8.17371334376049e-08
4.483358410250262e-08
8.06081296074389e-08
1.649135375415493e-08
6.719243466221675e-10
7.998902721896692e-08
4.169039016407404e-08
3.726532237134634e-08
7.85683400313348e-08
7.087772034257535e-08
4.472324288616197e-08
9.5504309017205e-08
8.87026372618103e-08
6.177628425239192e-08
1.156399664953061e-07
9.421365819720359e-08
4.480998755981168e-08
3.074908316990569e-08
-1.170551827744209e-07
-2.620447345624099e-07
-1.608102472770201e-07
-6.368664405858153e-08
-3.817292574624075e-08
-4.52082046510603e-08
1.201820020441842e-08
1.054221209603956e-08
-1.877526678917795e-08
3.798282345977068e-08
1.931346279454296e-08