/*--------------------------------*- C++ -*----------------------------------*\
| =========                 |                                                 |
| \\      /  F ield         | OpenFOAM: The Open Source CFD Toolbox           |
|  \\    /   O peration     | Version:  v1812                                 |
|   \\  /    A nd           | Web:      www.OpenFOAM.com                      |
|    \\/     M anipulation  |                                                 |
\*---------------------------------------------------------------------------*/
FoamFile
{
    version     2.0;
    format      ascii;
    class       surfaceScalarField;
    location    "10000";
    object      phi;
}
// * * * * * * * * * * * * * * * * * * * * * * * * * * * * * * * * * * * * * //

dimensions      [0 3 -1 0 0 0 0];
oriented        oriented;


internalField   nonuniform List<scalar> 
7417
(
-0.0008724955743357617
-8.490853772208411e-10
-0.0008724955809195355
-3.812717230722093e-11
-0.0008724953535539112
-1.056654696091453e-10
-0.0008724957014720062
2.17763746268603e-10
-0.0008724956190693332
-1.170717868717695e-10
-0.0008724953465743496
-9.133609759332381e-11
-0.0008724956893309325
2.486983030043185e-10
-0.000872495591761807
-1.49015114327997e-10
-0.0008724953064610624
-1.528215100293883e-10
-0.000872495653114313
2.185972656531275e-10
-0.0008724955378254023
-1.340491282575204e-10
-0.0008724953204599299
-1.194651488786214e-10
-0.000872495600951277
1.668620092575212e-10
-0.0008724928899556037
-2.176141398665986e-09
-0.0008724736122333567
-1.599734836107385e-08
-0.0008724572284723853
-1.449378296087703e-08
-0.0008724579317313465
6.096586644291249e-10
-0.0008724590796445227
1.032607726656455e-09
-0.0008724584053311821
-5.857591235612498e-10
-0.000872457824176969
-4.954596050914075e-10
-0.0008724590284811617
1.017109535849528e-09
-0.0008724583927895402
-5.364019963065632e-10
-0.0008724577911675593
-5.496519771139801e-10
-0.0008724589730654396
1.054354809127693e-09
-0.0008724582819398381
-5.608616931354891e-10
-0.0008724575910638493
-6.509448359545982e-10
-0.0008724585721990093
8.192559808068353e-10
-0.0008724578827570362
-6.333883701459841e-10
-0.000872460951174418
2.408986863758907e-09
-0.0008724809658645259
1.760868403904238e-08
-0.0008724959017246549
1.324352333722371e-08
-0.0008724955532806441
-3.891565266906832e-10
-0.0008724956893743913
3.381157694116294e-11
-0.00087249536021023
-2.042156960412448e-10
-0.000872495726775207
2.791291600563512e-10
-0.0008724956510841103
-1.61079346579168e-10
-0.0008724953693527068
-9.492693464025822e-11
-0.0008724957184470196
2.501911673482596e-10
-0.000872495630872433
-1.392121725785799e-10
-0.0008724953644930427
-1.368223066810989e-10
-0.0008724957084331775
2.560134509224909e-10
-0.0008724956488861765
-1.475753870459565e-10
-0.0008724953654397294
-1.008144843448967e-10
-0.0008724957166415631
2.554594193528388e-10
-0.0008724956284111867
-1.409567591018452e-10
-0.0008724953635213865
-1.363422672323144e-10
-0.0008724957082292059
2.564006467993757e-10
-0.0008724956476354385
-1.462433355589291e-10
-0.0008724953619332836
-9.852634854142079e-11
-0.0008724957148462373
2.537805946058743e-10
-0.0008724956260315415
-1.407557795746056e-10
-0.0008724953576682803
-1.41071218386048e-10
-0.0008724957139704517
2.264628850142694e-10
-0.0008724956323655229
-1.159372607980292e-10
-0.0008724953639739512
-8.704650952635192e-11
-0.0008724957433961304
2.789349193715592e-10
-0.0008724957262071142
-5.87300637143126e-11
-1.983745477529511e-10
-0.0007253715572761581
9.65862859634047e-10
-0.0007253717170185683
-1.36400518015185e-11
-0.0007253696129977282
-1.83525455446418e-09
-0.0007253715218338785
1.834214564956167e-09
-0.0007253717182439767
-3.771753019067848e-11
-0.0007253695877269457
-1.800829738038099e-09
-0.0007253714853311638
1.879212245860636e-09
-0.0007253716652764985
-9.730911487404111e-11
-0.000725369508224012
-1.921687514601262e-09
-0.0007253713845917607
1.798012739414428e-09
-0.0007253715081626897
-1.207556936084149e-10
-0.0007253693431279374
-1.946980064399055e-09
-0.0007253711178218118
1.659474386768125e-09
-0.0007253673945448625
-4.849851335325005e-09
-0.0007253419432335893
-3.443646086262105e-08
-0.0007253214474918704
-2.989948886308492e-08
-0.0007253211350565368
5.51083705512495e-11
-0.0007253222594346844
1.814208224876716e-09
-0.0007253221443010498
-4.41684697637015e-10
-0.0007253211798706204
-1.305527890718081e-09
-0.0007253221176596319
1.526547274728456e-09
-0.0007253221191144731
-2.628703397370445e-10
-0.000725321064762025
-1.475168347267831e-09
-0.0007253219802419036
1.586797800273371e-09
-0.0007253218586204261
-3.898987571329605e-10
-0.0007253206610556088
-1.723944957637778e-09
-0.0007253212320106488
1.003739666508487e-09
-0.000725320659174344
-9.861635345329362e-10
-0.000725322078678345
2.62222922823186e-09
-0.0007253475767039463
3.678797054737045e-08
-0.0007253698330506175
3.089693969808789e-08
-0.000725371630320169
1.289561435424611e-09
-0.0007253718353243383
4.95927514748536e-11
-0.0007253696527423677
-2.008356887049803e-09
-0.0007253715994690614
1.96801166710078e-09
-0.0007253717865697132
-1.292253830077539e-10
-0.0007253696648783535
-1.787368727172328e-09
-0.0007253715639712567
1.876965812857395e-09
-0.000725371775283413
-5.680368009005692e-11
-0.0007253696475862754
-1.879812203413353e-09
-0.0007253715603561245
1.909385123840748e-09
-0.000725371782653731
-8.249536845817517e-11
-0.0007253696501243678
-1.808624590877863e-09
-0.0007253715621855473
1.898443568812253e-09
-0.0007253717666130637
-6.609871650025931e-11
-0.0007253696460791748
-1.873068435963713e-09
-0.0007253715550625859
1.905191534484351e-09
-0.0007253717796398394
-7.671418802419607e-11
-0.0007253696420962196
-1.806698768448314e-09
-0.0007253715580196636
1.897230491782776e-09
-0.0007253717599571463
-6.780799716132415e-11
-0.0007253696387742911
-1.879101967371186e-09
-0.00072537155413539
1.849184853468095e-09
-0.0007253717564756863
-3.021581072904398e-11
-0.0007253696353080516
-1.787336589311524e-09
-0.0007253715653688874
1.930968541261682e-09
-0.0007253718071330724
5.22027951898204e-11
-1.850205903518605e-09
-0.0005823319949915185
2.906202146447031e-09
-0.0005823320168054741
2.079787295915137e-11
-0.000582330262269657
-3.631644477965526e-09
-0.0005823319563853696
3.551054134388188e-09
-0.000582331978119946
1.050202938098152e-12
-0.0005823302242993705
-3.596135608842118e-09
-0.0005823319071351208
3.581711050974449e-09
-0.0005823319178783872
-6.886324734997958e-11
-0.0005823301362339495
-3.736889479912675e-09
-0.000582331794558018
3.460819708041408e-09
-0.0005823317464303118
-1.29191431279186e-10
-0.0005823299178590553
-3.832352450043185e-09
-0.000582331464345038
3.235580423181738e-09
-0.0005823296330961529
-6.603837855549399e-09
-0.0005823236373252423
-4.097690382008971e-08
-0.0005823199104297676
-3.405679300824702e-08
-0.0005823187382827271
-1.057325662113696e-09
-0.0005823189960129754
2.102402795288032e-09
-0.0005823194213767665
-4.009354962385193e-11
-0.0005823188438748967
-1.857826654071933e-09
-0.0005823188349496045
1.519519840560392e-09
-0.0005823193815172951
2.68584871984089e-10
-0.0005823187069920699
-2.167009824429458e-09
-0.0005823186863824834
1.604414086612573e-09
-0.0005823191124191236
1.29952112752013e-11
-0.0005823183402458706
-2.509712360238272e-09
-0.0005823180510473538
7.623798637702129e-10
-0.0005823180257503523
-1.047570208976882e-09
-0.0005823169122963164
1.480697722684867e-09
-0.000582323157310475
4.351598527244925e-08
-0.0005823302846811902
3.845256972454327e-08
-0.000582332261624803
3.279904399611147e-09
-0.0005823321224324065
-1.213308379064014e-10
-0.0005823303385706576
-3.83201513670275e-09
-0.0005823320636206657
3.718136679529889e-09
-0.0005823320791928578
-1.381568062462547e-10
-0.0005823303390141565
-3.530007334020424e-09
-0.0005823320182676495
3.571776220000105e-09
-0.0005823320678611081
1.055130652209303e-11
-0.000582330312942749
-3.670602902009636e-09
-0.0005823320146171112
3.636241787813685e-09
-0.000582332067454921
-5.709976065508807e-11
-0.0005823303160342161
-3.565886233196445e-09
-0.0005823320141198048
3.614998893126647e-09
-0.0005823320546815042
-9.103672901988966e-12
-0.000582330310415383
-3.654151154911719e-09
-0.0005823320060124712
3.625780307338369e-09
-0.0005823320628497566
-4.489337469916194e-11
-0.000582330304699938
-3.566850955073068e-09
-0.0005823320080107898
3.615832808251011e-09
-0.0005823320449896043
-1.35386202419131e-11
-0.0005823303035465862
-3.65881032656605e-09
-0.0005823320026977646
3.571887745530076e-09
-0.0005823320333836569
1.777363945724763e-11
-0.0005823302918077359
-3.56998150192256e-09
-0.0005823319965068776
3.651433294683216e-09
-0.0005823320330031836
1.026258736057668e-10
-3.631714282222007e-09
-0.0004542044409956079
2.305758604062754e-09
-0.0004542036667806047
-7.802465709600178e-10
-0.000454205192085152
-2.052310770821295e-09
-0.0004542044189419515
2.731015788686323e-09
-0.0004542036229271623
-8.072246226202029e-10
-0.0004542051512597547
-2.009859244207731e-09
-0.0004542043683463584
2.749421539151085e-09
-0.0004542035645073619
-8.836094137471638e-10
-0.0004542050720332184
-2.164034782112591e-09
-0.0004542042752100536
2.602131272353308e-09
-0.0004542034377983681
-9.725215619446112e-10
-0.0004542049155505771
-2.326077440983565e-09
-0.0004542041382216841
2.40423659499063e-09
-0.0004542062962350606
-4.149640398566572e-09
-0.0004542274627495561
-1.884501845187787e-08
-0.0004542436124516025
-1.713898908872488e-08
-0.0004542421773936869
-2.448852167323927e-09
-0.0004542417689918876
1.640060175381128e-09
-0.0004542422193574627
4.552367553238295e-10
-0.0004542422335026443
-1.810189413476697e-09
-0.0004542416371272531
8.423551570782603e-10
-0.0004542421691105196
8.547038328291887e-10
-0.0004542421164848514
-2.20798816008456e-09
-0.0004542415234467922
9.501046897028365e-10
-0.0004542419758856511
5.124203556766596e-10
-0.000454241910242922
-2.557087090623188e-09
-0.0004542412365311695
5.284561288612163e-11
-0.000454241611484291
-6.392528736062184e-10
-0.0004542393762994863
-1.066155158042628e-09
-0.0004542206880312568
2.384135799366803e-08
-0.0004542052463457378
2.236241382248404e-08
-0.0004542045601150256
2.523063046444243e-09
-0.0004542038204741743
-9.25637214555877e-10
-0.0004542052943971814
-2.301772442097763e-09
-0.0004542045424871345
2.925592133689517e-09
-0.000454203742550428
-9.724601208230558e-10
-0.0004542052822804913
-1.908942317434917e-09
-0.0004542044936075336
2.728894249097633e-09
-0.0004542037255362107
-7.690894022194746e-10
-0.0004542052507957689
-2.083053502576509e-09
-0.0004542044893143377
2.833169023709619e-09
-0.0004542037206394311
-8.619709785144154e-10
-0.0004542052529044181
-1.955838875048695e-09
-0.0004542044856302787
2.796341728312166e-09
-0.0004542037095960796
-7.972210871105671e-10
-0.0004542052468553274
-2.055284662747995e-09
-0.0004542044788257457
2.815327696125255e-09
-0.000454203714908238
-8.431448430753195e-10
-0.0004542052399593276
-1.960376809831261e-09
-0.0004542044781775889
2.799708605197505e-09
-0.0004542036981486485
-8.052228545067768e-10
-0.0004542052388585877
-2.057054439542796e-09
-0.0004542044717910302
2.758019909634668e-09
-0.0004542036852126247
-7.808028255372717e-10
-0.0004542052259511245
-1.971377454213255e-09
-0.0004542044595286603
2.826658568139647e-09
-0.0004542036651333871
-7.144685952080942e-10
-2.025725093581157e-09
-0.0003512166838136218
1.201416218930998e-09
-0.0003512160020196526
-1.42103514234843e-09
-0.0003512180019501121
-1.699963219125476e-10
-0.000351216670413358
1.489556360577666e-09
-0.0003512159625358214
-1.476316276839673e-09
-0.0003512179600140712
-1.487865468802449e-10
-0.0003512166213497976
1.48727498600632e-09
-0.0003512159077865887
-1.552121205192377e-09
-0.000351217890686093
-2.9457202780416e-10
-0.0003512165469712557
1.326262584261375e-09
-0.0003512158229493592
-1.641646397871946e-09
-0.0003512178105569117
-4.603634097610845e-10
-0.0003512165153565772
1.199918647721486e-09
-0.0003512186443105208
-2.228354535154718e-09
-0.000351238387470234
-1.295132360627598e-09
-0.0003512535635947353
-3.486860591799955e-09
-0.0003512530791837451
-2.83947657994004e-09
-0.0003512525205881834
1.182185706407069e-09
-0.0003512527339446714
5.899077857789862e-10
-0.0003512530236111442
-1.53033723486086e-09
-0.000351252420287447
3.301684835524783e-10
-0.0003512526758965646
1.037039617145409e-09
-0.0003512529260232539
-2.002650866084486e-09
-0.0003512523366004943
4.772881981227346e-10
-0.0003512525455874896
6.307765517567444e-10
-0.0003512528389304727
-2.301428279282886e-09
-0.0003512523096059998
-3.436540210520652e-10
-0.0003512528443509163
-1.803070396909453e-10
-0.0003512519896599796
-1.621037384246727e-09
-0.0003512349629140082
8.665585499911682e-09
-0.0003512191480436594
7.960742273078479e-09
-0.0003512169170953793
3.499016935820152e-10
-0.0003512161837691681
-1.645952318317711e-09
-0.0003512181210767574
-4.811805395575027e-10
-0.0003512168012711571
1.684877178989517e-09
-0.0003512160899387983
-1.67296163434878e-09
-0.0003512180983842115
7.557528713689771e-12
-0.0003512167517158977
1.456055900302125e-09
-0.000351216069946904
-1.405544676074445e-09
-0.0003512180631460228
-2.046500661099294e-10
-0.0003512167460945637
1.595922910674865e-09
-0.0003512160611387788
-1.538513295090679e-09
-0.0003512180654667559
-4.528342072093341e-11
-0.0003512167406111296
1.547405929560268e-09
-0.0003512160523379105
-1.441418548775714e-09
-0.0003512180578534659
-1.652627026573966e-10
-0.0003512167343535394
1.571652934480074e-09
-0.0003512160545114815
-1.512678958033832e-09
-0.0003512180517731872
-5.467378036923116e-11
-0.0003512167323651841
1.553886934670972e-09
-0.0003512160399219937
-1.452882852288546e-09
-0.0003512180493533973
-1.642753723310616e-10
-0.0003512167255636331
1.525279158438854e-09
-0.0003512160267921735
-1.44064603498248e-09
-0.0003512180372813644
-9.678092669694245e-11
-0.0003512167131483726
1.578386624605999e-09
-0.0003512160034352259
-1.38385596199621e-09
-1.774002527110422e-10
-0.0002752629340314376
3.4326283891788e-10
-0.0002752626412234029
-1.691990926776962e-09
-0.0002752639396776595
1.04637487451002e-09
-0.0002752629153573422
5.210394214911707e-10
-0.000275262606107503
-1.754286802227128e-09
-0.000275263897892611
1.051387483675856e-09
-0.0002752628669346562
5.023703248451533e-10
-0.0002752625513375129
-1.83178170876945e-09
-0.0002752638317005004
9.111317481902292e-10
-0.0002752627994159752
3.377905631855735e-10
-0.0002752624833120876
-1.925314810570055e-09
-0.0002752637983515482
7.592402418205772e-10
-0.0002752628933093002
3.425700874257767e-10
-0.0002752642230185575
-9.447511072500968e-10
-0.0002752734330969234
6.524104930255037e-09
-0.0002752798453505955
1.927553717097007e-09
-0.0002752799439108493
-2.638956409514556e-09
-0.0002752798896464778
1.202919536226119e-09
-0.0002752796357548097
2.88010557689936e-10
-0.0002752798261255315
-1.365121848664861e-09
-0.0002752798071891015
3.853394418575772e-10
-0.0002752795745831767
7.620489881451097e-10
-0.0002752797359773515
-1.8765375935743e-09
-0.0002752797331185434
5.51536962600475e-10
-0.0002752794716201508
3.135218956710324e-10
-0.0002752797008533762
-2.09959399040803e-09
-0.0002752798254110936
-1.160739102591567e-10
-0.0002752800763345095
2.15080233334648e-11
-0.0002752807051717761
-9.113143885119405e-10
-0.0002752739591015163
3.082665579670599e-09
-0.0002752657209590489
6.615915592361677e-10
-0.0002752632834968026
-2.093472652343419e-09
-0.000275262834312064
-2.094843806956659e-09
-0.0002752640752177609
6.793873802651854e-10
-0.00027526305509499
7.168985729797538e-10
-0.0002752627367970234
-1.966836471874907e-09
-0.0002752640399584211
1.237002083513676e-09
-0.0002752630011375477
4.595362314688912e-10
-0.0002752627162019841
-1.655141670152301e-09
-0.0002752640042957997
1.00677754158024e-09
-0.000275262997210837
6.407508978701753e-10
-0.000275262704732968
-1.807765973845729e-09
-0.0002752640063013213
1.18052610921397e-09
-0.0002752629883754122
5.737167909189728e-10
-0.0002752626974664175
-1.697190642869652e-09
-0.0002752639975927371
1.057833909194193e-09
-0.0002752629838866349
6.091098691496316e-10
-0.0002752626970106256
-1.77515280185844e-09
-0.000275263991910529
1.166511551282767e-09
-0.0002752629794326871
5.836420295140642e-10
-0.0002752626842576009
-1.712740616309331e-09
-0.0002752639878038004
1.061869365586761e-09
-0.000275262972226609
5.65687098044187e-10
-0.0002752626719637725
-1.709565989196361e-09
-0.0002752639770778302
1.116599913130217e-09
-0.0002752629603381607
6.019176001947244e-10
-0.0002752626538439304
-1.664945523705678e-09
1.040626253750924e-09
-0.0002211368192923367
-3.173444195385136e-10
-0.000221136770229251
-1.710480559672287e-09
-0.0002211375731214434
1.766554201084733e-09
-0.0002211367928351418
-1.911735838557485e-10
-0.0002211367360318781
-1.785325777335639e-09
-0.0002211375305766159
1.745918516043411e-09
-0.00022113674404832
-2.277908359570502e-10
-0.0002211366800056685
-1.865093972293357e-09
-0.0002211374642161715
1.614043239954556e-09
-0.0002211366781722054
-3.97036401956177e-10
-0.0002211366185030513
-1.949979796816458e-09
-0.0002211374574344029
1.515975860846305e-09
-0.0002211368621517265
-1.834765097343592e-10
-0.0002211378058085208
-1.978245889410235e-10
-0.0002211411221193027
8.18664058963928e-09
-0.0002211425689791339
2.266109267025345e-09
-0.0002211428802634142
-2.287234823451405e-09
-0.0002211431316943048
1.524924408765565e-09
-0.0002211426214765407
-2.798783704155515e-10
-0.0002211427399976365
-1.252744401926192e-09
-0.0002211430604993177
7.704460642540256e-10
-0.0002211425588884119
2.05859214513845e-10
-0.000221142651557582
-1.814393238901588e-09
-0.0002211429857362141
9.690057666120689e-10
-0.0002211424660586181
-2.74842703744039e-10
-0.0002211426385008504
-1.953177691722878e-09
-0.0002211431390461268
4.76812259197522e-10
-0.0002211432442495138
7.544567322538052e-11
-0.0002211446026491615
7.297489302825356e-10
-0.000221143486364053
3.318615977678573e-09
-0.0002211395530936336
-2.251579761336402e-09
-0.0002211372105905993
-4.366564353505986e-09
-0.0002211369711568935
-2.317625168699942e-09
-0.0002211377272427227
1.353199852256582e-09
-0.0002211369442722514
-9.229582754710939e-12
-0.000221136871729513
-2.032129345052831e-09
-0.0002211376775492058
1.977486696052055e-09
-0.0002211368834790425
-2.794825958844595e-10
-0.000221136850372248
-1.657214946042646e-09
-0.0002211376423349753
1.716855858714874e-09
-0.0002211368809818059
-6.291972059961699e-11
-0.0002211368372257633
-1.846070463256483e-09
-0.0002211376442896379
1.921550975518379e-09
-0.0002211368693026563
-1.449525346471163e-10
-0.0002211368303386891
-1.706159051402546e-09
-0.0002211376338326169
1.779000319946842e-09
-0.0002211368656310615
-1.012603645633022e-10
-0.0002211368279524537
-1.805999173424126e-09
-0.0002211376288910314
1.902403536154348e-09
-0.0002211368595235565
-1.308783441528039e-10
-0.0002211368162216845
-1.725558738109828e-09
-0.0002211376227844979
1.785215113048679e-09
-0.0002211368519659088
-1.361476579643955e-10
-0.0002211368042416579
-1.731428336924128e-09
-0.0002211376126196878
1.825440587384845e-09
-0.000221136840528667
-1.128628927410242e-10
-0.0002211367899882102
-1.686434593611078e-09
1.735146972592534e-09
-0.0001826102023451603
-8.853775534380748e-10
-0.0001826102697733526
-1.621476755012114e-09
-0.0001826108397422576
2.262749624690068e-09
-0.0001826101703732685
-8.084761413348365e-10
-0.000182610235237877
-1.693309736068003e-09
-0.0001826107960478739
2.223348872842126e-09
-0.0001826101207499121
-8.595227919492819e-10
-0.0001826101776100452
-1.776779320720988e-09
-0.0001826107285124273
2.096254759552559e-09
-0.000182610055315002
-1.025109502181915e-09
-0.0001826101198054684
-1.85944348159042e-09
-0.0001826107393237561
2.054472717272755e-09
-0.0001826103008795547
-5.744383906623404e-10
-0.0001826111355235898
5.565962195660324e-10
-0.0001826122463293931
8.025562611223798e-09
-0.0001826118662616324
9.697104065670072e-10
-0.0001826122329954726
-1.862539541260382e-09
-0.0001826125627674634
1.924339802805019e-09
-0.000182611973858719
-9.132906634615921e-10
-0.0001826120829818709
-1.170941920975556e-09
-0.0001826125017904087
1.262541777469988e-09
-0.000182611912089154
-4.243496561554645e-10
-0.000182611995232865
-1.762069625482392e-09
-0.0001826124220208269
1.466123509902337e-09
-0.0001826118251395862
-9.237757020530809e-10
-0.0001826119986293641
-1.804284837002544e-09
-0.0001826126231518761
1.19081746362154e-09
-0.0001826127247134908
1.323237682736841e-10
-0.0001826143604612002
2.481288769782635e-09
-0.000182615227350669
5.251244793033576e-09
-0.000182612864013603
-3.764104053350033e-09
-0.0001826106320436311
-6.577327726430818e-09
-0.0001826104932441007
-2.447855585621421e-09
-0.0001826110179061645
1.805810049239923e-09
-0.0001826103392067609
-6.402922387588009e-10
-0.0001826103793577541
-1.965234413433773e-09
-0.0001826109485915335
2.473765031386895e-09
-0.0001826102671109332
-9.205680351282559e-10
-0.0001826103555711776
-1.537888164439281e-09
-0.0001826109155711407
2.206878678315139e-09
-0.0001826102666364376
-6.640264942151195e-10
-0.000182610341790023
-1.745018647215479e-09
-0.0001826109164060432
2.422028173081301e-09
-0.0001826102513955031
-7.681101338220105e-10
-0.0001826103339083786
-1.592822390423672e-09
-0.000182610904634449
2.279534578470012e-09
-0.000182610248599046
-7.101440116025831e-10
-0.0001826103303265865
-1.697549867904156e-09
-0.0001826108995385738
2.398621940599377e-09
-0.0001826102405144386
-7.495439929195309e-10
-0.0001826103186873916
-1.616530708029412e-09
-0.000182610892014196
2.287970770616156e-09
-0.000182610232544217
-7.433295217714818e-10
-0.0001826103067052239
-1.63015601192582e-09
-0.000182610881786869
2.316966824512334e-09
-0.000182610220805382
-7.33943772322778e-10
-0.0001826102942738093
-1.58862725379134e-09
2.237306088218864e-09
-0.000154694500016619
-1.449222136847671e-09
-0.0001546946257050572
-1.478630087441733e-09
-0.0001546950862094114
2.682606402845164e-09
-0.0001546944642751847
-1.39306515719522e-09
-0.0001546945893215412
-1.557167032820698e-09
-0.0001546950403676453
2.620789813228195e-09
-0.0001546944127542263
-1.457434371683016e-09
-0.000154694529255198
-1.645086354197739e-09
-0.0001546949706144203
2.497100431644523e-09
-0.0001546943470325195
-1.622351124600222e-09
-0.0001546944749336317
-1.714413721075653e-09
-0.0001546949972523873
2.537926646656356e-09
-0.0001546946371961711
-8.961417735141155e-10
-0.0001546954531500662
1.23373483084488e-09
-0.0001546958336232202
7.478575784367035e-09
-0.0001546948959758138
-5.541820216515763e-10
-0.0001546952745294308
-1.482151506038223e-09
-0.000154695590439959
2.271553048300937e-09
-0.0001546949941050945
-1.540538259484928e-09
-0.0001546951158916962
-1.047360203773233e-09
-0.0001546955362286452
1.711742174741194e-09
-0.0001546949304681566
-1.058870675556809e-09
-0.0001546950281660468
-1.67927782074004e-09
-0.0001546954520972715
1.932076719519757e-09
-0.0001546948496447971
-1.564142144573169e-09
-0.0001546950500028575
-1.6159260088274e-09
-0.0001546957038147067
1.891180012540538e-09
-0.0001546958582112845
2.6318341412595e-10
-0.0001546976119366071
4.426879434692046e-09
-0.0001546990355135122
7.396588046654615e-09
-0.0001546971531026084
-5.107704909417541e-09
-0.0001546950073326907
-8.662201168000941e-09
-0.0001546948967181719
-2.548178048348063e-09
-0.0001546952978499111
2.166490886432076e-09
-0.0001546946576898877
-1.251309951656393e-09
-0.0001546947500565836
-1.873639334330872e-09
-0.000154695205533345
2.899781519861804e-09
-0.000154694571851829
-1.524991733638318e-09
-0.0001546947202420499
-1.374077124744226e-09
-0.0001546951715523012
2.617408555119089e-09
-0.0001546945708431478
-1.234776727358637e-09
-0.0001546947050158917
-1.613037982412271e-09
-0.0001546951706110395
2.857942668831488e-09
-0.0001546945523873683
-1.356210641989833e-09
-0.0001546946953331566
-1.435333444320535e-09
-0.0001546951571428119
2.700226832384238e-09
-0.0001546945494266247
-1.287633444786022e-09
-0.0001546946907401759
-1.557319930844912e-09
-0.0001546951515632947
2.830188967299548e-09
-0.0001546945397542116
-1.332310877020225e-09
-0.0001546946783524382
-1.46307312539393e-09
-0.0001546951425713776
2.710301858760626e-09
-0.0001546945310337246
-1.316718566146367e-09
-0.0001546946657751379
-1.484196047532254e-09
-0.0001546951317512831
2.729733830102817e-09
-0.0001546945185845562
-1.315879259268692e-09
-0.0001546946532178058
-1.439038572674223e-09
2.642617470943315e-09
-0.0001329233851710757
-1.989769919013269e-09
-0.0001329235453344679
-1.304626360240667e-09
-0.0001329239448192662
3.036689752784232e-09
-0.0001329233455848831
-1.959383098151782e-09
-0.0001329235057622074
-1.380633501183471e-09
-0.0001329238955000434
2.957754719402708e-09
-0.0001329232905483495
-2.03554227306889e-09
-0.0001329234416843297
-1.474073223518568e-09
-0.0001329238220932063
2.836083459120049e-09
-0.00013292322344697
-2.192428543081197e-09
-0.0001329233906036565
-1.532205907394033e-09
-0.0001329238655115732
2.963064229308968e-09
-0.0001329235546140837
-1.176536645877551e-09
-0.0001329243797036035
1.99242269013395e-09
-0.0001329245086411754
6.773770577381704e-09
-0.0001329234215139282
-2.231266235762202e-09
-0.0001329238053116121
-1.083858381844241e-09
-0.0001329240809387963
2.589696599633442e-09
-0.000132923495335705
-2.153505434691411e-09
-0.0001329236325031681
-9.270450088610347e-10
-0.0001329240283881826
2.152889537309171e-09
-0.0001329234252051086
-1.685874455826689e-09
-0.000132923543510681
-1.580067728202516e-09
-0.0001329239411767595
2.37267491050655e-09
-0.0001329233524878274
-2.185839873134069e-09
-0.0001329235897470556
-1.393245313465607e-09
-0.0001329242551506726
2.612221968069412e-09
-0.0001329244820996079
4.629357412204344e-10
-0.0001329263177369838
6.358004269402064e-09
-0.0001329278665930077
9.623812836332721e-09
-0.0001329261153327868
-6.309206602961378e-09
-0.0001329240208696738
-1.072053469541535e-08
-0.0001329238935004415
-2.670680257162947e-09
-0.0001329242063663993
2.435687126321555e-09
-0.0001329235756290786
-1.852353990066167e-09
-0.0001329236954176574
-1.737328713354334e-09
-0.0001329240843165659
3.243644963726172e-09
-0.0001329234718489083
-2.113688337832925e-09
-0.0001329236545115866
-1.172175963358409e-09
-0.0001329240445450617
2.965132032917752e-09
-0.0001329234669524221
-1.782196949598288e-09
-0.0001329236358863584
-1.42844018875352e-09
-0.000132924040428699
3.216634226317472e-09
-0.0001329234449561571
-1.926556185535777e-09
-0.0001329236237232876
-1.237397289505344e-09
-0.0001329240249731085
3.058965438887243e-09
-0.0001329234409569968
-1.84208868734101e-09
-0.0001329236177929655
-1.363999454841866e-09
-0.0001329240180504729
3.18537513457617e-09
-0.0001329234294727999
-1.897177706737408e-09
-0.0001329236038910038
-1.269535340600813e-09
-0.0001329240076157456
3.070918433115298e-09
-0.0001329234194343313
-1.871610628234319e-09
-0.0001329235899802153
-1.29737228193602e-09
-0.0001329239955580718
3.082359496436143e-09
-0.0001329234055971973
-1.881362270872785e-09
-0.0001329235761331345
-1.252718359969922e-09
3.003234370373065e-09
-0.0001119611895970462
-2.539436946523931e-09
-0.0001119613732984362
-1.111222626234566e-09
-0.0001119617254198815
3.370406465983709e-09
-0.0001119611449901158
-2.519975472994133e-09
-0.0001119613288750869
-1.193153744243495e-09
-0.0001119616710639193
3.272608452849511e-09
-0.0001119610847730066
-2.60681115045681e-09
-0.0001119612591778652
-1.293255079197522e-09
-0.0001119615924901397
3.150936687257806e-09
-0.0001119610159045238
-2.756874667418866e-09
-0.0001119612126749117
-1.327862449043654e-09
-0.0001119616561816412
3.389437509182378e-09
-0.0001119613878449254
-1.425223030748986e-09
-0.0001119622312174651
2.732929730422399e-09
-0.0001119622564917561
6.277292877191958e-09
-0.0001119611440359327
-3.655566774190785e-09
-0.0001119615268190983
-7.183331332991392e-10
-0.0001119617528463897
2.825235992698846e-09
-0.0001119611863963921
-2.736462622215315e-09
-0.0001119613331929932
-7.729334849179564e-10
-0.0001119616971803496
2.525119863771559e-09
-0.0001119611054439325
-2.291989915391763e-09
-0.0001119612425933338
-1.448938023890236e-09
-0.0001119616080641996
2.758074758078115e-09
-0.0001119610449810666
-2.769350621586416e-09
-0.0001119613230230072
-1.119782952808078e-09
-0.0001119620030244538
3.313122363012536e-09
-0.000111962318689328
7.705808552840312e-10
-0.0001119642219244846
8.401546499163453e-09
-0.0001119657804758696
1.156910509247387e-08
-0.0001119640852017701
-7.716385131861253e-09
-0.0001119620254683107
-1.272509768067414e-08
-0.0001119618396458745
-2.849273274792307e-09
-0.0001119620620780478
2.640064207667009e-09
-0.0001119614299940804
-2.470140670428195e-09
-0.000111961563901119
-1.609660414172677e-09
-0.0001119618969665574
3.567929693630052e-09
-0.0001119613001991183
-2.695537049371188e-09
-0.0001119615046568338
-9.61079230112479e-10
-0.0001119618463185814
3.288117623785682e-09
-0.0001119612874758455
-2.325973567475944e-09
-0.0001119614808687514
-1.242593329848587e-09
-0.0001119618374425612
3.564469194445665e-09
-0.0001119612611440903
-2.487207582703452e-09
-0.0001119614645446574
-1.028231484579651e-09
-0.0001119618189848251
3.394439956371365e-09
-0.0001119612548495294
-2.390853223995082e-09
-0.0001119614571084684
-1.16824933234835e-09
-0.0001119618099949139
3.529639207246377e-09
-0.0001119612412798355
-2.451225081114547e-09
-0.0001119614404367977
-1.064414961539694e-09
-0.0001119617976606923
3.408372862946415e-09
-0.0001119612291675252
-2.419484295881591e-09
-0.0001119614244005086
-1.098380204493428e-09
-0.0001119617837091382
3.414726212135271e-09
-0.0001119612132847417
-2.435418341841403e-09
-0.0001119614078971876
-1.050759634325204e-09
3.329492021676252e-09
-8.468112965767794e-05
-3.049222027477352e-09
-8.468132477862297e-05
-9.078214745231702e-10
-8.468162250512125e-05
3.644391487597429e-09
-8.468107860602545e-05
-3.045321858952005e-09
-8.468127417444268e-05
-9.899201661812663e-10
-8.468156204217572e-05
3.531123943931833e-09
-8.468101216722797e-05
-3.142202305653532e-09
-8.46811980873506e-05
-1.096832103574268e-09
-8.468147799216238e-05
3.410187890260169e-09
-8.468094268080178e-05