/*--------------------------------*- C++ -*----------------------------------*\
| =========                 |                                                 |
| \\      /  F ield         | OpenFOAM: The Open Source CFD Toolbox           |
|  \\    /   O peration     | Version:  v1812                                 |
|   \\  /    A nd           | Web:      www.OpenFOAM.com                      |
|    \\/     M anipulation  |                                                 |
\*---------------------------------------------------------------------------*/
FoamFile
{
    version     2.0;
    format      ascii;
    class       volVectorField;
    location    "10000";
    object      U;
}
// * * * * * * * * * * * * * * * * * * * * * * * * * * * * * * * * * * * * * //

dimensions      [0 1 -1 0 0 0 0];


internalField   nonuniform List<vector> 
3770
(
(-0.9208490485744989 -2.412765546361523e-08 -1.408786157097752e-06)
(-0.9208499555769817 -5.5484068558239e-09 -1.408826286547679e-06)
(-0.9208492318852193 2.803012831062802e-08 -1.408767104005005e-06)
(-0.9208492744510628 -2.313596175460435e-08 -1.408823269583613e-06)
(-0.9208500433728559 -4.31057730988785e-09 -1.40875869046484e-06)
(-0.9208492162119618 2.721931947393752e-08 -1.408812184388507e-06)
(-0.9208492717825774 -2.299356197758519e-08 -1.40877763280926e-06)
(-0.9208500205257426 -4.316363596630962e-09 -1.40878593586601e-06)
(-0.9208491806238555 2.717092433925886e-08 -1.408782175947477e-06)
(-0.9208492287343618 -2.308386213993732e-08 -1.40879285177915e-06)
(-0.920849970976562 -4.847669259899676e-09 -1.408766831188224e-06)
(-0.9208491127371632 2.253021514764452e-08 -1.408790139376222e-06)
(-0.9208493118096184 -3.038370736567436e-08 -1.408778628230003e-06)
(-0.9208499593171577 6.693418589275689e-08 -1.408775599297541e-06)
(-0.9208443821787984 2.826482659806753e-07 -1.408886098368928e-06)
(-0.9208080413714196 1.093179601848944e-07 -1.409527015782481e-06)
(-0.92080914881204 -6.073860677623809e-08 -1.409490688266814e-06)
(-0.9208105732174537 1.742959871735333e-08 -1.409467492790966e-06)
(-0.9208115465884045 -3.485861673954957e-09 -1.409448450444356e-06)
(-0.9208089778466788 -3.844214775157084e-09 -1.409492620542053e-06)
(-0.9208103699655336 5.305418046943616e-09 -1.409464450982795e-06)
(-0.9208116685350884 -1.26147144251194e-09 -1.409442545653487e-06)
(-0.9208088315095985 -4.413402646153175e-09 -1.409489684669435e-06)
(-0.9208104144176639 5.18128293875874e-09 -1.409459462719804e-06)
(-0.920811525857447 -1.614680807351368e-09 -1.409440027342391e-06)
(-0.9208087366971495 -4.583043727445805e-09 -1.409486703916947e-06)
(-0.9208101000703636 9.220352141806215e-09 -1.409460486077201e-06)
(-0.9208109691572064 8.20476163471281e-09 -1.409445712383787e-06)
(-0.9208082536233514 -4.35599073448171e-08 -1.409488174114347e-06)
(-0.9208169386760389 -2.715967991601354e-07 -1.409325128486483e-06)
(-0.920851704178497 -1.451462564328295e-07 -1.408710765221842e-06)
(-0.9208486485349471 5.238963755103468e-08 -1.408770799362612e-06)
(-0.9208502956423038 -7.372377681668972e-09 -1.408738132837705e-06)
(-0.9208491266733099 2.682314082133407e-08 -1.408759789188605e-06)
(-0.9208493914047595 -2.271946310858727e-08 -1.408752679261886e-06)
(-0.920849996621362 -4.365863274574096e-09 -1.408740455090836e-06)
(-0.9208492923395706 2.719121250800092e-08 -1.408753667045688e-06)
(-0.9208492638496751 -2.29325073950013e-08 -1.408752212120017e-06)
(-0.9208500856193997 -4.334358486031812e-09 -1.408736092560934e-06)
(-0.9208492040615492 2.731517555240139e-08 -1.408752661987954e-06)
(-0.9208493202524117 -2.307046321221731e-08 -1.408748941647656e-06)
(-0.9208500315722113 -4.184621462280439e-09 -1.408735117586028e-06)
(-0.9208492544755303 2.718685383440266e-08 -1.408750436136149e-06)
(-0.9208492872603312 -2.294260403581746e-08 -1.408748362127476e-06)
(-0.9208500628553274 -4.296120555131275e-09 -1.408733972258978e-06)
(-0.9208492182643174 2.727865423342994e-08 -1.408750608137703e-06)
(-0.9208493054304929 -2.302775266974423e-08 -1.408748553751029e-06)
(-0.9208500412861607 -4.227066160258226e-09 -1.408735421622137e-06)
(-0.9208492445758143 2.721681704516131e-08 -1.408752567188252e-06)
(-0.9208492914464408 -2.297155260216332e-08 -1.408751799222418e-06)
(-0.9208500548925492 -4.265245869187967e-09 -1.408739563279126e-06)
(-0.920849219576293 2.727004116535901e-08 -1.408758084426154e-06)
(-0.9208492908951427 -2.299571002337239e-08 -1.408758432799084e-06)
(-0.9208500542142469 -4.315062623160441e-09 -1.408747402912273e-06)
(-0.9208492320809004 2.722891100643138e-08 -1.408766348159951e-06)
(-0.9208492900236698 -2.273102793609597e-08 -1.408765951283545e-06)
(-0.9208501132258761 -3.402356486821325e-09 -1.40874997624862e-06)
(-0.9208493939110046 2.853072177403713e-08 -1.408759393497231e-06)
(-0.7654753800620651 -1.996240246805831e-08 -4.184083358923602e-06)
(-0.7654799495970481 -2.825261190994621e-08 -4.184141536762446e-06)
(-0.7654758745687018 4.478026636460653e-08 -4.184021826321734e-06)
(-0.7654753236676756 -1.911323439760069e-08 -4.184187262716073e-06)
(-0.765479970500419 -2.612079255411691e-08 -4.183964236856676e-06)
(-0.7654758488575534 4.415669807551279e-08 -4.184141577906402e-06)
(-0.7654752925019018 -1.925287625747547e-08 -4.184062287697523e-06)
(-0.7654799244800122 -2.648245679951045e-08 -4.184035854382423e-06)
(-0.765475782216805 4.313311247787325e-08 -4.184059651619401e-06)
(-0.7654751974086588 -2.082783350608242e-08 -4.184100997796411e-06)
(-0.7654797913890453 -2.942576690999077e-08 -4.183983005604522e-06)
(-0.7654755807190776 3.559333962401584e-08 -4.184079777406471e-06)
(-0.765475035581016 -1.173968683480206e-08 -4.184067398522403e-06)
(-0.7654795510725293 2.259085809656434e-07 -4.18400205611271e-06)
(-0.7654678369010202 1.52867418930921e-06 -4.184224939180315e-06)
(-0.7654248034681242 1.09291988084421e-06 -4.184987372134007e-06)
(-0.765424047640807 -1.99655899827851e-07 -4.184965503163648e-06)
(-0.7654250151754137 -4.02665919871999e-08 -4.184953457852933e-06)
(-0.7654263986084276 6.480285019778747e-08 -4.184922484323292e-06)
(-0.7654246201423903 2.899798183859501e-09 -4.184949384216376e-06)
(-0.7654244203485252 -7.610906415258952e-08 -4.184946079252198e-06)
(-0.7654267166600066 7.300135970408882e-08 -4.184905382856575e-06)
(-0.7654242514996433 -2.04430507166468e-09 -4.184939990324164e-06)
(-0.7654245145977255 -7.653536528896576e-08 -4.184930958269555e-06)
(-0.765426350724131 6.826370954135241e-08 -4.184896501862205e-06)
(-0.7654240638826595 -7.199304094868153e-09 -4.184929182809089e-06)
(-0.7654238623788988 -8.363668681331097e-08 -4.184929068770442e-06)
(-0.7654253983177033 3.983465880454042e-08 -4.184902785723507e-06)
(-0.7654223175522468 -3.263009051441275e-07 -4.184949047745486e-06)
(-0.7654280049026742 -1.510828973415129e-06 -4.184835113506969e-06)
(-0.7654771192335851 -9.197929589518581e-07 -4.183964912802823e-06)
(-0.7654750927601967 1.758105732639909e-07 -4.184005355686296e-06)
(-0.7654803914973271 -3.702124400249827e-08 -4.1839028759745e-06)
(-0.7654756860190515 4.082474949505078e-08 -4.183988541519229e-06)
(-0.7654755944810159 -1.649624631416231e-08 -4.183984133063311e-06)
(-0.7654798797827019 -2.734856103669201e-08 -4.183902897987456e-06)
(-0.7654760464172077 4.491895399210972e-08 -4.183972081743335e-06)
(-0.7654752775477567 -1.91857996451133e-08 -4.183981608220485e-06)
(-0.7654801011798963 -2.552464915486124e-08 -4.183890264410142e-06)
(-0.7654758435738235 4.419802296241428e-08 -4.183968470884584e-06)
(-0.7654754228599496 -1.868159787883852e-08 -4.183971888726193e-06)
(-0.7654799712155365 -2.577452473339749e-08 -4.183886767139908e-06)
(-0.7654759484681157 4.441562360764927e-08 -4.183961572176311e-06)
(-0.7654753382732716 -1.872153774219442e-08 -4.183969500462149e-06)
(-0.7654800410617274 -2.569349671953819e-08 -4.183882867621783e-06)
(-0.7654758820843022 4.4340143845416e-08 -4.183961315697363e-06)
(-0.7654753825844981 -1.876287566186504e-08 -4.183969297559942e-06)
(-0.7654799957347653 -2.575103858929223e-08 -4.183886129810548e-06)
(-0.7654759199990482 4.440283135836311e-08 -4.183965983053933e-06)
(-0.765475351432182 -1.871628342503781e-08 -4.183977594319451e-06)
(-0.7654800191335264 -2.570251343982087e-08 -4.183897002810737e-06)
(-0.7654758883520117 4.436281847879506e-08 -4.183980892559763e-06)
(-0.7654753599369528 -1.89619354067878e-08 -4.183995952215852e-06)
(-0.7654800032524609 -2.585887077443928e-08 -4.183919309740829e-06)
(-0.765475895480327 4.43915155589664e-08 -4.184005580769039e-06)
(-0.7654753438243296 -1.89114352962829e-08 -4.18402014711675e-06)
(-0.765480039180903 -2.519840597822652e-08 -4.18393651038282e-06)
(-0.7654759881329021 4.710450025783489e-08 -4.184010506321547e-06)
(-0.6142752449128429 -6.085295222644257e-08 -6.890339840962478e-06)
(-0.6142790853653314 -9.890311304651161e-08 -6.890503470128255e-06)
(-0.6142754277421493 1.567374621116444e-07 -6.890276505305192e-06)
(-0.6142752526349544 -6.230033173657693e-08 -6.890506718473389e-06)
(-0.6142790318846633 -9.627345107943417e-08 -6.890238431430066e-06)
(-0.6142753928341389 1.559173807684488e-07 -6.890443108843432e-06)
(-0.6142752038267107 -6.301042230227197e-08 -6.890327329547727e-06)
(-0.614278976206607 -9.721942412795907e-08 -6.890332543519433e-06)
(-0.6142753203581057 1.538019814129099e-07 -6.890326371646388e-06)
(-0.6142750969537464 -6.636352953602361e-08 -6.890374911044506e-06)
(-0.614278830070218 -1.030168652489288e-07 -6.890255381794449e-06)
(-0.6142751023611769 1.413737881445378e-07 -6.890347787465261e-06)
(-0.6142748392949661 -5.921324024696361e-08 -6.890324725851874e-06)
(-0.6142785150833724 3.727470230753008e-07 -6.890268639481449e-06)
(-0.6142713775956357 2.950575227093253e-06 -6.890384967766995e-06)
(-0.6142652102608288 2.185818422353929e-06 -6.89050001406294e-06)
(-0.614263206695511 -3.27345575659853e-07 -6.890511218124971e-06)
(-0.6142632900378212 -1.173463097204367e-07 -6.89051476004803e-06)
(-0.6142637243294785 1.568306065582628e-07 -6.890495037387631e-06)
(-0.6142640669894147 7.773325786249667e-10 -6.890480849028784e-06)
(-0.6142625831979184 -1.740143219252517e-07 -6.890499892323218e-06)
(-0.6142641089154319 1.71939173376108e-07 -6.890468766432858e-06)
(-0.6142636015982288 -1.010693791989491e-08 -6.890463782313666e-06)
(-0.6142627278659595 -1.744265657403722e-07 -6.890474670612442e-06)
(-0.6142636695212128 1.609158114743047e-07 -6.890451070270536e-06)
(-0.6142634689046711 -2.120387570620328e-08 -6.890441685637165e-06)
(-0.6142620983395812 -1.963181769219004e-07 -6.89046179339403e-06)
(-0.6142629326810349 9.616292588517879e-08 -6.890444705545171e-06)
(-0.6142617884402517 -5.761865156454139e-07 -6.890460863820766e-06)
(-0.6142604474515623 -2.783436186115443e-06 -6.890495635072563e-06)
(-0.6142755534044008 -1.815754163224792e-06 -6.890227232048861e-06)
(-0.6142754311067764 1.547425354344671e-07 -6.89021024043976e-06)
(-0.614279494188407 -9.87707263541253e-08 -6.890124477569349e-06)
(-0.6142752434922052 1.491349607454631e-07 -6.890199508934016e-06)
(-0.6142755969593616 -5.727087139516611e-08 -6.890187908388598e-06)
(-0.614278930031693 -9.902380534755225e-08 -6.890118726745635e-06)
(-0.6142756698274351 1.58187793676919e-07 -6.890174830616372e-06)
(-0.6142751891602131 -6.312051498666908e-08 -6.890181199130911e-06)
(-0.6142792209907726 -9.457092637103527e-08 -6.890098700893323e-06)
(-0.6142753980364741 1.560562392074139e-07 -6.890167165800158e-06)
(-0.614275384716504 -6.119513522660028e-08 -6.890165204284555e-06)
(-0.6142790411484914 -9.568157524178093e-08 -6.890091314582968e-06)
(-0.6142755358008805 1.57014986401956e-07 -6.890155185003752e-06)
(-0.6142752684803739 -6.179531993403765e-08 -6.890159529269903e-06)
(-0.6142791373982318 -9.515443610540406e-08 -6.89008367567976e-06)
(-0.6142754504291877 1.566035777568772e-07 -6.890152662119566e-06)
(-0.6142753284561998 -6.155905887656279e-08 -6.890157221307038e-06)
(-0.614279074572587 -9.547016038837429e-08 -6.890086291620561e-06)
(-0.6142754951370726 1.568310623456209e-07 -6.890157471988901e-06)
(-0.6142752868664054 -6.167832110402044e-08 -6.890167332277293e-06)
(-0.6142791061655759 -9.529056907130372e-08 -6.890100435545015e-06)
(-0.614275459540878 1.566739650880615e-07 -6.89017779672075e-06)
(-0.614275303662845 -6.190304097192031e-08 -6.890193571742437e-06)
(-0.6142790793658168 -9.561878822807107e-08 -6.890133759210885e-06)
(-0.6142754606178608 1.566398903132404e-07 -6.89021749472482e-06)
(-0.61427527607201 -6.207024625797801e-08 -6.890236795121159e-06)
(-0.6142790898938844 -9.493973102534508e-08 -6.89017513245313e-06)
(-0.6142754707021555 1.604082617025945e-07 -6.890245495361726e-06)
(-0.4785260817025161 -1.329318906043507e-08 -9.32275156650195e-06)
(-0.4785229410106831 -1.08218078307676e-07 -9.323131729963364e-06)
(-0.4785245435737965 1.189835680044823e-07 -9.322750650258723e-06)
(-0.4785261247059102 -1.600862906693852e-08 -9.322977018854163e-06)
(-0.4785228815946324 -1.064746451436271e-07 -9.322811571289452e-06)
(-0.4785245049389489 1.179391352350532e-07 -9.322928877714798e-06)
(-0.4785260739008436 -1.736924753407051e-08 -9.322773693450569e-06)
(-0.4785228248335346 -1.079746562431064e-07 -9.322904161499365e-06)
(-0.4785244374323168 1.150303486724116e-07 -9.322796869087894e-06)
(-0.4785259807247456 -2.192747509075427e-08 -9.322815529620589e-06)
(-0.4785227076762115 -1.153465466125212e-07 -9.322813996178396e-06)
(-0.4785242858842109 1.000799729333663e-07 -9.322809404311099e-06)
(-0.4785257910282131 -3.245584224500242e-08 -9.322752514428605e-06)
(-0.4785226762659116 2.123894892877763e-07 -9.322814257660602e-06)
(-0.4785304049403611 2.468718454479086e-06 -9.322663282335626e-06)
(-0.4785671201883717 1.959823498944973e-06 -9.322011324713997e-06)
(-0.4785644051028179 -2.83777580356709e-07 -9.322027922413454e-06)
(-0.4785642449908064 -1.509260117762838e-07 -9.322033939972291e-06)
(-0.4785635043728207 1.903234828268562e-07 -9.322034925295262e-06)
(-0.4785651241129249 -6.657140707174312e-09 -9.321992979246145e-06)
(-0.4785636288210255 -2.058148447522117e-07 -9.322009895227964e-06)
(-0.4785638545693328 2.092737002758648e-07 -9.322001656634922e-06)
(-0.4785646715935319 -2.227917909179961e-08 -9.321968353747485e-06)
(-0.4785638051179127 -2.055491402946275e-07 -9.321975891869488e-06)
(-0.4785634561985009 1.930500257860603e-07 -9.321974641757483e-06)
(-0.4785646582255748 -3.629810095997133e-08 -9.321934292090178e-06)
(-0.4785633937830355 -2.357848023033178e-07 -9.321947920321695e-06)
(-0.4785632394754257 1.281231926734764e-07 -9.321946841788989e-06)
(-0.4785640360714217 -5.293520924260201e-07 -9.321924221810499e-06)
(-0.4785587046583797 -2.27046915483751e-06 -9.322034111130997e-06)
(-0.4785247485286767 -1.417761924564935e-06 -9.322652839197969e-06)
(-0.4785259212669804 1.005668488073105e-07 -9.322608194105797e-06)
(-0.4785234131775287 -1.126386094915752e-07 -9.322632431330744e-06)
(-0.4785243967840122 1.091646379245169e-07 -9.322612328170729e-06)
(-0.4785264864307697 -9.34225206737666e-09 -9.322569112845258e-06)
(-0.4785227950713027 -1.105069818284225e-07 -9.322621831623287e-06)
(-0.4785248079980265 1.217867566653364e-07 -9.322580994822004e-06)
(-0.478526065994361 -1.782871094034312e-08 -9.322556742812989e-06)
(-0.4785230925979144 -1.03550037736428e-07 -9.322595559529202e-06)
(-0.4785245146780752 1.182000764403511e-07 -9.322568170768038e-06)
(-0.4785262733646113 -1.409069352670121e-08 -9.322535052534583e-06)
(-0.4785228980162237 -1.056243203263335e-07 -9.322583271513782e-06)
(-0.4785246606904081 1.200978257411541e-07 -9.322551005897703e-06)
(-0.4785261455640664 -1.544404047935234e-08 -9.322524829880132e-06)
(-0.4785230004233276 -1.045783405465578e-07 -9.322571068165112e-06)
(-0.4785245700650285 1.192748635236042e-07 -9.322544533711721e-06)
(-0.4785262110721306 -1.479038707088828e-08 -9.322518800167648e-06)
(-0.4785229338174332 -1.051687236348158e-07 -9.3225706152577e-06)
(-0.4785246151503534 1.196637831901137e-07 -9.322546754924862e-06)
(-0.4785261653144571 -1.517214256383534e-08 -9.322527159037337e-06)
(-0.478522965033523 -1.048818507528435e-07 -9.322583942640278e-06)
(-0.4785245797349004 1.194091853294766e-07 -9.322567600295407e-06)
(-0.4785261832480913 -1.524164401048946e-08 -9.322555867524116e-06)
(-0.4785229351109335 -1.053816833909645e-07 -9.322622356106838e-06)
(-0.4785245814380711 1.192891600447092e-07 -9.322617216387776e-06)
(-0.4785261526834988 -1.569420053202059e-08 -9.322615164749081e-06)
(-0.4785229360715583 -1.050194822700526e-07 -9.322692129843764e-06)
(-0.4785245574904663 1.224684350342784e-07 -9.322676986516411e-06)
(-0.3687565578287396 2.063241096836604e-08 -1.129012830917701e-05)
(-0.3687523643157345 -9.659914515044562e-08 -1.129058667220814e-05)
(-0.3687551820546079 7.338687570811886e-08 -1.129016686295307e-05)
(-0.3687565980165041 1.750315981093298e-08 -1.129039002400273e-05)
(-0.368752319084431 -9.599305716875154e-08 -1.129024786659878e-05)
(-0.3687551402172931 7.20426264722937e-08 -1.129032861121263e-05)
(-0.3687565488288145 1.558674253861758e-08 -1.129018577505017e-05)
(-0.3687522640665235 -9.795099501190164e-08 -1.129032381759955e-05)
(-0.3687550790959203 6.865142351456253e-08 -1.129019524601839e-05)
(-0.3687564698273355 1.047107496769698e-08 -1.129021403425961e-05)
(-0.3687521754067328 -1.056187018754127e-07 -1.129022956888851e-05)
(-0.3687549884712557 5.464458609086128e-08 -1.129019508642191e-05)
(-0.3687563844524533 -5.793661166038158e-09 -1.129014269763741e-05)
(-0.3687522241346396 4.078032283051857e-08 -1.129021497594696e-05)
(-0.3687607292500547 1.243784246140104e-06 -1.129004095186721e-05)
(-0.3687938128042795 9.778229605506676e-07 -1.128945814444314e-05)
(-0.3687927329096852 -1.848763422083974e-07 -1.128944832845597e-05)
(-0.3687927087211059 -5.804247314464177e-08 -1.128944819611906e-05)
(-0.3687915073401494 1.139383361022444e-07 -1.128945836550348e-05)
(-0.3687931278932891 -3.869331167575447e-08 -1.128941230069002e-05)
(-0.3687922106630902 -1.014764906056251e-07 -1.128941684334757e-05)
(-0.3687918026555098 1.345460652974206e-07 -1.128941957662891e-05)
(-0.3687927139143035 -5.726767760616003e-08 -1.128938172433174e-05)
(-0.3687923949288219 -9.994317888262054e-08 -1.128937641186149e-05)
(-0.3687914573645611 1.151113344990835e-07 -1.128938529646813e-05)
(-0.3687927812460437 -7.051269549917055e-08 -1.128933852991415e-05)
(-0.3687921524056057 -1.313075051101802e-07 -1.128933585694396e-05)
(-0.368791623315147 7.111268515258999e-08 -1.128933842666209e-05)
(-0.3687932092806639 -2.940609434931197e-07 -1.12892981182841e-05)
(-0.3687901533472318 -9.753203752863707e-07 -1.128937498689086e-05)
(-0.3687572632042314 -5.838625334497795e-07 -1.128998455412202e-05)
(-0.3687566224702938 1.762359515816784e-08 -1.12899668787159e-05)
(-0.3687528535824754 -1.013761249152389e-07 -1.129000484183303e-05)
(-0.3687550763563263 6.009327363883749e-08 -1.128995854174099e-05)
(-0.3687569535031679 2.517550637912469e-08 -1.128992096299365e-05)
(-0.3687522506275293 -1.010169594180455e-07 -1.128998843472919e-05)
(-0.3687554463657235 7.728776058574528e-08 -1.128992216325385e-05)
(-0.3687565493961205 1.465450766680021e-08 -1.128990299882757e-05)
(-0.3687525337893022 -9.195671783209769e-08 -1.128995715639527e-05)
(-0.3687551547653706 7.233918180340606e-08 -1.128990415130073e-05)
(-0.36875675070032 2.028928047064432e-08 -1.128987643775743e-05)
(-0.3687523390250239 -9.492996739026096e-08 -1.128993990238626e-05)
(-0.3687552990745078 7.530308500764494e-08 -1.128988225770114e-05)
(-0.3687566226323956 1.815042710114114e-08 -1.128986146700184e-05)
(-0.3687524407966878 -9.33577885305251e-08 -1.128992311862888e-05)
(-0.3687552080496947 7.397663686086765e-08 -1.128987120924705e-05)
(-0.3687566875127344 1.926497513521142e-08 -1.128985101285053e-05)
(-0.3687523738446736 -9.421011207156594e-08 -1.12899183168659e-05)
(-0.3687552523380001 7.458731351556695e-08 -1.128986930688362e-05)
(-0.3687566418133805 1.859224480372591e-08 -1.128985544250314e-05)
(-0.3687524043855314 -9.383888047215783e-08 -1.12899281195348e-05)
(-0.368755217010904 7.418521962274667e-08 -1.128988705753955e-05)
(-0.3687566594147381 1.870567473624986e-08 -1.128988218371287e-05)
(-0.3687523740530918 -9.447600406091564e-08 -1.128996588258881e-05)
(-0.3687552191512623 7.404191736883345e-08 -1.128993990645452e-05)
(-0.3687566304829799 1.802853232072186e-08 -1.128994968032805e-05)
(-0.3687523736782374 -9.43624676838992e-08 -1.12900593517365e-05)
(-0.3687551862197146 7.603861671524106e-08 -1.129003334134082e-05)
(-0.2865421236694353 2.640207330254097e-08 -1.276238029994013e-05)
(-0.2865393806602607 -8.665670630065143e-08 -1.276282832214951e-05)
(-0.2865415487668757 5.688680360573612e-08 -1.276243382510413e-05)
(-0.2865421352235081 2.32990833007523e-08 -1.276264683464622e-05)
(-0.286539346846646 -8.682638170870286e-08 -1.276249591187874e-05)
(-0.2865415067122051 5.520915825549067e-08 -1.276256650321932e-05)
(-0.2865420878734428 2.092567846010334e-08 -1.276245236754165e-05)
(-0.2865392921638394 -8.919264829691251e-08 -1.276255076118199e-05)
(-0.2865414462879679 5.146990067764514e-08 -1.276243792275471e-05)
(-0.2865420148904894 1.55982698225523e-08 -1.27624658171201e-05)
(-0.2865392159339381 -9.659461692363146e-08 -1.276245701680435e-05)
(-0.2865413801435075 3.989108245127732e-08 -1.276242582091677e-05)
(-0.2865420065483751 4.422768097284301e-09 -1.276238984528335e-05)
(-0.2865394325754818 -2.591407088900363e-08 -1.276242850629783e-05)
(-0.2865446130634317 5.204952169758665e-07 -1.27623148094768e-05)
(-0.2865588009166629 3.359248144219272e-07 -1.276207140329968e-05)
(-0.2865581297668368 -1.23663270530007e-07 -1.276205065900171e-05)
(-0.2865588640924686 2.070347301326291e-08 -1.276203213005251e-05)
(-0.2865579653430692 4.46383120216123e-08 -1.276203949551733e-05)
(-0.2865583243097026 -5.940937744098299e-08 -1.276201292656685e-05)
(-0.2865584425390987 -1.51719816565495e-08 -1.276199598142933e-05)
(-0.2865582211034914 6.631403540628722e-08 -1.276199638905659e-05)
(-0.2865579437318573 -7.990495178736442e-08 -1.276197827397775e-05)
(-0.2865586161963404 -1.226336444186919e-08 -1.276195129189603e-05)
(-0.2865579047524663 4.49454255087692e-08 -1.27619574575658e-05)
(-0.2865580419526683 -9.042392781877807e-08 -1.2761929349802e-05)
(-0.2865584505560436 -4.006030752526862e-08 -1.276190261687392e-05)
(-0.2865582466781961 2.404568142060391e-08 -1.276189744630473e-05)
(-0.2865589428646657 -1.217484673383786e-07 -1.276186643477427e-05)
(-0.2865598755341104 -1.611950351823089e-07 -1.276186781448835e-05)
(-0.2865446513877553 -1.227416618995446e-07 -1.276217227516623e-05)
(-0.2865424290868647 -7.053654732971491e-08 -1.276218874689207e-05)
(-0.2865398547227159 -9.642535856483019e-08 -1.276219849988677e-05)
(-0.2865414791439337 4.067717581925821e-08 -1.276215896040205e-05)
(-0.2865424868769841 3.136662077106197e-08 -1.276213795419287e-05)
(-0.2865392954911199 -9.2728205363246e-08 -1.276217661115468e-05)
(-0.2865418068253628 6.16405019419805e-08 -1.276211879300123e-05)
(-0.2865420962637268 1.948074970574362e-08 -1.276211537775586e-05)
(-0.2865395604190618 -8.176560525676197e-08 -1.276214142034734e-05)
(-0.2865415251927093 5.547349823306049e-08 -1.276209639526006e-05)
(-0.2865422910125876 2.698871217568209e-08 -1.276208489799642e-05)
(-0.2865393718694487 -8.55694025719979e-08 -1.276211997017346e-05)
(-0.286541664994209 5.950897613523244e-08 -1.276207051086947e-05)
(-0.2865421641243862 2.404403144849629e-08 -1.276206576845574e-05)
(-0.2865394688179103 -8.347826382845611e-08 -1.276209911902582e-05)
(-0.2865415755928593 5.767027104565239e-08 -1.276205529541271e-05)
(-0.2865422276511064 2.564979053591455e-08 -1.276205113085433e-05)
(-0.2865394045452134 -8.457306356369266e-08 -1.27620900187664e-05)
(-0.2865416178524502 5.851076462530034e-08 -1.276204900114325e-05)
(-0.2865421821903969 2.46660015321893e-08 -1.2762051077409e-05)
(-0.2865394322375004 -8.414024879570011e-08 -1.27620953197894e-05)
(-0.2865415835541505 5.796139781903674e-08 -1.276206223566133e-05)
(-0.2865421981561814 2.495763440313075e-08 -1.276207365930551e-05)
(-0.2865394027295248 -8.490233526201031e-08 -1.276212913088708e-05)
(-0.2865415871289903 5.784300528299412e-08 -1.276211358492555e-05)
(-0.2865421710989776 2.41101892594554e-08 -1.276214184018152e-05)
(-0.286539402433176 -8.487814690414898e-08 -1.276223714764744e-05)
(-0.286541561603304 5.896136088586274e-08 -1.276223335331789e-05)
(-0.22579141026145 1.112463891504896e-08 -1.384764171912733e-05)
(-0.2257897107736957 -8.033905710376214e-08 -1.384805297621621e-05)
(-0.2257913349147395 6.453757652707229e-08 -1.384769459482275e-05)
(-0.2257913973113023 8.210523687696054e-09 -1.3847887323398e-05)
(-0.2257896816567543 -8.093692029520123e-08 -1.384773793109001e-05)
(-0.2257912924689325 6.251718246797723e-08 -1.384779626345229e-05)
(-0.2257913509105642 5.472579620089345e-09 -1.384770525017454e-05)
(-0.2257896272338145 -8.37117369605951e-08 -1.384777277328966e-05)
(-0.2257912314998758 5.841404295577818e-08 -1.384767395522668e-05)
(-0.225791279876842 2.871333322179295e-11 -1.384770547119993e-05)
(-0.2257895573237679 -9.069283156082238e-08 -1.384768115564604e-05)
(-0.2257911752624132 4.964669025112492e-08 -1.384765202507582e-05)
(-0.2257913187825979 -1.520946425594932e-09 -1.384762716976067e-05)
(-0.2257899010174685 -2.524769337833901e-08 -1.384764046766561e-05)
(-0.2257931130135676 2.558440533913255e-07 -1.384756198029261e-05)
(-0.2257968359186056 5.359474394509492e-08 -1.384750753971934e-05)
(-0.2257962086198615 -9.338684395252009e-08 -1.384748436859826e-05)
(-0.2257973513659693 6.492739987458e-08 -1.384745380540639e-05)
(-0.2257966784949174 -1.016779237186069e-09 -1.384745943111324e-05)
(-0.225796301785298 -6.57453331414269e-08 -1.384744441209496e-05)
(-0.2257969850816495 3.33191240569554e-08 -1.384741435378536e-05)
(-0.2257969044568888 2.139339542661777e-08 -1.384741307928717e-05)
(-0.2257959498929288 -8.782513074293826e-08 -1.384740677456156e-05)
(-0.2257971415590594 3.747335922068123e-08 -1.384736698683306e-05)
(-0.2257966042684912 -1.224434216376372e-09 -1.384737118631465e-05)
(-0.225796057270919 -9.488128463199179e-08 -1.384735441046289e-05)
(-0.2257970118282794 1.597287692884589e-08 -1.384731328741957e-05)
(-0.2257970345148509 4.00763703014927e-09 -1.384730244179065e-05)
(-0.2257972055565432 -1.105731422209613e-08 -1.384727553112023e-05)
(-0.2258000703233569 2.011830859121451e-07 -1.384723604364606e-05)
(-0.2257947187675456 8.512045687990201e-09 -1.384737190615593e-05)
(-0.2257917979848609 -1.667677711241612e-07 -1.384740876125931e-05)
(-0.2257901603096518 -9.960634428256777e-08 -1.384739714304822e-05)
(-0.2257912986261635 4.625676380509896e-08 -1.384736196607086e-05)
(-0.2257917482928492 1.629282399045004e-08 -1.384735176288938e-05)
(-0.2257896470252051 -8.786841172771137e-08 -1.384737011712799e-05)
(-0.2257915860531023 6.999654618168279e-08 -1.384731916576134e-05)
(-0.2257913674380463 3.54255590581316e-09 -1.384732557184137e-05)
(-0.2257898932420442 -7.486677247327554e-08 -1.384733206161922e-05)
(-0.2257913165583274 6.271607553395058e-08 -1.384729315455125e-05)
(-0.2257915552793118 1.285961321380497e-08 -1.384729202267581e-05)
(-0.2257897115126789 -7.953842703895034e-08 -1.384730715593923e-05)
(-0.2257914521711684 6.784174877760002e-08 -1.384726413297059e-05)
(-0.2257914303385979 9.077354346783403e-09 -1.384726950037389e-05)
(-0.2257898036343363 -7.687213160217227e-08 -1.384728301367983e-05)
(-0.2257913634859073 6.544976355743733e-08 -1.384724535469283e-05)
(-0.2257914918105584 1.120240004701322e-08 -1.384725126052936e-05)
(-0.225789741300658 -7.824929383468631e-08 -1.384727007328107e-05)
(-0.22579140475354 6.657510027928827e-08 -1.384723513298437e-05)
(-0.2257914469383138 9.897863542007284e-09 -1.384724702011011e-05)
(-0.2257897671864701 -7.771928181275899e-08 -1.384727103723258e-05)
(-0.2257913701949156 6.582691708656016e-08 -1.384724365142306e-05)
(-0.2257914615154591 1.03380665275478e-08 -1.384726491975281e-05)
(-0.2257897385142215 -7.860681241883719e-08 -1.384729967757384e-05)
(-0.2257913742628242 6.578523697138822e-08 -1.384729122329829e-05)
(-0.2257914357710953 9.379258933578512e-09 -1.384732918148052e-05)
(-0.2257897388057911 -7.853818345462566e-08 -1.384741454691758e-05)
(-0.225791353816567 6.641771458326605e-08 -1.384742595767815e-05)
(-0.1793154809585453 -1.353566497793633e-08 -1.467420626980642e-05)
(-0.1793142954873608 -7.482972634697827e-08 -1.467457067834204e-05)
(-0.1793156340703351 8.215527025050003e-08 -1.467424697760416e-05)
(-0.1793154538046732 -1.627110175532417e-08 -1.46744150507498e-05)
(-0.1793142687908135 -7.566427531125627e-08 -1.467427600161553e-05)
(-0.1793155919171657 7.976864262246567e-08 -1.467431970908399e-05)
(-0.179315408475668 -1.931566328121236e-08 -1.467424486647374e-05)
(-0.1793142154915959 -7.885335044823582e-08 -1.467429328422216e-05)
(-0.1793155311294216 7.527618115830937e-08 -1.467420339433152e-05)
(-0.1793153395024116 -2.480679093188253e-08 -1.467423384421634e-05)
(-0.1793141510714306 -8.536870388870813e-08 -1.467420404555344e-05)
(-0.1793154815625194 6.960442982007657e-08 -1.467417342915064e-05)
(-0.1793154077020463 -1.492350409745139e-08 -1.46741543729546e-05)
(-0.179314569618067 8.012032518413962e-10 -1.467415413041699e-05)
(-0.1793169508665903 1.80594042121388e-07 -1.467409057885434e-05)
(-0.1793168709551592 -7.448126425142084e-08 -1.467410505099632e-05)
(-0.1793163127341193 -7.505652972309562e-08 -1.467407993036232e-05)
(-0.1793175048798184 9.160920812635923e-08 -1.467404398781898e-05)
(-0.1793169240367956 -3.536593633771457e-08 -1.467404972645196e-05)
(-0.1793163395726365 -6.472113479958058e-08 -1.467403768246016e-05)
(-0.1793171906313742 6.354264873859973e-08 -1.46740019719705e-05)
(-0.1793171234274368 -1.260078659243972e-08 -1.467400095905827e-05)
(-0.1793160201761419 -8.832563613360156e-08 -1.467399766925405e-05)
(-0.1793173259453169 6.858456440121064e-08 -1.467395281785322e-05)
(-0.1793168386428256 -3.593406365951072e-08 -1.467395700197257e-05)
(-0.1793161313093891 -9.144379072348021e-08 -1.467394316583034e-05)
(-0.1793172248943537 5.521340918011537e-08 -1.467389588965046e-05)