/*--------------------------------*- C++ -*----------------------------------*\
| =========                 |                                                 |
| \\      /  F ield         | OpenFOAM: The Open Source CFD Toolbox           |
|  \\    /   O peration     | Version:  v1812                                 |
|   \\  /    A nd           | Web:      www.OpenFOAM.com                      |
|    \\/     M anipulation  |                                                 |
\*---------------------------------------------------------------------------*/
FoamFile
{
    version     2.0;
    format      ascii;
    class       volVectorField;
    location    "10000";
    object      wallShearStress;
}
// * * * * * * * * * * * * * * * * * * * * * * * * * * * * * * * * * * * * * //

dimensions      [0 2 -2 0 0 0 0];


internalField   uniform (0 0 0);

boundaryField
{
    inlet
    {
        type            cyclic;
    }
    outlet
    {
        type            cyclic;
    }
    bottomWall
    {
        type            calculated;
        value           nonuniform List<vector> 
58
(
(-0.005141810876032308 1.823906305054276e-09 9.151768725717387e-08)
(-0.005141752000333618 3.937875297156092e-10 9.152029386207951e-08)
(-0.005141798976229553 -2.105361476337881e-09 9.151644947035042e-08)
(-0.005141796199826604 1.619724153229453e-09 9.152009808997696e-08)
(-0.005141746294084875 4.009404906732848e-10 9.151590265169481e-08)
(-0.005141799993898527 -1.992299323688196e-09 9.151937799106535e-08)
(-0.005141796373796308 1.610786713376087e-09 9.151713343077355e-08)
(-0.005141747778552881 4.170284500105416e-10 9.151767257702897e-08)
(-0.005141802306350697 -1.978542712803011e-09 9.151742859143925e-08)
(-0.005141799170722803 1.625218448630528e-09 9.151812210046341e-08)
(-0.005141750995022711 4.748085975244639e-10 9.151643151304026e-08)
(-0.005141806712815173 -1.639377499257737e-09 9.151794593392605e-08)
(-0.005141793826776341 2.230880195280574e-09 9.151719808267788e-08)
(-0.005141751942575256 -3.463498767825226e-09 9.151700111140876e-08)
(-0.005142114152349441 -4.634596512828728e-09 9.152418113172505e-08)
(-0.00514447530149459 7.213589463231458e-09 9.156582800593828e-08)
(-0.005144403518688302 4.062164871983311e-09 9.156346774266381e-08)
(-0.005144311066833434 -2.644983003609908e-09 9.156196046355058e-08)
(-0.005144247761477361 1.05730767335794e-09 9.156072312368073e-08)
(-0.005144414699511897 8.900781635797746e-10 9.156359332161339e-08)
(-0.005144324235303156 -1.733521382160663e-09 9.156176292587605e-08)
(-0.005144239845595905 8.376915819746379e-10 9.156033949736875e-08)
(-0.00514442420681866 9.760711189512929e-10 9.15634026476577e-08)
(-0.005144321346959817 -1.724501950009789e-09 9.156143886374549e-08)
(-0.005144249116747978 9.342241748276968e-10 9.156017594792101e-08)
(-0.005144430370845416 1.07204688956023e-09 9.156320904184621e-08)
(-0.005144341780322793 -1.855655937869479e-09 9.156150544302591e-08)
(-0.0051442852605448 1.635907030184472e-10 9.156054543692766e-08)
(-0.005144461554536205 9.465438195334672e-10 9.156330470238415e-08)
(-0.005143897326922412 2.951702145686003e-09 9.155271015864813e-08)
(-0.005141638569412097 -2.441971020585375e-09 9.151278880089757e-08)
(-0.005141836992622608 -3.87087349426547e-09 9.151668971362573e-08)
(-0.005141729847716114 4.121778787290405e-10 9.151456710530093e-08)
(-0.005141805814481913 -1.895178075822183e-09 9.151597431801057e-08)
(-0.005141788601003075 1.555968836011306e-09 9.151551235832466e-08)
(-0.005141749331677273 4.250594717029296e-10 9.151471805860467e-08)
(-0.005141795047215458 -2.008244623840536e-09 9.151557655826042e-08)
(-0.005141796889282817 1.610722755289657e-09 9.151548205229586e-08)
(-0.005141743548831569 4.037337555497535e-10 9.151443463131935e-08)
(-0.005141800783393599 -2.003548606867474e-09 9.151551129563007e-08)
(-0.005141793224255987 1.606464345937629e-09 9.151526957768967e-08)
(-0.005141747060820196 3.935996709068859e-10 9.151437131206841e-08)
(-0.005141797507481756 -2.002403045062078e-09 9.151536668365452e-08)
(-0.005141795368090583 1.60444775803925e-09 9.151523194132046e-08)
(-0.005141745028020315 4.047814830331269e-10 9.151429689930652e-08)
(-0.005141799860502078 -2.004145720801085e-09 9.151537786872631e-08)
(-0.00514179418737883 1.604890289505041e-09 9.151524438381965e-08)
(-0.005141746429599527 3.949455023650446e-10 9.151439105980525e-08)
(-0.005141798150774066 -2.002381021766786e-09 9.151550512438581e-08)
(-0.005141795096078179 1.60603806959682e-09 9.151545522084845e-08)
(-0.005141745545455421 4.034680818081142e-10 9.151466010616303e-08)
(-0.005141799775250847 -2.000287710496519e-09 9.151586354360174e-08)
(-0.005141795131828301 1.596614886923477e-09 9.151588615199978e-08)
(-0.005141745589519393 4.016013088191142e-10 9.151516938529792e-08)
(-0.005141798962925857 -1.996633713554884e-09 9.151640036901711e-08)
(-0.005141795189133973 1.551669020368145e-09 9.151637456870883e-08)
(-0.005141741755685257 2.455103495674119e-10 9.151533653586602e-08)
(-0.005141788445579004 -1.967129401064414e-09 9.151594852826145e-08)
)
;
    }
    topWall
    {
        type            calculated;
        value           nonuniform List<vector> 
58
(
(0.0008837880729596141 -1.342942061392104e-12 5.926904152269556e-08)
(0.0008837880617899436 1.388848718107007e-12 5.926870194855325e-08)
(0.0008837880967516891 -1.456984443896447e-13 5.926922931054661e-08)
(0.0008837881007572583 9.772244628196973e-13 5.926900313141595e-08)
(0.0008837881368808308 5.020847887250685e-13 5.926946335334018e-08)
(0.0008837881441243504 -4.676748998252277e-13 5.926913035712978e-08)
(0.0008837881430941783 5.863208928226028e-13 5.926958458567703e-08)
(0.000883788156505689 -3.839071351196631e-13 5.926918404945529e-08)
(0.000883788144091841 -8.949714747163909e-13 5.926966050327522e-08)
(0.0008837881115077377 -8.769024699965459e-13 5.926920349712446e-08)
(0.0008837880888131209 -7.048984428250185e-13 5.926971497927222e-08)
(0.0008837880495774931 -2.261446444173485e-12 5.926920404951861e-08)
(0.0008837879772717021 -7.369190342408084e-13 5.926975897742412e-08)
(0.0008837879681210619 -2.199655335246179e-13 5.926919352400906e-08)
(0.0008837879353944242 -1.160157221675976e-12 5.926979814378858e-08)
(0.0008837879294608192 2.626807354029286e-12 5.926917614697631e-08)
(0.0008837879941632696 -3.585153650799388e-14 5.926983562615921e-08)
(0.000883787998044969 1.419008349177857e-12 5.926915405198587e-08)
(0.0008837880396371687 3.167084052072056e-13 5.926987324875986e-08)
(0.0008837880516147272 3.348935775407139e-13 5.926912850845451e-08)
(0.0008837880543934217 -1.345647892686462e-12 5.926991181503425e-08)
(0.0008837880011119763 -1.598355888180461e-12 5.92691003367993e-08)
(0.000883787947090567 -2.504732302151504e-12 5.926995171282045e-08)
(0.0008837878300202428 -5.151007051814424e-12 5.926906997418587e-08)
(0.0008837876564534762 -4.72024551360538e-12 5.92699929851934e-08)
(0.000883787461608951 -6.869228715676945e-12 5.9269037871908e-08)
(0.0008837872181768426 -6.867303996435375e-12 5.927003526552847e-08)
(0.000883786950767611 -6.46288881223402e-12 5.926900435538867e-08)
(0.0008837867516593519 -2.494921389011183e-12 5.927007792645827e-08)
(0.000883786628376527 -1.846074445425157e-12 5.926896936646391e-08)
(0.0008837866189806724 6.413555800704396e-12 5.927011975413919e-08)
(0.0008837868091777234 6.111248453048248e-12 5.926893278398323e-08)
(0.0008837870292769678 8.222208442752531e-12 5.927015922310677e-08)
(0.0008837872923002376 6.269025634493134e-12 5.926889516927406e-08)
(0.0008837875071693859 5.459059134721668e-12 5.927019556776988e-08)
(0.0008837876997371916 4.575457372152216e-12 5.926885765936931e-08)
(0.0008837878478596196 1.456268227416384e-12 5.927022808270775e-08)
(0.0008837879202096616 2.552506501923258e-12 5.926882148838233e-08)
(0.0008837880147465744 4.103146045019641e-13 5.927025594436138e-08)
(0.0008837880344606628 1.765477592631099e-13 5.926878769426966e-08)
(0.0008837880581142881 -1.605761778669829e-14 5.927027820848955e-08)
(0.0008837880663563068 2.472720258453218e-13 5.926875734692268e-08)
(0.0008837880793783257 -1.117032842262301e-12 5.927029374169693e-08)
(0.0008837880490834295 3.075765371229263e-13 5.926873142692008e-08)
(0.0008837880736442543 -2.967260307002697e-13 5.927030159459605e-08)
(0.0008837880504023571 -7.378428173892922e-13 5.926871072878035e-08)
(0.0008837880461315187 1.242801854165227e-13 5.92703007982989e-08)
(0.0008837880426976164 -2.702392025484112e-14 5.92686963161381e-08)
(0.0008837880494184583 -6.785464646682894e-13 5.927028993878981e-08)
(0.0008837880226056993 3.075643507570727e-13 5.926868985353845e-08)
(0.0008837880493451715 1.992693826741279e-13 5.927026676560131e-08)
(0.0008837880347801355 -6.878796561802521e-13 5.926869436066316e-08)
(0.000883788036468937 6.99414149868424e-13 5.927022708026206e-08)
(0.0008837880455558152 -2.220973150729381e-14 5.926871675989657e-08)
(0.0008837880558171361 -8.81662658616174e-14 5.927015569992019e-08)
(0.0008837880462677364 1.896507802963696e-13 5.926870537130957e-08)
(0.0008837880661012914 7.519189105442925e-13 5.927001961479215e-08)
(0.0008837880914680043 9.62599269026565e-14 5.926943626420792e-08)
)
;
    }
    left
    {
        type            cyclic;
    }
    right
    {
        type            cyclic;
    }
}


// ************************************************************************* //
