/*--------------------------------*- C++ -*----------------------------------*\
| =========                 |                                                 |
| \\      /  F ield         | OpenFOAM: The Open Source CFD Toolbox           |
|  \\    /   O peration     | Version:  v1812                                 |
|   \\  /    A nd           | Web:      www.OpenFOAM.com                      |
|    \\/     M anipulation  |                                                 |
\*---------------------------------------------------------------------------*/
FoamFile
{
    version     2.0;
    format      ascii;
    class       volVectorField;
    location    "0";
    object      U;
}
// * * * * * * * * * * * * * * * * * * * * * * * * * * * * * * * * * * * * * //

dimensions      [0 1 -1 0 0 0 0];


internalField   nonuniform List<vector> 
3770
(
(-0.7334632090676279 0.001699513512726327 0.03208455854612725)
(-0.6882975306925169 0.008208114002725017 -0.004366273858994179)
(-0.7958310767716058 0.003471643079474359 0.02459320781716742)
(-0.722363761040535 -0.003322458798164549 0.00500025795903108)
(-0.7844898891202141 -0.002716852149629529 0.06967488553299367)
(-0.7941857033838776 0.0003354858683547509 0.06221667647027033)
(-0.8812436202100136 0.01069479298632602 0.01544055561987921)
(-0.6935665773934152 -0.02561705533457026 0.08241589660352105)
(-0.6137794756613764 -0.01542684572294546 -0.05244466768609006)
(-0.6377239003446395 0.01989997749794174 -0.09903206008446316)
(-0.6790620131336251 -0.01179538447030578 -0.0906001507169885)
(-0.7257088162427481 0.002859960321151796 -0.05690208673117705)
(-0.7204651479382047 0.001549108241665396 -5.726908880680955e-05)
(-0.7271102307026225 0.001867675976457505 0.01715181309486531)
(-0.665124911104477 -0.001183778677470387 -0.003955660214855194)
(-0.7180153559627633 0.01247136641552435 0.01477093391476752)
(-0.6381401073778391 0.006125246265375243 0.02128362047535463)
(-0.658262367150235 -0.01085681818110667 -0.03010171057976417)
(-0.6806774842265287 0.004076027710843052 -0.01274452264875679)
(-0.6218909747903036 -0.009659324866850651 -0.0215500646775986)
(-0.6578183170220202 -0.01115626269010782 -0.0004237519925249138)
(-0.5966041636796657 -0.01917564279992211 -0.02546917169474037)
(-0.6193989669211675 -0.01336702576277601 -0.02664587550536116)
(-0.6407493919722534 0.0126599553209554 -0.05651191875771552)
(-0.693767189112348 -0.006603007000582578 -0.08032635673136602)
(-0.6211854377725121 -0.0005135517306166849 -0.07812734369555693)
(-0.6777055227818891 0.0004653517455846939 -0.093688747816182)
(-0.6411964079194235 0.01671005503620801 -0.01386017329206258)
(-0.7098087597761471 -0.006240553535719502 -0.01034053052976778)
(-0.7581086467221149 -0.004669148930826691 -0.05552244138577539)
(-0.6798861447838603 -0.001140451574760255 -0.06711809925941545)
(-0.6891736338059558 0.002066054582246049 -0.1008818666989455)
(-0.6500751729546754 -0.009419145602691071 -0.04869255030937487)
(-0.6995799179922545 -0.00992996002416383 0.01366779316041106)
(-0.7141964198017179 0.00272428681487289 -0.05130100901711233)
(-0.7305008810638869 -0.01030810051620818 -0.04564813410231915)
(-0.6476310206586378 -0.01343301012351923 0.007026219894330931)
(-0.5716650564471579 -0.01970738301003969 0.009795000596225761)
(-0.6058936286270036 -0.01378917681975356 -0.01874521917333027)
(-0.6564306951831 -0.003977462273647051 0.02304890564458578)
(-0.5975263074207037 -0.01060836065810786 0.02134036209220446)
(-0.6237869675587711 0.0006421960292539203 0.02149434073728242)
(-0.6360571657794034 0.01036686231900693 0.01099866861377756)
(-0.5890622221864914 0.001800277698634913 0.02970426147128816)
(-0.6308825070329654 -0.02075464993700199 -0.02296694202607515)
(-0.7170993722390883 0.00199898883826225 -0.07954451199157443)
(-0.7783920836226268 -0.00531831005274854 -0.01902001211903549)
(-0.8226805919443958 0.001077885284032665 0.01795925198164959)
(-0.8058568191547383 0.006808588914157393 -0.02390853425737644)
(-0.7208842350596445 -0.001035349458576339 -0.06111145365617828)
(-0.7086714377471619 0.0008245651342005715 -0.06294214142217922)
(-0.5587124401995573 -0.01104501097035811 -0.07454619542863208)
(-0.5865258381137358 0.000690311814764259 0.02120732018298158)
(-0.5394130894780882 -0.02521780875621853 -0.02785434091812184)
(-0.6426217398825501 -0.01921902486549843 0.01746056147850552)
(-0.7700581374369503 0.008381995625645386 -0.01895079146277157)
(-0.7313490220865118 -0.005691347078283179 0.0094048361049562)
(-0.7541511135453705 -0.003487315263142337 0.05510469236598053)
(-0.723027353909096 0.002337676125815966 0.03690160653235738)
(-0.6736634820422318 0.007838887412497482 -0.003149729596986052)
(-0.7896192572054996 0.003527664233576561 0.02434949735787421)
(-0.7133461151999385 -0.004168663199264452 0.007355418307149941)
(-0.7760699204143893 -0.002911679703815191 0.07048888957204651)
(-0.7862157029323529 0.001856129695324143 0.06039559833024854)
(-0.8710869548379705 0.01197125228233627 0.01306018517562819)
(-0.6906850692354537 -0.02330502342033819 0.07935073852255461)
(-0.6050819365099458 -0.01568936881927302 -0.05290209606835946)
(-0.6225971434396426 0.01860129340433304 -0.1014250598691795)
(-0.6669186368130751 -0.01144904116116041 -0.09403477559843697)
(-0.7175988972435711 0.002634070521394301 -0.05452481563147713)
(-0.7142241704206227 0.002882925707192996 -0.001991227853750395)
(-0.718955927865655 0.002604441760474607 0.01812091494330897)
(-0.6535355447234179 -0.0001026645767752228 -0.009399876225324741)
(-0.6980712138857583 0.01184780457734023 0.01163051555451234)
(-0.6288278574731969 0.005154097956627965 0.02430762643920246)
(-0.6445116299781284 -0.01109220617692662 -0.02891825303900292)
(-0.6624845680711303 0.0043158036451666 -0.009342657212031737)
(-0.6063438569939676 -0.009350821458463528 -0.02186671259694672)
(-0.6493997761673507 -0.01179178629282822 -0.002048261727981518)
(-0.58872203640677 -0.01974803636132414 -0.02623412541364941)
(-0.6073892296684626 -0.01385236429686448 -0.02676003382975323)
(-0.6250387669933335 0.009758408924061667 -0.05449876517094637)
(-0.6731478093022967 -0.006873768771452656 -0.07804878233728386)
(-0.6066966853555888 -0.0013555058727896 -0.08337211459304628)
(-0.6669895984621148 0.001012145791378059 -0.0971368755708229)
(-0.6290437129208442 0.01471046095937639 -0.01880024423175027)
(-0.6908342197467174 -0.005455932617298021 -0.007177272791672986)
(-0.7508093262164612 -0.00383788376106468 -0.05497455311076543)
(-0.6681970677054524 -0.001073447974600223 -0.06948062116396071)
(-0.6829284267217987 0.0003712298243512338 -0.1018677513531243)
(-0.6353996198933306 -0.009246482505205478 -0.04972664581051806)
(-0.6876675856037476 -0.007985462348470536 0.01429246065943163)
(-0.7029254993684226 0.002964222716106065 -0.05119607302230728)
(-0.7233180153254319 -0.01001976512661561 -0.04763383626532838)
(-0.643945352112806 -0.01364542381343863 0.005427621060596736)
(-0.5645897601404002 -0.02065843478899081 0.009444731883592546)
(-0.5878179082282778 -0.01366259091930327 -0.02012362377727624)
(-0.6484277587919575 -0.004374153122251872 0.0248860114930233)
(-0.5871806220202344 -0.01091792826914072 0.01956606780797963)
(-0.6131081368660257 0.0003071903009459493 0.02178546963822053)
(-0.622787779447981 0.009629260811964125 0.010570308838486)
(-0.5774097096642422 0.002308668412672386 0.02842748703930283)
(-0.6215513350581306 -0.02122684397246121 -0.02033565122283471)
(-0.7048026609192924 0.001529850510824677 -0.0789645084856061)
(-0.7701689777641064 -0.004423601208205677 -0.02033740145688854)
(-0.821140285000841 0.001525247685996201 0.01820692795303253)
(-0.7998706573033645 0.007646960290690041 -0.02651179423735212)
(-0.7083736710591616 -0.002354173818282722 -0.06134228585993108)
(-0.7074161622387602 0.001138056549674446 -0.0605679616389755)
(-0.5495592441054225 -0.01213592831397165 -0.07570207942654242)
(-0.5691629044734624 -7.985528764662807e-05 0.02042290113252467)
(-0.5242550913888308 -0.02638450924536456 -0.02618726094086895)
(-0.6317989068755522 -0.0192584625848302 0.01691595569202782)
(-0.7607651763804961 0.008023545736771203 -0.01879523688779516)
(-0.7196940933065384 -0.00559465258467756 0.008920412962913446)
(-0.7394811654730257 -0.004317147636167005 0.05539368970147144)
(-0.5447323986143284 0.01097855118668527 0.09514393182745892)
(-0.4120072077695619 -0.004148427279245155 0.03611185999661362)
(-0.5785693972930555 -0.0001193781916912638 0.03294751680229949)
(-0.5376060926394405 -0.01947581417361555 0.05423979260293154)
(-0.6319035338630462 -0.004805995965495495 0.07263038249073001)
(-0.631349724130393 0.02652777817356053 0.02961703167395061)
(-0.6337591258378591 0.03768311212618752 -0.0250243257292001)
(-0.5939232428396648 0.0202164058734124 0.02253092042927206)
(-0.4398504713924707 -0.01513879186539199 -0.05642651743464699)
(-0.3693791032446303 -0.001287711760487207 -0.1342167301719016)
(-0.4393935407235025 -0.0147597988455203 -0.1400493681867965)
(-0.5352738976847932 -0.002070963414549393 -0.02582668132605598)
(-0.5169167652233195 0.02319185396777874 -0.03532308860246854)
(-0.5260795844549117 0.007125052504820716 0.01803877350678041)
(-0.4454588661984676 0.0112242922357779 -0.05982623305107075)
(-0.3876582275211782 -0.0002566990618759789 -0.04765677466169728)
(-0.4380174320152058 -0.00777488457409091 0.05263642296109478)
(-0.3273457942978704 -0.02210871332420574 -0.0008460886292345291)
(-0.3543590377971744 0.004291866054147528 0.03735815354276113)
(-0.3625552848258764 -0.002592666687483049 -0.0186108453249687)
(-0.5198607577426799 -0.02093520051806493 -0.02382259508966348)
(-0.3905468658908215 -0.02973399471343458 -0.04145753231629238)
(-0.3665818267621168 -0.03028813180792566 -0.0377722661680122)
(-0.3807515327133483 -0.02988722051623063 -0.0006276476800800507)
(-0.3530168637751267 -0.002290295602278265 -0.04446389810170547)
(-0.3930807589140013 -0.008877619820200666 -0.1398631757693622)
(-0.3907116295822886 -0.0003853789786010548 -0.1646059815611881)
(-0.3769981510829924 -0.01961307832038207 -0.1298627417057277)
(-0.3908307034760919 -0.001915299771013663 0.02668997523686302)
(-0.6130866835281331 0.008115935995728994 -0.06056372066326521)
(-0.4299806853967573 -0.0008398807710436424 -0.138731517782863)
(-0.5516997549473428 -0.02964440693956772 -0.1139238355041969)
(-0.3802567459074149 0.0008615051052277536 -0.06103755323775417)
(-0.4743721468683507 0.01676998762569516 0.00483518032274973)
(-0.5200029500563501 0.01418198481718755 -0.0510999554656598)
(-0.5649134472843654 -0.0008991012417351398 -0.08744178436683916)
(-0.5254347857283668 -0.01665026205232458 -0.02783143606314561)
(-0.4412222526549554 -0.03888251947134898 0.004239057330753797)
(-0.3014291178253896 -0.01363961054347858 -0.03029453185039023)
(-0.4918589353811723 -0.007332503390001687 0.04610990097110075)
(-0.3631539449778496 -0.01676565468090579 -0.01303197867812853)
(-0.3550191489422437 -0.01022241393929665 0.01963290455338467)
(-0.3736979818007196 -0.006057897274629473 -0.006217901716613346)
(-0.3674257899540441 0.005631777911045056 0.01081062743191207)
(-0.4569159392283683 -0.02321308761143364 0.006859342255902921)
(-0.4096354811954251 -0.006246762890960746 -0.06195984085619862)
(-0.5946439279488556 0.01656680779351099 -0.05202986388305009)
(-0.7178423388702003 0.009792397765256101 0.03201066417552794)
(-0.672328026371355 0.02421287856908411 -0.05195903516975759)
(-0.492109286469762 -0.01507441021175698 -0.06001665524441714)
(-0.6194419083167022 0.01264270334750226 0.02308867508864297)
(-0.3627844688333763 -0.02441349928018855 -0.08143284813992877)
(-0.3107635088784971 -0.005352822060505388 -0.01842090679033334)
(-0.2722824099718881 -0.04244955937576289 0.004752584925304517)
(-0.4075375231555441 -0.01389809784147801 0.02078430338538348)
(-0.546066948355551 0.002403763544768582 -0.0120088327774343)
(-0.5251850268914483 0.002642195137120161 -0.005366583576312374)
(-0.5297923265672448 -0.003509102534781681 0.05281391089470441)
(-0.5243946039439641 0.01294876641772042 0.1019388966756197)
(-0.3930683404158739 -0.00564918795881619 0.04081618613897443)
(-0.5649513597826776 -0.0006512817896366281 0.0346059532879513)
(-0.5246742690711996 -0.02071819044753453 0.05785043011220794)
(-0.611125480142133 -0.005977972496021083 0.07206139702496812)
(-0.6167724819274715 0.02978069160293428 0.02802100341265023)
(-0.6148161238775391 0.04006322756197579 -0.02821126570357951)
(-0.5882649614346922 0.02240601119777142 0.01723462568679)
(-0.4255141441744411 -0.01449546998789376 -0.05672374831621901)
(-0.3459541796171208 -0.00299607646469623 -0.1382540071787478)
(-0.4150166516645425 -0.01494299577575494 -0.1451579703150077)
(-0.5208767257910216 -0.003369681195496599 -0.02406591223686335)
(-0.5030417496472058 0.02400239049188412 -0.03705301965331929)
(-0.5088697548953387 0.007593462748641142 0.01692609552952056)
(-0.4236724298988448 0.01290495465827873 -0.06611824286672593)
(-0.3569774916674694 -0.001751352570202093 -0.0532832741568884)
(-0.4240877998007326 -0.008502153949909826 0.05243039519798091)
(-0.3060859065359747 -0.02331348505018149 0.001764486388404853)
(-0.3220252049026368 0.003325152222211967 0.0400811006140693)
(-0.3355773139144907 -0.001763470384956202 -0.01719155914011844)
(-0.5098341842208278 -0.02205267977288121 -0.02699530519040147)
(-0.3783379734391606 -0.03034949525197015 -0.04137193132399909)
(-0.3501586386357728 -0.03203377287419776 -0.03948686196807132)
(-0.3555731749760458 -0.03388272072351091 0.004970810570950534)
(-0.3181417497241472 -0.003519675032084208 -0.0389126233757105)
(-0.3745665141240573 -0.009568573727440029 -0.1416363425258023)
(-0.3757166244368244 -0.0006155192509665554 -0.1667251362809198)
(-0.358934811831369 -0.02385903138380094 -0.1386157212197749)
(-0.355682702746069 -0.001108332621165907 0.02861568858743806)
(-0.5981398099138827 0.009750235980207689 -0.06356842078476628)
(-0.4141394703397001 0.0003100416929263275 -0.1433834194536957)
(-0.5460841998170289 -0.03065159004713356 -0.1126457242106987)
(-0.3609565931437967 0.00227112006428302 -0.06162429446068952)
(-0.448772029219877 0.0201333535793904 0.002713571247998496)
(-0.5020999548364398 0.01579682326149892 -0.05093097049225788)
(-0.5534121943761408 -0.0002434216130953134 -0.09123038837576888)
(-0.5202499140270551 -0.01696684989544877 -0.02887538343382291)
(-0.4312629651459735 -0.04046445910804327 0.003630980988343256)
(-0.2698713928161687 -0.01408180944490131 -0.03229575799947033)
(-0.4740998688530081 -0.007387803238004357 0.04727979259283731)
(-0.348707062254017 -0.01689789710492614 -0.01512339291983022)
(-0.3398756825527692 -0.01106736680815217 0.01864126753241725)
(-0.3512690605243656 -0.00768965751515481 -0.008668747807750236)
(-0.3473142556484213 0.006172015727150493 0.009273091774666228)
(-0.4413051952512662 -0.0250685350604077 0.01181802894874369)
(-0.3910879189265671 -0.007188980524943895 -0.06059664717207863)
(-0.5800309407069744 0.01853093124313011 -0.05480295303372628)
(-0.7068765732484076 0.01033895258759085 0.03437897089938353)
(-0.6560924064542534 0.02539175579024527 -0.0540883212584866)
(-0.4735339759429198 -0.01733280003208039 -0.05904747938720614)
(-0.6145522431115166 0.01298317710380957 0.02817480367531612)
(-0.3503716771134044 -0.02608728282196999 -0.08185797794134407)
(-0.2835160091094762 -0.007812389003431643 -0.02343488685568114)
(-0.2525143586575926 -0.04370115686024019 0.005256978744246465)
(-0.390144783365702 -0.0125347341245636 0.02040514544135852)
(-0.5366888179992284 0.001880496998145004 -0.01053555170517166)
(-0.5089430570430725 0.002278565908218711 -0.005216587213962838)
(-0.5032354324222553 -0.002957371867017894 0.05216607079180546)
(-0.3898421170272 0.03487875242261568 0.0880542585840185)
(-0.3218089473217859 -0.02095333679630661 0.1102526565392034)
(-0.3915156215733535 -0.006400036721988861 0.08682725334442569)
(-0.4282216127936126 -0.03456194982899539 0.07548036316014063)
(-0.5684710251689589 0.0004608396907659833 0.03743512456864593)
(-0.5872236370981028 0.03214528792313797 0.03931408050960726)
(-0.4951087699631804 0.0681025411968256 -0.01875656720623866)
(-0.4989241043292129 0.009929071742093062 0.008506778413963419)
(-0.3539146266522597 0.001449118416300377 -0.03862352904135805)
(-0.2263988593209636 -0.02760665974970874 -0.1182865189456016)
(-0.3019681590789142 -0.02106717897022744 -0.1604190018180933)
(-0.410694586405707 -0.01189499288004711 -0.05028679642261114)
(-0.3966564017710592 0.03589379263537276 -0.05225751283391001)
(-0.3527053935371812 -0.01039700462496002 -0.06831609389368476)
(-0.2515120593843422 0.01815814973056132 -0.0794460611416621)
(-0.2453219002892982 -0.01546480357909183 -0.07751278163467078)
(-0.2925099379493571 0.001501016115861674 -0.0164236427762279)
(-0.1541558957382471 -0.05384165364937576 0.03116809761458522)
(-0.1093226850985896 -0.02272378230344251 0.02414174364876542)
(-0.2300160495411823 -0.002293602286959944 0.01841205786372173)
(-0.4176103813074529 -0.01885805148226194 -0.05549014901928107)
(-0.2727165868115812 -0.03526527723271455 -0.0197681202731194)
(-0.2524032122004718 -0.0660162937346155 -0.07287735351777863)
(-0.267610913704513 -0.03646338968948102 0.03140913787405274)
(-0.2305158630657467 -0.01216458721246667 -0.0017348742045198)
(-0.2779319690143456 -0.00541817198280276 -0.049267807486658)
(-0.2735711237449611 -0.008820509197214794 -0.1123469460029753)
(-0.2545883640983172 -0.04297348283328477 -0.208004432488009)
(-0.1892137838222232 -0.004419805843934321 0.003111212871920066)
(-0.469402322781874 0.01199686377639712 -0.1151157533195925)
(-0.3283207468194241 0.01392169165603438 -0.1448977507068147)
(-0.4856243238016619 -0.02773192577059623 -0.04501134600139597)
(-0.2859988659722323 0.01617155116818641 -0.05840356877754568)
(-0.4074544159796078 0.04117069980910758 -0.00838770221412345)
(-0.4527035143070349 0.03412570716453016 -0.05146434372025559)
(-0.4751715702962713 0.009630638625240016 -0.1215950093375736)
(-0.4632678686247202 -0.02435551618338199 0.00952164779122682)
(-0.3992560447850337 -0.05329575046073189 -0.009981017751904367)
(-0.2548411471369267 -0.02301759382872814 -0.03087246561671081)
(-0.354219333031383 -0.004239912380632621 0.01845487298887056)
(-0.2718683129616858 -0.01699015357233812 -0.01966699591128448)
(-0.2662416700476068 -0.02051825261842226 -0.01724359429468439)
(-0.2618595119822801 -0.01722997886778631 -0.03039025991574774)
(-0.3152387148280116 0.003120227168808296 0.02831491963968327)
(-0.3424353936203821 -0.05032436903785035 0.06557118442720278)
(-0.2618986977456055 -0.01717411137431842 -0.05365616245137159)
(-0.434591496498526 0.0420185419494608 -0.08003492933615516)
(-0.6039585481180867 0.003822945276409848 0.03460445937044251)
(-0.5561816428728684 0.02222401187965695 -0.04192437739146264)
(-0.3852923894117398 -0.03033556896775707 -0.04113603645205734)
(-0.5154880335677698 0.01916774143766486 0.0343031925293747)
(-0.2822182202414459 -0.0439539318797827 -0.08588066515117859)
(-0.2266708049238042 -0.03516385659749694 -0.03664610797543021)
(-0.2201164140599785 -0.06285327253402792 -0.01190343156888964)
(-0.2545179648685471 0.008859151372137816 -0.002355890544457444)
(-0.4692992515312813 0.01353964744462361 0.01187709255906931)
(-0.4073710668609644 -0.01305739830710018 0.01810439632183452)
(-0.4224662811121374 0.03351090885294096 0.05675349367867171)
(-0.3769379209747283 0.03733623010717511 0.08392542053046104)
(-0.3225920455482858 -0.02200914636665594 0.1153915613346995)
(-0.3828868510595282 -0.006921812630383581 0.08999674882331508)
(-0.4210405373890139 -0.03583735793925288 0.07607727670362605)
(-0.5645930097396464 0.0005089337897704468 0.03294924913221486)
(-0.5865823567001387 0.03211750671752303 0.04271467031736607)
(-0.4895576012046274 0.06949439993530186 -0.01694189773223895)
(-0.4946542000739023 0.008123641651012911 0.01036894374215651)
(-0.3500123690722513 0.003969582139242582 -0.03683433076548242)
(-0.2181391039572241 -0.02899943995868691 -0.1154183828209476)
(-0.2918467011188153 -0.0238832855993424 -0.1597831715393246)
(-0.4046399551514238 -0.01177937272507022 -0.05428564193408045)
(-0.3901943333397734 0.03622048961138596 -0.05228361786651124)
(-0.336479455806283 -0.01255394691353514 -0.07982786400665272)
(-0.2385577833523337 0.01836936725134941 -0.07435175055708342)
(-0.2442076160280988 -0.01598819606756004 -0.07904118115668628)
(-0.2877976373762905 0.002471914509189638 -0.02287223365042623)
(-0.1486159349219388 -0.05609464547232541 0.0333230351577781)
(-0.09723027764288865 -0.02548907601819266 0.01960837696846965)
(-0.2262393476218066 -0.002620435113346004 0.02274195506002881)
(-0.4114101923383875 -0.01737950950333679 -0.05545989793922744)
(-0.2684907684006648 -0.03512171325072153 -0.0175498605704697)
(-0.246997496044241 -0.0678704339805538 -0.07524370536689415)
(-0.2643875810833182 -0.03539955082807027 0.03472554457540519)
(-0.2316832439123472 -0.01291699476051603 0.0003130323071452576)
(-0.2757140793770501 -0.004488742065855794 -0.03779378241129415)
(-0.2729850582928486 -0.009860282552086241 -0.1076355103101333)
(-0.2456509254396782 -0.04277307981926404 -0.2098282714972105)
(-0.1785006852361721 -0.006738052539089547 -0.00431001770383959)
(-0.4583337599840361 0.01149610754713823 -0.1221413536534824)
(-0.3238058017182991 0.0144583864638512 -0.1469096206511095)
(-0.4861995056849922 -0.02633315440793111 -0.04003349745856573)
(-0.2881035440551737 0.01810099213326149 -0.05743948569482653)
(-0.4036513421578218 0.04115320325341858 -0.01225117300468119)
(-0.4516536258195105 0.03737193184338139 -0.05138745498447099)
(-0.4721364975983398 0.01021436141052476 -0.1230732511038813)
(-0.4603827881868394 -0.02477261609158344 0.01249677554861632)
(-0.3985539211364118 -0.05410510599956414 -0.01108707724526412)
(-0.2613024711367428 -0.02474979708063177 -0.02944530034996984)
(-0.3420082828301525 -0.00381297093079044 0.01304612753825636)
(-0.2696655208136276 -0.01681907973721494 -0.01962027086476303)
(-0.2655279915185598 -0.02111827582583466 -0.02033624457530437)
(-0.2565508534686213 -0.01783862838554814 -0.03374976673916806)
(-0.3153963690801181 0.002224011463352567 0.03149972192082978)
(-0.3375763661721404 -0.05132000059172415 0.06744153693174418)
(-0.2583841426575173 -0.0177981406979494 -0.05355692893427236)
(-0.4286975383060613 0.04347051943848421 -0.08128478458975584)
(-0.5903155755356848 0.003982776768549759 0.03613825690988853)
(-0.5456365219147904 0.02258203931770565 -0.03763500972300563)
(-0.3840636117604961 -0.02990516875047951 -0.03985331099103918)
(-0.5097944054498278 0.02006555887992215 0.03476341054471992)
(-0.2807629267874 -0.044040759570906 -0.08488204533888299)
(-0.2294600090277707 -0.03760864255602069 -0.04165171961147169)
(-0.2219168176124605 -0.06334924673472951 -0.01260363528465297)
(-0.2465999206030647 0.01084136443160187 -0.0033941242918226)
(-0.4691583052252286 0.0144632928216774 0.01302239331611553)
(-0.4051372099256942 -0.01401305565497576 0.01971524531956548)
(-0.4196799839695206 0.03973100133728839 0.05951519996774716)
(-0.3741122482069218 0.03840734249841186 0.07729620451228349)
(-0.3179305086645463 -0.021595174442229 0.1184089629601854)
(-0.3746321426811996 -0.007204513929636697 0.09322901854088166)
(-0.4112256076437342 -0.03622073390650488 0.07802704915792476)
(-0.5611131317427809 0.00225922040440042 0.0290647176390001)
(-0.5835001629094794 0.03481866275493974 0.04525672542973981)
(-0.4850840641799505 0.0713201456344071 -0.01430889890701707)
(-0.4923260769532358 0.007372757226721767 0.01241864664412332)
(-0.3466285324414149 0.00723691992115643 -0.03674433732735687)
(-0.2072778364654986 -0.03447250799222814 -0.1055881560347751)
(-0.2818535188772748 -0.02540814663874757 -0.1536245152759695)
(-0.3992765503642663 -0.0103797636102457 -0.05847022941243554)
(-0.3872630517421756 0.03842855211218 -0.05422217890267082)
(-0.3215404538211024 -0.01088997338432961 -0.0919863801665515)
(-0.2261981145842373 0.01499154473652247 -0.06984120479132577)
(-0.2401106269503364 -0.01426320647376601 -0.08357761572124706)
(-0.2808380583831652 0.003277689583727727 -0.02661416413254725)
(-0.1445917387245291 -0.05835915338570213 0.03635429213805887)
(-0.09528703443523898 -0.02717699568460192 0.01672889422138382)
(-0.2089092601375393 0.0002187723183775855 0.02360706464657208)
(-0.4027692129931268 -0.01480590703391596 -0.05446244665528662)
(-0.2640621309934338 -0.03516344966894255 -0.01512820548541089)
(-0.2391908002462016 -0.06821683472041046 -0.07597751284329735)
(-0.2626410771094477 -0.03312662307100349 0.03526654349260319)
(-0.2315996912767946 -0.01322147152596288 -0.003058308758277474)
(-0.2705444250848068 -0.004699520046502027 -0.03019856441211571)
(-0.2715734313575563 -0.01033844228487318 -0.1048837854865431)
(-0.236520334877276 -0.04040658001051055 -0.2075481751282657)
(-0.1777017245485542 -0.01155454169193268 -0.01228397637903388)
(-0.4461302146632158 0.007430049690789529 -0.1177029316942615)
(-0.3151396302097203 0.01276834797531171 -0.1471683470352957)
(-0.4854323769404921 -0.02504633836452028 -0.03574383606916372)
(-0.2924492154381946 0.02086436908362925 -0.05895907673763437)
(-0.3939300167697959 0.03688280418246503 -0.01492115694621868)
(-0.4539376185503313 0.03718127446221228 -0.05224355821848418)
(-0.4694109040995356 0.01210997673483155 -0.124417098992781)
(-0.4583212422897595 -0.02504406293600176 0.01584226610572122)
(-0.3942629871682558 -0.05443622389925303 -0.01270661495056566)
(-0.2655045849859419 -0.02410857416780096 -0.0254733145345556)
(-0.3327663517523862 -0.004739591549948075 0.009387621788204483)
(-0.2656668531913907 -0.01613511338664418 -0.02122096944880404)
(-0.2660957321338091 -0.02191620460041157 -0.02333085337208685)
(-0.2517393526323232 -0.01777510881400448 -0.03545869198439344)
(-0.3129645467476087 0.00136757712098171 0.03493936772484569)
(-0.3271185660287958 -0.04731742432114751 0.06506749634026386)
(-0.2563461210406422 -0.01873617216003488 -0.05290938827880786)
(-0.4244844145285018 0.04468367098291391 -0.08154254415435361)
(-0.5753718442052325 0.002678839241683697 0.03961713446219552)
(-0.5234459020613739 0.01395636907645766 -0.02755361388134978)
(-0.3795411203493521 -0.03320747285721425 -0.0376083398584867)
(-0.50792989752685 0.02086400637471666 0.03474121637631575)
(-0.2780597274342593 -0.04526817110412334 -0.08364133141231224)
(-0.2247904193216999 -0.03991100281300705 -0.04641075840222463)
(-0.2215854415315999 -0.06082923033724062 -0.01130058613069661)
(-0.2378313685780298 0.01053586216648386 -0.003837587895932539)
(-0.4653979374097832 0.01540587721060219 0.01424584362914729)
(-0.4015932239069808 -0.01592582705755493 0.02184598420805393)
(-0.4259848469407018 0.0443331103090438 0.05524497898772317)
(-0.3305902550298754 0.04380325213867309 0.04491381957159048)
(-0.2715672016648861 -0.01238777714935321 0.1295957203102566)
(-0.2867595837790591 -0.00976729698168098 0.1167056187877231)
(-0.3043960847768237 -0.04279524042718441 0.09418083991712564)
(-0.5213541549413906 0.009271247627964767 0.01362482517107665)
(-0.5173022659317047 0.05258712472485867 0.08081920863191341)
(-0.4763396574490866 0.08643870475218229 0.02694760125398311)
(-0.4855305453505035 0.01339616878015015 0.04755315433740909)
(-0.313853541549219 0.03320224897535284 -0.0382527088304704)
(-0.1387488861354674 -0.05632324111061657 -0.03690796924703669)
(-0.2008162404329808 -0.03972730944869344 -0.09686471252933807)
(-0.2967526558408971 0.01455654104315491 -0.09800127618122868)
(-0.342469187657229 0.06421791175420612 -0.06427504591007584)
(-0.2081748822772974 -0.007763659823193996 -0.1961584965481756)
(-0.1648773676570914 0.00837596042578849 -0.05462255483985493)
(-0.1871907117714569 0.008730648994894159 -0.1135311183035922)
(-0.2069861750341286 0.006271319786804478 -0.04759665304789795)
(-0.1218353368021238 -0.07673342479613622 0.06042949295699496)
(-0.09843666154150377 -0.03783686360027109 -0.007396052746453809)
(-0.0854925424994068 0.01427984676983377 0.02622435360328217)
(-0.2888411099319965 0.009770958410731169 -0.03253643638779809)
(-0.1949844812194829 -0.03829620856738935 0.01559326197894963)
(-0.1386135196041417 -0.06215885846324123 -0.06059988195284147)
(-0.2268721653147893 -0.02269473178920546 0.02411503821541347)
(-0.2192926241112704 -0.01555138937306068 -0.03696310031471364)
(-0.1837749573853238 -0.01326935432935412 0.003596283153715029)
(-0.2124197593550106 -0.01188447959100202 -0.0732045735364827)
(-0.1219779324718355 -0.01251074085992097 -0.1519283183757828)
(-0.1255635351672083 -0.04511063293661546 -0.08750840259971038)
(-0.333789153817977 -0.0133447354565768 -0.09349262517713833)
(-0.2284001756666359 0.0005377827019122903 -0.1502400198613282)
(-0.4329856567063276 -0.01300309895530531 0.008863373094749834)
(-0.3044857841845905 0.033552801014649 -0.09399125826442016)
(-0.2973078296399426 0.001645957765537142 -0.05562538494912042)
(-0.4462301186051807 0.03338424873085268 -0.0558261605442514)
(-0.431542804134396 0.04705790274889686 -0.1168637091549517)
(-0.4320271393936573 -0.02652237504439628 0.05191436076392349)
(-0.3481033301726805 -0.05952515738952259 -0.03210737362497097)
(-0.3044733055787609 -0.01758321524068954 0.009644997316093858)
(-0.2582491180250054 -0.01432408620213158 -0.02974799064506685)
(-0.2327157158141927 -0.01286537951769587 -0.05393377287007501)
(-0.2797708244780464 -0.02832786604166211 -0.05809194775301338)
(-0.2147452336155047 -0.01776529932586008 -0.05806115751699475)
(-0.2903066895147132 -0.002343141696321291 0.06187398925713268)
(-0.2677343402314823 -0.01325338192169994 0.04460011230673142)
(-0.2463595490871976 -0.03133298064956762 -0.04688638320423125)
(-0.3841433782603241 0.04761484278949155 -0.07209105501676878)
(-0.47443673235131 0.003637972126921014 0.04664450609557439)
(-0.4055039391111152 -0.02139064956574712 0.0056184233162657)
(-0.3329638797274955 -0.04739149982060944 -0.03069998526235738)
(-0.4764243757987947 0.03910062809781413 0.003288460098579542)
(-0.2572184390136713 -0.04886194066282974 -0.05234586789379187)
(-0.1848022433375777 -0.06111889004883136 -0.08265750533734766)
(-0.2048214252088488 -0.03929614354531497 0.009812744091420623)