/*--------------------------------*- C++ -*----------------------------------*\
| =========                 |                                                 |
| \\      /  F ield         | OpenFOAM: The Open Source CFD Toolbox           |
|  \\    /   O peration     | Version:  v1812                                 |
|   \\  /    A nd           | Web:      www.OpenFOAM.com                      |
|    \\/     M anipulation  |                                                 |
\*---------------------------------------------------------------------------*/
FoamFile
{
    version     2.0;
    format      ascii;
    class       volScalarField;
    location    "3000";
    object      nut;
}
// * * * * * * * * * * * * * * * * * * * * * * * * * * * * * * * * * * * * * //

dimensions      [0 2 -1 0 0 0 0];


internalField   nonuniform List<scalar> 
924
(
5.622208743442154e-06
5.622208743443341e-06
5.622208743438636e-06
5.62220874343699e-06
5.622208743437699e-06
5.622208743436537e-06
5.622208743438701e-06
5.622208743435258e-06
5.622208743437687e-06
5.622208743437582e-06
5.622208743437661e-06
5.622208743437826e-06
5.622208743436131e-06
5.62220874343552e-06
5.6222087434378e-06
5.622208743434648e-06
5.622208743432196e-06
5.622208743433852e-06
5.62220874343646e-06
5.622208743435489e-06
5.622208743436588e-06
5.622208743433293e-06
5.622208743436005e-06
5.622208743433703e-06
5.622208743436038e-06
5.622208743434454e-06
5.622208743437167e-06
5.622208743435085e-06
5.622208743436297e-06
5.622208743434694e-06
5.622208743436926e-06
5.622208743433663e-06
5.622208743438011e-06
5.62220874343456e-06
5.622208743436991e-06
5.622208743433593e-06
5.622208743438433e-06
5.62220874343179e-06
5.622208743436002e-06
5.622208743430875e-06
5.622208743437454e-06
5.622208743429574e-06
5.622208743436597e-06
5.622208743424691e-06
0.0001808618693932268
0.000180861869392693
0.0001808618693917032
0.0001808618693917334
0.0001808618693919998
0.0001808618693919879
0.0001808618693923742
0.000180861869391847
0.0001808618693922457
0.0001808618693923444
0.0001808618693923954
0.000180861869392439
0.0001808618693920942
0.0001808618693919136
0.0001808618693923715
0.0001808618693919294
0.0001808618693915185
0.0001808618693917315
0.0001808618693921959
0.0001808618693920043
0.0001808618693921481
0.0001808618693916997
0.0001808618693920056
0.0001808618693918273
0.0001808618693919387
0.0001808618693917335
0.0001808618693922319
0.0001808618693918259
0.0001808618693919622
0.0001808618693918627
0.0001808618693921737
0.0001808618693915997
0.0001808618693923259
0.0001808618693917606
0.0001808618693920652
0.0001808618693916023
0.0001808618693923416
0.0001808618693914069
0.0001808618693918927
0.0001808618693914975
0.000180861869392149
0.000180861869391504
0.0001808618693918607
0.0001808618693908073
0.0009113648760370491
0.0009113648760326178
0.0009113648760233161
0.0009113648760207082
0.0009113648760204154
0.0009113648760198512
0.0009113648760224868
0.0009113648760207853
0.000911364876023705
0.0009113648760239399
0.000911364876023242
0.0009113648760250442
0.0009113648760236622
0.0009113648760217779
0.000911364876024947
0.0009113648760239503
0.000911364876022101
0.0009113648760233574
0.0009113648760238816
0.0009113648760230898
0.0009113648760236489
0.000911364876023012
0.0009113648760223383
0.0009113648760236497
0.0009113648760223478
0.0009113648760205747
0.0009113648760235586
0.0009113648760222325
0.0009113648760201278
0.0009113648760224645
0.0009113648760225814
0.0009113648760204424
0.0009113648760240623
0.0009113648760226631
0.0009113648760207918
0.0009113648760224916
0.0009113648760231088
0.0009113648760207786
0.0009113648760191257
0.0009113648760227426
0.000911364876022431
0.0009113648760238365
0.000911364876021339
0.0009113648760178484
0.001765173371962951
0.001765173371958978
0.001765173371949713
0.001765173371943137
0.001765173371944698
0.001765173371942066
0.001765173371943291
0.00176517337194161
0.001765173371945487
0.001765173371944674
0.001765173371940742
0.001765173371945704
0.001765173371945756
0.001765173371940995
0.001765173371946083
0.001765173371945975
0.001765173371941064
0.001765173371945166
0.001765173371945007
0.001765173371940536
0.001765173371944446
0.001765173371944231
0.001765173371939743
0.001765173371944317
0.001765173371943563
0.001765173371939069
0.00176517337194335
0.001765173371942202
0.001765173371937812
0.001765173371942713
0.001765173371943218
0.001765173371939408
0.001765173371944907
0.001765173371944795
0.001765173371939938
0.00176517337194488
0.001765173371945014
0.001765173371941437
0.001765173371937413
0.001765173371942244
0.001765173371939884
0.001765173371943103
0.001765173371941262
0.001765173371933951
0.002647496074620343
0.002647496074616605
0.002647496074613883
0.00264749607460142
0.002647496074603925
0.002647496074604117
0.00264749607459742
0.002647496074591926
0.002647496074600378
0.002647496074599691
0.002647496074590818
0.002647496074599392
0.002647496074601194
0.002647496074592177
0.002647496074600567
0.00264749607460205
0.002647496074592739
0.002647496074600904
0.002647496074600901
0.002647496074591827
0.002647496074598929
0.002647496074600079
0.002647496074590286
0.002647496074598808
0.002647496074598243
0.002647496074590497
0.002647496074596611
0.002647496074595502
0.002647496074587335
0.002647496074596116
0.002647496074597339
0.002647496074590281
0.002647496074599266
0.002647496074600467
0.00264749607459152
0.002647496074600431
0.002647496074600974
0.002647496074591901
0.002647496074596548
0.002647496074597216
0.002647496074587481
0.002647496074596578
0.002647496074593718
0.002647496074583205
0.003645869592325814
0.003645869592323346
0.003645869592327561
0.003645869592320875
0.003645869592308733
0.003645869592317632
0.003645869592298981
0.003645869592292227
0.003645869592308038
0.003645869592306738
0.003645869592294709
0.003645869592308517
0.00364586959230811
0.003645869592296614
0.003645869592310498
0.003645869592310268
0.00364586959229859
0.003645869592310707
0.003645869592315274
0.003645869592295611
0.003645869592309298
0.00364586959230845
0.003645869592294963
0.003645869592306861
0.003645869592309921
0.003645869592293883
0.003645869592301783
0.003645869592304859
0.003645869592288806
0.003645869592302027
0.003645869592307659
0.00364586959229155
0.003645869592305834
0.003645869592312215
0.003645869592294436
0.003645869592311263
0.003645869592309198
0.003645869592296949
0.003645869592308753
0.003645869592306995
0.003645869592291721
0.003645869592303097
0.003645869592304816
0.003645869592283501
0.004707903932073096
0.004707903932065943
0.004707903932069732
0.004707903932062061
0.004707903932052773
0.004707903932059306
0.004707903932044305
0.004707903932034337
0.004707903932057209
0.004707903932050878
0.004707903932035559
0.00470790393204983
0.004707903932059371
0.004707903932033582
0.004707903932051136
0.004707903932064245
0.004707903932038389
0.004707903932065436
0.004707903932060069
0.004707903932038545
0.004707903932051487
0.004707903932061589
0.004707903932031394
0.004707903932041733
0.004707903932059492
0.004707903932032399
0.004707903932029683
0.004707903932035282
0.004707903932034773
0.004707903932053338
0.004707903932042694
0.004707903932028244
0.004707903932046303
0.004707903932057725
0.004707903932031039
0.004707903932053648
0.004707903932061238
0.004707903932034641
0.004707903932059707
0.004707903932049792
0.004707903932030509
0.004707903932050145
0.004707903932042049
0.004707903932021255
0.005518113603867563
0.005518113603862642
0.005518113603881319
0.005518113603874155
0.005518113603897791
0.005518113603889706
0.005518113603841386
0.005518113603821621
0.005518113603851836
0.005518113603853016
0.005518113603824872
0.005518113603829169
0.005518113603830467
0.005518113603845463
0.005518113603830372
0.005518113603855119
0.005518113603849565
0.005518113603877967
0.005518113603884491
0.005518113603820995
0.005518113603829937
0.005518113603824116
0.005518113603852892
0.005518113603799636
0.005518113603835994
0.00551811360385657
0.005518113603808546
0.005518113603849904
0.005518113603844171
0.005518113603843905
0.005518113603800189
0.005518113603823778
0.005518113603837328
0.00551811360381032
0.005518113603843662
0.005518113603842583
0.005518113603823569
0.005518113603846836
0.005518113603868236
0.00551811360385459
0.005518113603812596
0.005518113603807677
0.005518113603815341
0.005518113603807622
0.005819861050747212
0.005819861050744497
0.00581986105072186
0.005819861050754081
0.005819861050753772
0.005819861050712268
0.005819861050719816
0.005819861050722227
0.005819861050724683
0.005819861050729434
0.00581986105072569
0.005819861050733242
0.00581986105072011
0.00581986105075949
0.005819861050748381
0.005819861050761232
0.005819861050721729
0.005819861050756224
0.00581986105074229
0.005819861050704273
0.005819861050727967
0.005819861050756689
0.00581986105074093
0.005819861050730369
0.005819861050681606
0.005819861050734684
0.005819861050707863
0.00581986105067983
0.005819861050713545
0.005819861050696481
0.005819861050650656
0.005819861050634521
0.005819861050683295
0.005819861050713484
0.005819861050643558
0.005819861050654539
0.005819861050658084
0.005819861050671233
0.005819861050675913
0.005819861050686798
0.005819861050665767
0.005819861050679759
0.005819861050699158
0.005819861050627986
0.005638473649314153
0.005638473649406129
0.005638473649431519
0.005638473649463439
0.005638473649408102
0.005638473649450188
0.005638473649425026
0.005638473649409016
0.005638473649436787
0.005638473649405528
0.005638473649425064
0.005638473649384059
0.005638473649410608
0.005638473649353055
0.005638473649358077
0.005638473649363067
0.005638473649353211
0.005638473649397764
0.005638473649369707
0.005638473649313626
0.005638473649306465
0.005638473649284186
0.005638473649298281
0.005638473649257411
0.005638473649253785
0.005638473649227036
0.005638473649228599
0.005638473649213429
0.005638473649218119
0.005638473649236408
0.005638473649221944
0.005638473649161675
0.00563847364916872
0.005638473649200904
0.005638473649159008
0.005638473649205509
0.005638473649189294
0.005638473649152169
0.005638473649197173
0.00563847364918065
0.005638473649142141
0.005638473649186118
0.005638473649166502
0.00563847364914389
0.005219723827547798
0.005219723828204752
0.005219723828169654
0.005219723828076909
0.005219723827967107
0.005219723827885118
0.005219723827810464
0.005219723827750434
0.005219723827706198
0.005219723827618889
0.005219723827574754
0.005219723827531188
0.005219723827438029
0.005219723827377004
0.005219723827238633
0.005219723827236564
0.005219723827234726
0.005219723827187732
0.005219723827170068
0.005219723827176085
0.005219723827126978
0.005219723827119544
0.005219723827129734
0.005219723827063703
0.005219723827086973
0.005219723827043214
0.005219723827055262
0.005219723827063124
0.005219723826984092
0.005219723826999425
0.00521972382699985
0.005219723827047979
0.005219723827019356
0.005219723826968885
0.005219723826980796
0.005219723827003321
0.005219723826985778
0.005219723826916627
0.005219723826930685
0.005219723826955806
0.005219723826904506
0.005219723826928732
0.005219723826920912
0.005219723827132461
0.005638473619984333
0.005638473620081936
0.005638473620150423
0.005638473620185493
0.005638473620194736
0.005638473620197647
0.005638473620201236
0.005638473620195907
0.00563847362020325
0.005638473620183332
0.005638473620188492
0.0056384736201732
0.005638473620173381
0.005638473620139043
0.005638473620125917
0.00563847362011991
0.005638473620121694
0.005638473620116587
0.005638473620083979
0.005638473620097562
0.005638473620078029
0.00563847362005822
0.005638473620063891
0.005638473620056583
0.005638473620060937
0.005638473620060748
0.005638473620001338
0.005638473620000828
0.0056384736200021
0.005638473619977069
0.005638473619994663
0.005638473619970167
0.005638473619997012
0.005638473619987604
0.005638473619961175
0.005638473619969901
0.005638473619948858
0.005638473619938119
0.005638473619932948
0.005638473619941974
0.005638473619921943
0.005638473619930928
0.005638473619912363
0.005638473619911287
0.005819861018920175
0.005819861018911799
0.005819861018924183
0.005819861018930336
0.005819861018940524
0.005819861018950051
0.00581986101893803
0.005819861018947759
0.005819861018944443
0.005819861018951942
0.005819861018946277
0.005819861018957464
0.005819861018958196
0.005819861018951236
0.005819861018961675
0.005819861018951759
0.005819861018954992
0.00581986101895611
0.005819861018960627
0.005819861018953646
0.005819861018950815
0.005819861018956583
0.005819861018964491
0.005819861018951027
0.005819861018943261
0.00581986101895167
0.005819861018941225
0.00581986101893014
0.005819861018935226
0.00581986101892692
0.005819861018939562
0.005819861018934662
0.005819861018944705
0.005819861018925849
0.005819861018913179
0.005819861018925157
0.005819861018919847
0.005819861018907047
0.005819861018905368
0.005819861018899878
0.005819861018894722
0.005819861018903687
0.005819861018906754
0.005819861018887391
0.005518113580043317
0.005518113580041413
0.005518113580044855
0.005518113580043712
0.005518113580031708
0.005518113580029222
0.005518113580016375
0.005518113580018318
0.00551811358001602
0.005518113580026902
0.005518113580025974
0.005518113580022369
0.005518113580027593
0.005518113580026953
0.005518113580036168
0.005518113580037439
0.005518113580033954
0.005518113580037424
0.005518113580033315
0.005518113580041947
0.005518113580048695
0.005518113580037435
0.005518113580046015
0.005518113580039884
0.005518113580046008
0.005518113580052567
0.005518113580037415
0.005518113580039685
0.00551811358003941
0.005518113580049042
0.005518113580046757
0.005518113580041237
0.005518113580049719
0.005518113580044514
0.005518113580035338
0.005518113580044676
0.005518113580040881
0.00551811358003171
0.005518113580034885
0.005518113580040509
0.005518113580024298
0.005518113580036595
0.005518113580034194
0.005518113580025937
0.004707903917808285
0.004707903917804333
0.004707903917809409
0.004707903917811741
0.004707903917792924
0.004707903917772084
0.004707903917777272
0.004707903917774601
0.004707903917767603
0.004707903917776081
0.004707903917782544
0.004707903917770257
0.004707903917779466
0.004707903917784789
0.004707903917773768
0.004707903917783291
0.004707903917777016
0.004707903917782684
0.004707903917781061
0.004707903917790056
0.00470790391778351
0.004707903917790633
0.004707903917796821
0.00470790391778523
0.004707903917793262
0.004707903917789708
0.004707903917787208
0.004707903917789206
0.004707903917790884
0.004707903917794472
0.004707903917794264
0.004707903917801815
0.004707903917802383
0.004707903917790336
0.004707903917796539
0.004707903917792017
0.004707903917798607
0.004707903917790674
0.004707903917795997
0.004707903917788725
0.004707903917787718
0.004707903917791877
0.004707903917796615
0.004707903917782602
0.003645869585064451
0.003645869585062805
0.003645869585058103
0.003645869585062776
0.003645869585055075
0.003645869585047347
0.003645869585026384
0.003645869585033953
0.003645869585026944
0.003645869585035752
0.003645869585039673
0.003645869585029886
0.003645869585037637
0.003645869585041317
0.003645869585031384
0.003645869585040155
0.003645869585033605
0.00364586958504185
0.003645869585035463
0.003645869585045342
0.003645869585038567
0.003645869585049175
0.003645869585047928
0.003645869585042154
0.003645869585043223
0.003645869585044722
0.00364586958504638
0.003645869585050822
0.003645869585047978
0.003645869585049653
0.003645869585049464
0.00364586958505719
0.003645869585057142
0.003645869585046885
0.003645869585049951
0.003645869585050412
0.003645869585052401
0.00364586958505009
0.003645869585042516
0.003645869585046033
0.003645869585045261
0.003645869585051654
0.003645869585052115
0.003645869585041118
0.002647496071660151
0.002647496071657729
0.002647496071656319
0.002647496071647164
0.002647496071647647
0.002647496071634212
0.002647496071629584
0.002647496071632556
0.002647496071627212
0.002647496071635221
0.002647496071636125
0.002647496071631198
0.002647496071637236
0.002647496071637267
0.002647496071631971
0.002647496071637633
0.002647496071635032
0.002647496071631477
0.002647496071636559
0.002647496071637711
0.002647496071637849
0.002647496071642414
0.002647496071642558
0.00264749607164388
0.00264749607164258
0.00264749607164568
0.002647496071643664
0.002647496071647599
0.00264749607164204
0.002647496071646977
0.002647496071642519
0.002647496071651447
0.002647496071649516
0.002647496071643787
0.002647496071647958
0.002647496071647063
0.002647496071640842
0.0026474960716446
0.002647496071641069
0.002647496071644429
0.002647496071639839
0.002647496071645879
0.002647496071645437
0.002647496071639723
0.001765173371700919
0.001765173371699615
0.001765173371694426
0.001765173371685022
0.001765173371681047
0.001765173371672189
0.001765173371675905
0.001765173371675594
0.001765173371672388
0.00176517337167807
0.00176517337167762
0.001765173371677887
0.001765173371678953
0.001765173371679486
0.001765173371678819
0.001765173371677523
0.001765173371679127
0.001765173371677935
0.001765173371678062
0.001765173371680926
0.001765173371678279
0.001765173371683823
0.001765173371683034
0.001765173371683295
0.001765173371685297
0.001765173371683363
0.001765173371685358
0.001765173371685304
0.001765173371682114
0.001765173371686124
0.001765173371682869
0.001765173371688102
0.00176517337168754
0.001765173371684695
0.001765173371687399
0.001765173371685092
0.001765173371681856
0.001765173371679877
0.001765173371684621
0.001765173371684079
0.001765173371682268
0.00176517337168481
0.00176517337168467
0.001765173371683171
0.0009113648772613563
0.0009113648772587727
0.0009113648772530426
0.0009113648772459554
0.0009113648772425449
0.0009113648772401465
0.0009113648772441226
0.000911364877243351
0.0009113648772408687
0.0009113648772441791
0.0009113648772437022
0.000911364877244632
0.0009113648772450715
0.0009113648772457038
0.0009113648772455546
0.0009113648772460881
0.0009113648772469806
0.0009113648772459683
0.0009113648772448414
0.0009113648772456654
0.0009113648772452397
0.0009113648772475424
0.0009113648772483711
0.0009113648772485762
0.0009113648772496728
0.0009113648772476196
0.0009113648772488065
0.0009113648772486031
0.0009113648772464515
0.0009113648772463279
0.0009113648772478512
0.0009113648772494584
0.0009113648772503641
0.0009113648772490463
0.0009113648772507198
0.0009113648772483402
0.0009113648772443307
0.0009113648772431531
0.0009113648772484064
0.000911364877248377
0.0009113648772490665
0.0009113648772482474
0.0009113648772501118
0.0009113648772476437
0.0001808618702148852
0.0001808618702164448
0.0001808618702155858
0.0001808618702141368
0.0001808618702142269
0.0001808618702139057
0.0001808618702144211
0.0001808618702141501
0.0001808618702135313
0.0001808618702136092
0.0001808618702141162
0.0001808618702140442
0.0001808618702144559
0.0001808618702142576
0.0001808618702145149
0.0001808618702141958
0.0001808618702146269
0.0001808618702141201
0.0001808618702143424
0.0001808618702139365
0.0001808618702143321
0.0001808618702140636
0.0001808618702146383
0.0001808618702140793
0.0001808618702147329
0.0001808618702139631
0.0001808618702146831
0.0001808618702139855
0.0001808618702144398
0.0001808618702136073
0.0001808618702145123
0.0001808618702138605
0.0001808618702148498
0.0001808618702137393
0.0001808618702148548
0.0001808618702135629
0.0001808618702141993
0.00018086187021296
0.0001808618702145585
0.0001808618702133364
0.0001808618702146731
0.0001808618702131082
0.0001808618702147969
0.0001808618702124209
5.62220874938588e-06
5.622208749395686e-06
5.622208749395148e-06
5.622208749387299e-06
5.622208749387597e-06
5.62220874938494e-06
5.622208749387574e-06
5.622208749386186e-06
5.622208749382952e-06
5.622208749382094e-06
5.622208749385407e-06
5.622208749384272e-06
5.622208749386883e-06
5.622208749384527e-06
5.62220874938705e-06
5.622208749384328e-06
5.62220874938704e-06
5.622208749384233e-06
5.622208749385733e-06
5.622208749382543e-06
5.622208749386512e-06
5.62220874938293e-06
5.622208749387538e-06
5.622208749383127e-06
5.622208749388318e-06
5.62220874938231e-06
5.622208749388064e-06
5.622208749382014e-06
5.622208749387316e-06
5.622208749379783e-06
5.622208749387242e-06
5.622208749380403e-06
5.622208749389356e-06
5.622208749380161e-06
5.62220874938945e-06
5.622208749379298e-06
5.622208749386364e-06
5.622208749375365e-06
5.622208749387844e-06
5.622208749376697e-06
5.622208749388274e-06
5.622208749375956e-06
5.622208749389415e-06
5.622208749374279e-06
)
;

boundaryField
{
    inlet
    {
        type            cyclic;
    }
    outlet
    {
        type            cyclic;
    }
    bottomWall
    {
        type            nutLowReWallFunction;
        Cmu             0.09;
        kappa           0.41;
        E               9.800000000000001;
        value           uniform 0;
    }
    topWall
    {
        type            nutLowReWallFunction;
        Cmu             0.09;
        kappa           0.41;
        E               9.800000000000001;
        value           uniform 0;
    }
    left
    {
        type            cyclic;
    }
    right
    {
        type            cyclic;
    }
}


// ************************************************************************* //
