/*--------------------------------*- C++ -*----------------------------------*\
| =========                 |                                                 |
| \\      /  F ield         | OpenFOAM: The Open Source CFD Toolbox           |
|  \\    /   O peration     | Version:  v1812                                 |
|   \\  /    A nd           | Web:      www.OpenFOAM.com                      |
|    \\/     M anipulation  |                                                 |
\*---------------------------------------------------------------------------*/
FoamFile
{
    version     2.0;
    format      ascii;
    class       volScalarField;
    location    "3000";
    object      nuTilda;
}
// * * * * * * * * * * * * * * * * * * * * * * * * * * * * * * * * * * * * * //

dimensions      [0 2 -1 0 0 0 0];


internalField   nonuniform List<scalar> 
924
(
0.0005433764077992584
0.000543376407799299
0.000543376407799121
0.000543376407799162
0.0005433764077991242
0.0005433764077990784
0.0005433764077991579
0.0005433764077991356
0.0005433764077991109
0.0005433764077991437
0.000543376407799145
0.0005433764077991513
0.0005433764077990867
0.0005433764077990883
0.0005433764077991526
0.0005433764077990656
0.0005433764077991057
0.0005433764077990253
0.0005433764077991081
0.0005433764077990981
0.000543376407799121
0.0005433764077990994
0.0005433764077991238
0.0005433764077991106
0.0005433764077991228
0.0005433764077990647
0.0005433764077991285
0.0005433764077990835
0.000543376407799107
0.0005433764077990744
0.0005433764077991399
0.0005433764077990518
0.0005433764077991513
0.0005433764077990759
0.0005433764077991312
0.0005433764077990418
0.0005433764077991552
0.0005433764077990048
0.0005433764077991081
0.000543376407798984
0.0005433764077991453
0.000543376407798954
0.0005433764077991228
0.000543376407798835
0.001338424546727621
0.001338424546726622
0.001338424546723793
0.001338424546724778
0.001338424546724761
0.001338424546724309
0.001338424546725782
0.001338424546725792
0.001338424546725016
0.001338424546725357
0.001338424546725839
0.001338424546725952
0.00133842454672498
0.001338424546724588
0.001338424546725771
0.001338424546724538
0.001338424546724987
0.001338424546724121
0.00133842454672502
0.001338424546725079
0.001338424546725576
0.00133842454672544
0.001338424546725187
0.001338424546725285
0.001338424546725276
0.001338424546724512
0.001338424546725492
0.001338424546724643
0.001338424546724922
0.00133842454672476
0.001338424546725653
0.001338424546724461
0.001338424546725772
0.001338424546724522
0.001338424546725237
0.001338424546724182
0.001338424546725686
0.001338424546723806
0.00133842454672483
0.001338424546724034
0.001338424546725388
0.001338424546724096
0.001338424546724849
0.001338424546722612
0.002208926151068315
0.002208926151064746
0.002208926151055889
0.002208926151053406
0.002208926151053691
0.002208926151053867
0.002208926151056262
0.002208926151055605
0.002208926151056302
0.002208926151056266
0.00220892615105647
0.002208926151057724
0.002208926151056842
0.002208926151054685
0.002208926151057495
0.002208926151056312
0.002208926151055366
0.002208926151056182
0.002208926151056318
0.002208926151056128
0.002208926151056924
0.002208926151056851
0.002208926151054643
0.002208926151056239
0.002208926151055706
0.002208926151053506
0.002208926151056468
0.002208926151055237
0.002208926151053098
0.002208926151055624
0.002208926151056099
0.002208926151054411
0.002208926151057037
0.002208926151055074
0.002208926151053961
0.00220892615105499
0.002208926151055785
0.002208926151054231
0.002208926151052692
0.002208926151055706
0.002208926151055572
0.002208926151056866
0.002208926151054933
0.00220892615105159
0.0028887905646307
0.002888790564629202
0.002888790564621265
0.002888790564615465
0.002888790564617327
0.002888790564616465
0.002888790564615907
0.00288879056461517
0.002888790564618166
0.002888790564615979
0.002888790564614512
0.002888790564618072
0.002888790564616776
0.002888790564614688
0.002888790564618415
0.002888790564616947
0.002888790564614981
0.002888790564617236
0.002888790564618373
0.002888790564613575
0.002888790564617437
0.002888790564616054
0.002888790564613877
0.002888790564616457
0.002888790564617264
0.002888790564612265
0.002888790564615603
0.002888790564616067
0.002888790564611044
0.002888790564614924
0.002888790564616733
0.002888790564612404
0.002888790564616595
0.002888790564617911
0.00288879056461279
0.002888790564617292
0.002888790564616156
0.002888790564615202
0.002888790564611915
0.002888790564615316
0.002888790564613409
0.002888790564615857
0.002888790564614162
0.002888790564609812
0.003553163712785798
0.003553163712780279
0.003553163712781565
0.003553163712769653
0.00355316371277115
0.003553163712774397
0.003553163712767191
0.003553163712760908
0.003553163712767816
0.003553163712770636
0.003553163712761162
0.00355316371276738
0.003553163712771405
0.003553163712762182
0.003553163712768362
0.003553163712772209
0.003553163712762848
0.003553163712770687
0.003553163712768249
0.0035531637127638
0.003553163712767638
0.003553163712770995
0.003553163712761053
0.003553163712769049
0.003553163712766004
0.003553163712762678
0.00355316371276765
0.003553163712763834
0.003553163712760061
0.00355316371276684
0.003553163712765046
0.003553163712762058
0.00355316371276913
0.003553163712767407
0.003553163712763266
0.003553163712768436
0.003553163712771422
0.003553163712762228
0.003553163712765571
0.003553163712769317
0.003553163712758812
0.00355316371276748
0.00355316371276266
0.003553163712757508
0.004333402211725191
0.004333402211724031
0.004333402211726306
0.004333402211719683
0.004333402211711286
0.004333402211717627
0.004333402211705901
0.004333402211696626
0.004333402211710907
0.004333402211707549
0.004333402211701542
0.004333402211713053
0.004333402211708201
0.004333402211702785
0.004333402211714565
0.004333402211710033
0.004333402211704519
0.004333402211712075
0.004333402211719995
0.004333402211700159
0.004333402211713541
0.004333402211708628
0.004333402211701761
0.004333402211708938
0.004333402211715321
0.004333402211698357
0.004333402211704746
0.00433340221171121
0.004333402211694711
0.00433340221170469
0.004333402211713224
0.004333402211696353
0.00433340221170757
0.004333402211716723
0.004333402211698726
0.004333402211714877
0.0043334022117091
0.004333402211703273
0.004333402211713164
0.004333402211707878
0.004333402211699455
0.004333402211705991
0.004333402211711791
0.004333402211690686
0.005216768377358057
0.005216768377353683
0.005216768377355387
0.005216768377347618
0.005216768377341063
0.005216768377346143
0.005216768377335207
0.005216768377323488
0.005216768377345751
0.005216768377335464
0.005216768377327512
0.005216768377337009
0.005216768377350097
0.005216768377323354
0.005216768377337469
0.005216768377354347
0.00521676837732731
0.005216768377353916
0.005216768377344152
0.005216768377330566
0.00521676837733857
0.005216768377352123
0.00521676837732137
0.005216768377329603
0.005216768377350313
0.005216768377320561
0.005216768377320808
0.00521676837732572
0.005216768377326148
0.00521676837734444
0.005216768377328744
0.005216768377320862
0.005216768377333059
0.005216768377348263
0.005216768377320544
0.005216768377339296
0.00521676837735177
0.005216768377324335
0.005216768377348959
0.005216768377334952
0.005216768377323287
0.005216768377341048
0.005216768377328444
0.005216768377316068
0.005925179937384167
0.005925179937380645
0.005925179937398484
0.005925179937385879
0.005925179937414758
0.005925179937407885
0.005925179937356984
0.005925179937343443
0.005925179937373762
0.005925179937374321
0.005925179937343097
0.005925179937349522
0.005925179937349459
0.005925179937360567
0.005925179937352409
0.005925179937371107
0.005925179937367686
0.005925179937390125
0.005925179937405175
0.005925179937342204
0.005925179937349994
0.005925179937346109
0.005925179937375513
0.005925179937317072
0.00592517993735057
0.005925179937378599
0.005925179937330019
0.00592517993736962
0.005925179937358403
0.005925179937360448
0.005925179937325279
0.005925179937348387
0.005925179937360133
0.005925179937330122
0.005925179937362835
0.005925179937356339
0.005925179937345852
0.005925179937362733
0.005925179937388552
0.005925179937377256
0.005925179937332479
0.005925179937328185
0.005925179937336266
0.005925179937331071
0.006195421038727381
0.006195421038717417
0.006195421038703869
0.006195421038736526
0.00619542103873571
0.00619542103869131
0.00619542103869945
0.006195421038701921
0.00619542103870465
0.006195421038708285
0.00619542103870585
0.006195421038710999
0.006195421038701511
0.00619542103873912
0.006195421038720552
0.006195421038734768
0.00619542103870434
0.006195421038737018
0.006195421038715994
0.006195421038688661
0.006195421038704852
0.006195421038737907
0.006195421038724292
0.006195421038713784
0.006195421038662356
0.00619542103871566
0.00619542103868433
0.006195421038665375
0.006195421038698155
0.006195421038673781
0.006195421038640194
0.006195421038621172
0.006195421038660517
0.006195421038699195
0.006195421038629596
0.006195421038639298
0.006195421038643409
0.006195421038653852
0.006195421038659108
0.006195421038668074
0.006195421038652269
0.006195421038661755
0.006195421038687412
0.00619542103861596
0.006032593681544395
0.006032593681630633
0.006032593681655555
0.00603259368168513
0.006032593681625083
0.006032593681661734
0.00603259368164595
0.006032593681627446
0.006032593681649631
0.006032593681628315
0.00603259368164146
0.006032593681609972
0.006032593681637687
0.006032593681575035
0.006032593681580946
0.006032593681585379
0.006032593681578346
0.006032593681622607
0.006032593681586965
0.006032593681546926
0.006032593681536434
0.006032593681518598
0.006032593681527539
0.006032593681495508
0.006032593681488988
0.006032593681468134
0.006032593681466225
0.006032593681454308
0.006032593681456155
0.006032593681482187
0.006032593681467758
0.00603259368140373
0.006032593681410814
0.006032593681437967
0.006032593681407844
0.00603259368145072
0.006032593681425448
0.006032593681400917
0.006032593681443433
0.006032593681417981
0.006032593681392221
0.006032593681433888
0.006032593681405931
0.006032593681393604
0.005661195009318569
0.005661195009897361
0.005661195009868649
0.005661195009786795
0.005661195009691026
0.005661195009618811
0.005661195009552969
0.005661195009499337
0.005661195009461017
0.005661195009386898
0.005661195009347239
0.00566119500931189
0.005661195009232933
0.005661195009179725
0.005661195009047177
0.005661195009043686
0.005661195009037644
0.005661195009005453
0.005661195008986031
0.005661195008989146
0.005661195008952639
0.00566119500894203
0.005661195008960386
0.005661195008891269
0.005661195008910306
0.005661195008878994
0.005661195008884065
0.005661195008902197
0.005661195008822469
0.005661195008834211
0.005661195008836213
0.005661195008882874
0.005661195008849007
0.00566119500881497
0.005661195008819036
0.00566119500884745
0.005661195008833267
0.005661195008762427
0.005661195008774025
0.005661195008806172
0.005661195008750794
0.005661195008772226
0.005661195008772315
0.005661195008955038
0.006032593655329622
0.006032593655417951
0.00603259365548036
0.00603259365551006
0.006032593655519955
0.006032593655523192
0.006032593655526062
0.006032593655521752
0.006032593655526933
0.006032593655511277
0.006032593655513343
0.006032593655501199
0.0060325936554997
0.006032593655472226
0.006032593655457791
0.006032593655451491
0.006032593655452182
0.006032593655448424
0.006032593655420349
0.006032593655433908
0.006032593655412049
0.006032593655397806
0.006032593655400757
0.006032593655394544
0.006032593655397859
0.006032593655403391
0.00603259365534668
0.006032593655345022
0.006032593655347472
0.006032593655323666
0.006032593655341928
0.006032593655315502
0.006032593655342462
0.006032593655330873
0.006032593655311797
0.006032593655320755
0.006032593655297542
0.006032593655289541
0.006032593655283746
0.006032593655291079
0.006032593655276072
0.006032593655281844
0.006032593655267571
0.006032593655264509
0.006195421010083179
0.006195421010073711
0.006195421010084928
0.006195421010091822
0.006195421010100575
0.00619542101011106
0.00619542101009869
0.006195421010106941
0.006195421010105076
0.006195421010110792
0.006195421010106814
0.006195421010116966
0.006195421010115534
0.006195421010110964
0.006195421010121031
0.006195421010110077
0.006195421010112317
0.006195421010114474
0.006195421010118038
0.006195421010112855
0.006195421010109318
0.006195421010113483
0.0061954210101232
0.006195421010108895
0.006195421010103542
0.006195421010111857
0.006195421010099811
0.006195421010091704
0.006195421010094957
0.006195421010088443
0.006195421010100145
0.006195421010093429
0.00619542101010542
0.006195421010085923
0.006195421010075915
0.006195421010087237
0.006195421010080171
0.006195421010070905
0.006195421010068498
0.006195421010064103
0.006195421010058114
0.006195421010065509
0.006195421010071546
0.006195421010051933
0.005925179916194613
0.005925179916192926
0.005925179916196202
0.005925179916193887
0.005925179916185253
0.00592517991618254
0.005925179916172031
0.005925179916172467
0.005925179916170784
0.005925179916180912
0.00592517991617797
0.005925179916176386
0.005925179916180258
0.005925179916180267
0.005925179916189451
0.005925179916190442
0.005925179916186
0.005925179916188016
0.00592517991618604
0.005925179916192585
0.005925179916200516
0.005925179916188766
0.005925179916196167
0.005925179916191945
0.005925179916196264
0.005925179916204133
0.005925179916188682
0.005925179916190812
0.00592517991619092
0.005925179916200289
0.005925179916196069
0.005925179916192964
0.005925179916201221
0.005925179916194189
0.005925179916187906
0.005925179916196539
0.005925179916190902
0.005925179916184697
0.005925179916186436
0.005925179916193286
0.005925179916176858
0.005925179916188942
0.005925179916184762
0.00592517991617932
0.005216768365145297
0.005216768365143047
0.005216768365146464
0.005216768365151487
0.005216768365132708
0.005216768365116538
0.005216768365121117
0.00521676836511592
0.005216768365112073
0.005216768365117979
0.005216768365125767
0.005216768365113097
0.00521676836512058
0.005216768365127752
0.005216768365116152
0.005216768365123954
0.005216768365120186
0.005216768365123831
0.005216768365123197
0.005216768365129864
0.005216768365125914
0.005216768365130455
0.005216768365138033
0.005216768365125915
0.005216768365132432
0.005216768365130842
0.005216768365127752
0.005216768365128856
0.005216768365131065
0.005216768365134099
0.005216768365134323
0.005216768365139804
0.005216768365143288
0.005216768365130252
0.005216768365135242
0.005216768365132807
0.005216768365137143
0.005216768365131782
0.005216768365137244
0.005216768365128329
0.005216768365128418
0.005216768365131779
0.00521676836513794
0.005216768365123641
0.004333402205889895
0.004333402205885798
0.004333402205884383
0.004333402205889268
0.004333402205879651
0.004333402205877864
0.004333402205858759
0.004333402205863639
0.004333402205859582
0.004333402205864873
0.004333402205870702
0.004333402205860363
0.004333402205866399
0.004333402205872173
0.004333402205861644
0.004333402205868477
0.00433340220586493
0.00433340220587203
0.004333402205864322
0.004333402205872288
0.004333402205868943
0.004333402205877517
0.004333402205874233
0.004333402205871747
0.004333402205872211
0.004333402205871814
0.004333402205873993
0.004333402205877198
0.004333402205875921
0.004333402205876966
0.004333402205876793
0.004333402205882146
0.004333402205885089
0.004333402205874008
0.004333402205876762
0.004333402205877511
0.00433340220587877
0.004333402205876617
0.004333402205871848
0.004333402205873788
0.004333402205873488
0.004333402205877683
0.004333402205881
0.004333402205869441
0.00355316371053988
0.003553163710535881
0.00355316371053619
0.003553163710529258
0.003553163710529106
0.003553163710521619
0.003553163710514931
0.003553163710516993
0.00355316371051462
0.003553163710520367
0.003553163710519295
0.003553163710517491
0.003553163710522073
0.00355316371052052
0.00355316371051804
0.00355316371052148
0.003553163710518978
0.003553163710517968
0.003553163710521401
0.003553163710521044
0.003553163710521973
0.003553163710525318
0.003553163710525804
0.003553163710526325
0.003553163710525534
0.003553163710526935
0.003553163710526264
0.003553163710528911
0.00355316371052603
0.003553163710529823
0.003553163710523479
0.003553163710532311
0.003553163710529439
0.003553163710526982
0.003553163710530329
0.003553163710527274
0.003553163710525134
0.00355316371052828
0.003553163710522668
0.003553163710525065
0.003553163710524112
0.003553163710528859
0.003553163710526505
0.003553163710523945
0.002888790564433784
0.002888790564432107
0.002888790564429954
0.002888790564421865
0.002888790564419287
0.002888790564412852
0.002888790564414961
0.002888790564413626
0.002888790564412822
0.002888790564416885
0.002888790564415414
0.002888790564415966
0.002888790564417111
0.002888790564416631
0.002888790564417501
0.002888790564415626
0.002888790564417184
0.002888790564416335
0.002888790564415695
0.002888790564417433
0.002888790564417189
0.002888790564420705
0.002888790564419406
0.00288879056442089
0.002888790564422452
0.002888790564419139
0.002888790564421448
0.002888790564421021
0.002888790564419902
0.002888790564423099
0.002888790564416903
0.002888790564422595
0.002888790564422758
0.002888790564420881
0.002888790564423398
0.002888790564420765
0.002888790564419094
0.00288879056441761
0.002888790564420874
0.002888790564419792
0.002888790564419914
0.002888790564422097
0.0028887905644207
0.002888790564420226
0.002208926152138707
0.002208926152136654
0.002208926152131695
0.002208926152125475
0.002208926152122847
0.002208926152120478
0.002208926152123789
0.002208926152122862
0.002208926152121457
0.002208926152124322
0.002208926152124074
0.002208926152124167
0.002208926152123384
0.002208926152124333
0.002208926152125513
0.002208926152124893
0.002208926152125154
0.002208926152124885
0.002208926152123688
0.002208926152124863
0.002208926152123371
0.002208926152125808
0.002208926152126318
0.002208926152127574
0.002208926152128703
0.00220892615212704
0.002208926152127458
0.002208926152126475
0.00220892615212581
0.002208926152125523
0.002208926152126087
0.002208926152126405
0.002208926152127896
0.002208926152127838
0.002208926152129381
0.00220892615212634
0.002208926152123719
0.002208926152122592
0.002208926152127105
0.002208926152127079
0.002208926152127796
0.00220892615212719
0.002208926152128762
0.002208926152126627
0.001338424548412138
0.00133842454841536
0.001338424548413676
0.001338424548410709
0.001338424548410973
0.001338424548410248
0.001338424548411248
0.001338424548410276
0.001338424548409216
0.001338424548410242
0.001338424548410264
0.001338424548409698
0.001338424548410977
0.001338424548410684
0.00133842454841142
0.001338424548410592
0.001338424548411347
0.001338424548410403
0.001338424548410834
0.001338424548410158
0.001338424548410724
0.00133842454841027
0.00133842454841142
0.001338424548410499
0.001338424548411861
0.00133842454841022
0.001338424548411576
0.001338424548410022
0.001338424548411099
0.001338424548409408
0.001338424548411259
0.001338424548409634
0.001338424548411774
0.00133842454840975
0.001338424548412072
0.001338424548409245
0.001338424548410659
0.001338424548408149
0.00133842454841143
0.001338424548408899
0.001338424548411639
0.001338424548408456
0.001338424548411945
0.001338424548407058
0.0005433764079433717
0.0005433764079436107
0.0005433764079436012
0.0005433764079434123
0.0005433764079434234
0.0005433764079433545
0.0005433764079434153
0.000543376407943351
0.0005433764079432727
0.0005433764079433108
0.0005433764079433431
0.0005433764079432906
0.0005433764079433766
0.0005433764079433276
0.0005433764079434011
0.000543376407943326
0.0005433764079433834
0.0005433764079433201
0.000543376407943356
0.0005433764079432864
0.0005433764079433691
0.0005433764079432874
0.0005433764079433976
0.000543376407943304
0.0005433764079434312
0.0005433764079432832
0.0005433764079434164
0.0005433764079432607
0.0005433764079433992
0.0005433764079432174
0.0005433764079433965
0.0005433764079432139
0.0005433764079434375
0.0005433764079432289
0.0005433764079434556
0.0005433764079432006
0.0005433764079433779
0.0005433764079431123
0.0005433764079434167
0.0005433764079431448
0.0005433764079434263
0.0005433764079431288
0.0005433764079434575
0.000543376407943089
)
;

boundaryField
{
    inlet
    {
        type            cyclic;
    }
    outlet
    {
        type            cyclic;
    }
    bottomWall
    {
        type            fixedValue;
        value           uniform 0.0015;
    }
    topWall
    {
        type            fixedValue;
        value           uniform 0.0015;
    }
    left
    {
        type            cyclic;
    }
    right
    {
        type            cyclic;
    }
}


// ************************************************************************* //
