/*--------------------------------*- C++ -*----------------------------------*\
| =========                 |                                                 |
| \\      /  F ield         | OpenFOAM: The Open Source CFD Toolbox           |
|  \\    /   O peration     | Version:  v1812                                 |
|   \\  /    A nd           | Web:      www.OpenFOAM.com                      |
|    \\/     M anipulation  |                                                 |
\*---------------------------------------------------------------------------*/
FoamFile
{
    version     2.0;
    format      ascii;
    class       volScalarField;
    location    "3000";
    object      nuTilda_0;
}
// * * * * * * * * * * * * * * * * * * * * * * * * * * * * * * * * * * * * * //

dimensions      [0 2 -1 0 0 0 0];


internalField   nonuniform List<scalar> 
924
(
0.0005433764078005667
0.0005433764078005916
0.0005433764078004985
0.000543376407800431
0.0005433764078004669
0.0005433764078004445
0.0005433764078004882
0.0005433764078003836
0.0005433764078004709
0.0005433764078004565
0.0005433764078004587
0.0005433764078004618
0.0005433764078004284
0.0005433764078004081
0.0005433764078004606
0.0005433764078003874
0.000543376407800294
0.000543376407800375
0.0005433764078004319
0.0005433764078004037
0.0005433764078004318
0.0005433764078003318
0.0005433764078004119
0.0005433764078003414
0.0005433764078004133
0.0005433764078003813
0.0005433764078004481
0.0005433764078003955
0.000543376407800427
0.0005433764078003858
0.0005433764078004365
0.0005433764078003599
0.0005433764078004679
0.000543376407800381
0.0005433764078004415
0.000543376407800361
0.0005433764078004804
0.0005433764078003147
0.0005433764078004171
0.0005433764078002919
0.0005433764078004518
0.0005433764078002597
0.0005433764078004315
0.0005433764078001408
0.001338424546743439
0.001338424546742302
0.001338424546740569
0.001338424546740275
0.001338424546741042
0.001338424546741182
0.001338424546741716
0.001338424546740209
0.001338424546741645
0.001338424546741795
0.001338424546741754
0.001338424546741835
0.001338424546741226
0.001338424546740863
0.001338424546741712
0.001338424546740927
0.001338424546739582
0.001338424546740523
0.001338424546741501
0.001338424546740932
0.001338424546741151
0.001338424546739924
0.001338424546740894
0.001338424546740348
0.001338424546740669
0.001338424546740378
0.001338424546741422
0.001338424546740591
0.001338424546740872
0.001338424546740651
0.001338424546741194
0.001338424546740016
0.001338424546741582
0.001338424546740452
0.001338424546741045
0.001338424546740131
0.00133842454674166
0.001338424546739719
0.00133842454674071
0.001338424546739889
0.001338424546741225
0.001338424546739884
0.001338424546740611
0.001338424546738469
0.002208926151098722
0.002208926151094652
0.002208926151086885
0.002208926151084707
0.002208926151084143
0.002208926151083267
0.002208926151085532
0.002208926151083565
0.002208926151087185
0.002208926151087529
0.002208926151086453
0.002208926151088221
0.00220892615108682
0.002208926151085453
0.002208926151088217
0.002208926151087517
0.002208926151085511
0.002208926151086775
0.002208926151087419
0.002208926151086438
0.002208926151086755
0.002208926151085921
0.002208926151086248
0.002208926151087145
0.002208926151085657
0.002208926151084467
0.00220892615108689
0.002208926151085765
0.002208926151084084
0.002208926151085864
0.002208926151085755
0.002208926151083771
0.00220892615108726
0.002208926151086449
0.002208926151084507
0.002208926151086261
0.002208926151086659
0.002208926151084336
0.002208926151082936
0.0022089261510862
0.002208926151085847
0.002208926151087046
0.002208926151084708
0.002208926151081805
0.002888790564675343
0.002888790564671055
0.002888790564664862
0.00288879056466061
0.002888790564661204
0.002888790564658251
0.002888790564660448
0.002888790564658722
0.002888790564661591
0.002888790564662325
0.002888790564658068
0.002888790564661976
0.00288879056466316
0.002888790564658272
0.002888790564662215
0.002888790564663321
0.002888790564658118
0.002888790564661938
0.002888790564660742
0.002888790564658582
0.002888790564660756
0.00288879056466164
0.002888790564657212
0.002888790564661416
0.002888790564659667
0.002888790564657647
0.00288879056466079
0.002888790564658782
0.002888790564656931
0.002888790564660479
0.002888790564659638
0.002888790564658004
0.002888790564662125
0.002888790564660839
0.002888790564658416
0.002888790564661489
0.00288879056466265
0.002888790564658451
0.002888790564655626
0.002888790564659486
0.00288879056465781
0.002888790564660227
0.002888790564659096
0.002888790564652571
0.003553163712845005
0.003553163712845661
0.003553163712839203
0.003553163712832905
0.003553163712835346
0.003553163712831436
0.003553163712829105
0.003553163712827681
0.003553163712833479
0.003553163712828586
0.003553163712825404
0.003553163712832319
0.003553163712830218
0.003553163712826453
0.003553163712833096
0.003553163712830669
0.003553163712826569
0.003553163712830648
0.00355316371283383
0.003553163712823724
0.003553163712831169
0.003553163712828797
0.003553163712824611
0.003553163712829112
0.003553163712832103
0.003553163712822857
0.003553163712827085
0.003553163712830128
0.003553163712820729
0.003553163712827276
0.003553163712831768
0.003553163712823287
0.003553163712829809
0.003553163712834172
0.003553163712823883
0.003553163712832762
0.00355316371282981
0.003553163712825909
0.003553163712829694
0.003553163712825966
0.003553163712822618
0.003553163712827249
0.003553163712828533
0.003553163712816818
0.004333402211814216
0.004333402211810493
0.004333402211816239
0.004333402211813456
0.00433340221180078
0.004333402211809678
0.00433340221178774
0.00433340221179036
0.004333402211799839
0.004333402211803649
0.004333402211786231
0.004333402211796527
0.004333402211805702
0.004333402211788376
0.004333402211798298
0.004333402211807242
0.004333402211789667
0.004333402211804051
0.004333402211798816
0.004333402211791387
0.004333402211797453
0.004333402211805656
0.004333402211786405
0.004333402211801038
0.004333402211795269
0.004333402211790858
0.004333402211797163
0.004333402211791263
0.004333402211785842
0.004333402211797891
0.004333402211794024
0.004333402211789244
0.004333402211801346
0.004333402211798051
0.004333402211791464
0.004333402211799553
0.004333402211806532
0.004333402211788189
0.004333402211796882
0.004333402211803598
0.004333402211783154
0.004333402211797827
0.004333402211789935
0.00433340221178105
0.005216768377488033
0.005216768377475892
0.005216768377484418
0.005216768377481917
0.005216768377469149
0.005216768377476528
0.005216768377457098
0.005216768377459399
0.005216768377469926
0.005216768377481103
0.005216768377450274
0.005216768377471859
0.005216768377463262
0.005216768377456994
0.005216768377475233
0.005216768377467194
0.005216768377461681
0.005216768377473175
0.00521676837748622
0.005216768377451142
0.005216768377472797
0.005216768377464738
0.005216768377455495
0.005216768377466506
0.005216768377462985
0.005216768377462059
0.005216768377450933
0.005216768377455347
0.005216768377451959
0.005216768377459747
0.005216768377473083
0.005216768377445299
0.005216768377472003
0.005216768377463293
0.005216768377456973
0.0052167683774785
0.005216768377464619
0.005216768377457653
0.005216768377468427
0.005216768377478742
0.005216768377445586
0.005216768377459246
0.005216768377471662
0.005216768377435214
0.005925179937559874
0.005925179937551322
0.005925179937562076
0.00592517993758591
0.005925179937568934
0.00592517993756016
0.005925179937555383
0.005925179937518111
0.005925179937528424
0.005925179937531862
0.005925179937536725
0.005925179937527941
0.00592517993753501
0.00592517993755924
0.0059251799375202
0.005925179937558412
0.00592517993754607
0.00592517993758517
0.005925179937546137
0.005925179937520866
0.005925179937529656
0.005925179937518173
0.005925179937525428
0.005925179937531522
0.005925179937558415
0.005925179937529615
0.005925179937515127
0.005925179937538452
0.005925179937563007
0.005925179937551704
0.005925179937494583
0.005925179937505359
0.005925179937518966
0.005925179937523865
0.005925179937538854
0.005925179937564748
0.005925179937516572
0.005925179937555881
0.005925179937542102
0.005925179937525818
0.005925179937524292
0.005925179937519499
0.005925179937520221
0.005925179937505205
0.006195421038929426
0.006195421038968329
0.006195421038910317
0.006195421038919358
0.006195421038922032
0.006195421038923224
0.006195421038922649
0.006195421038923172
0.006195421038922544
0.006195421038930374
0.006195421038921844
0.006195421038937736
0.00619542103891304
0.00619542103893675
0.00619542103897383
0.006195421038970872
0.006195421038906959
0.00619542103892919
0.006195421038963232
0.006195421038890996
0.006195421038940655
0.006195421038927025
0.006195421038909637
0.006195421038905598
0.006195421038902955
0.006195421038920543
0.006195421038935827
0.006195421038875958
0.006195421038893065
0.006195421038927205
0.006195421038843653
0.006195421038853799
0.006195421038922956
0.006195421038886987
0.00619542103886037
0.006195421038871307
0.006195421038869451
0.006195421038888997
0.006195421038887491
0.006195421038901906
0.006195421038865701
0.00619542103889545
0.006195421038867919
0.006195421038844205
0.006032593681780048
0.006032593681842118
0.006032593681853561
0.006032593681876908
0.006032593681881205
0.006032593681923943
0.006032593681867124
0.006032593681874134
0.006032593681912545
0.006032593681850665
0.006032593681890241
0.006032593681827062
0.006032593681830572
0.006032593681836069
0.006032593681833319
0.006032593681837949
0.006032593681820025
0.006032593681837406
0.006032593681866098
0.006032593681764251
0.006032593681778694
0.00603259368174808
0.006032593681779398
0.006032593681719732
0.006032593681733203
0.006032593681693581
0.006032593681711862
0.006032593681689849
0.006032593681706029
0.006032593681673044
0.006032593681667703
0.006032593681665391
0.006032593681667703
0.006032593681704848
0.00603259368162984
0.006032593681664917
0.006032593681705351
0.006032593681627852
0.006032593681656599
0.006032593681696259
0.006032593681617479
0.006032593681644947
0.00603259368168051
0.006032593681619976
0.005661195009520332
0.005661195010091944
0.005661195010051954
0.005661195009971871
0.005661195009872193
0.005661195009800773
0.005661195009736116
0.005661195009687066
0.005661195009645786
0.005661195009557841
0.005661195009522756
0.005661195009471877
0.005661195009377494
0.00566119500932202
0.005661195009247104
0.005661195009252429
0.005661195009269738
0.005661195009189477
0.0056611950091906
0.005661195009205183
0.005661195009133568
0.005661195009144452
0.00566119500911323
0.005661195009102553
0.005661195009129052
0.005661195009060033
0.00566119500909421
0.005661195009053159
0.005661195009027559
0.005661195009048453
0.005661195009041859
0.005661195009065542
0.005661195009077605
0.005661195008989111
0.005661195009026954
0.005661195009009918
0.00566119500898922
0.005661195008971437
0.00566119500898704
0.005661195008966086
0.005661195008964966
0.005661195008985669
0.005661195008949035
0.005661195009148731
0.006032593655426586
0.006032593655508716
0.006032593655564153
0.006032593655604062
0.006032593655604022
0.006032593655603402
0.006032593655608353
0.006032593655601251
0.006032593655614899
0.006032593655586047
0.006032593655603683
0.006032593655582161
0.006032593655590801
0.006032593655543533
0.006032593655545526
0.006032593655544881
0.006032593655551094
0.006032593655542392
0.006032593655507628
0.006032593655512597
0.006032593655517502
0.006032593655482041
0.006032593655497933
0.006032593655489744
0.006032593655496604
0.006032593655467345
0.006032593655432386
0.006032593655438057
0.006032593655432502
0.006032593655417325
0.006032593655420192
0.006032593655421308
0.006032593655430291
0.006032593655438057
0.006032593655391123
0.006032593655393044
0.006032593655396616
0.006032593655378818
0.006032593655380158
0.006032593655392018
0.006032593655359231
0.006032593655378829
0.006032593655350308
0.006032593655360061
0.006195421010133946
0.006195421010136978
0.006195421010147789
0.006195421010145901
0.006195421010157397
0.006195421010155516
0.00619542101015317
0.006195421010164751
0.006195421010155592
0.00619542101016806
0.006195421010156766
0.006195421010166435
0.006195421010178595
0.006195421010162985
0.006195421010168731
0.006195421010170916
0.006195421010177529
0.00619542101017221
0.006195421010179056
0.006195421010166689
0.006195421010169563
0.006195421010180427
0.006195421010173286
0.006195421010173134
0.006195421010157108
0.006195421010160608
0.006195421010165704
0.006195421010145401
0.006195421010157283
0.006195421010144483
0.006195421010154134
0.006195421010162383
0.006195421010155236
0.006195421010152065
0.006195421010132933
0.006195421010140789
0.006195421010148564
0.006195421010124592
0.006195421010127995
0.006195421010120029
0.006195421010122777
0.006195421010134589
0.006195421010119347
0.006195421010113851
0.005925179916249268
0.005925179916247533
0.00592517991624957
0.005925179916254845
0.005925179916234205
0.005925179916234414
0.005925179916218473
0.005925179916226476
0.005925179916222674
0.005925179916230226
0.005925179916239663
0.005925179916228568
0.005925179916236998
0.005925179916233625
0.00592517991623707
0.005925179916238884
0.005925179916242277
0.005925179916250572
0.005925179916238757
0.005925179916251971
0.005925179916248642
0.005925179916246992
0.005925179916255785
0.005925179916244324
0.005925179916255277
0.005925179916251274
0.005925179916247293
0.005925179916248792
0.005925179916246831
0.005925179916251551
0.005925179916260129
0.00592517991624643
0.005925179916250559
0.005925179916257563
0.005925179916240243
0.005925179916247006
0.005925179916254585
0.005925179916236908
0.005925179916245018
0.005925179916241078
0.005925179916236322
0.005925179916241759
0.005925179916249539
0.005925179916232919
0.005216768365206755
0.005216768365199477
0.00521676836520702
0.005216768365198685
0.005216768365191605
0.005216768365167953
0.005216768365171948
0.005216768365179592
0.005216768365166244
0.00521676836517816
0.005216768365176019
0.005216768365172788
0.00521676836518209
0.005216768365177737
0.005216768365175644
0.005216768365185048
0.005216768365174159
0.005216768365183167
0.005216768365179186
0.005216768365190465
0.005216768365179176
0.005216768365190631
0.005216768365188165
0.005216768365185686
0.005216768365193826
0.005216768365185805
0.005216768365186896
0.005216768365190689
0.005216768365189498
0.005216768365192714
0.005216768365191161
0.005216768365201024
0.005216768365191267
0.005216768365190202
0.005216768365196633
0.005216768365187836
0.005216768365197969
0.005216768365186255
0.005216768365187743
0.005216768365190673
0.005216768365186556
0.005216768365190813
0.005216768365187703
0.005216768365183502
0.004333402205941232
0.004333402205945729
0.004333402205936959
0.004333402205938366
0.004333402205939339
0.004333402205923797
0.004333402205911589
0.004333402205920238
0.004333402205911258
0.004333402205922135
0.004333402205919683
0.004333402205916965
0.004333402205923639
0.004333402205920698
0.004333402205918014
0.004333402205925559
0.004333402205916654
0.004333402205922328
0.004333402205922571
0.004333402205930505
0.004333402205920617
0.00433340220592909
0.004333402205932878
0.004333402205923683
0.004333402205925378
0.004333402205929951
0.004333402205929516
0.004333402205933872
0.004333402205929457
0.004333402205931443
0.004333402205931333
0.004333402205939382
0.004333402205933075
0.004333402205930746
0.004333402205932615
0.004333402205932192
0.004333402205934516
0.004333402205933268
0.004333402205924371
0.004333402205929079
0.004333402205927781
0.004333402205934931
0.004333402205929114
0.004333402205925941
0.003553163710586635
0.003553163710587614
0.003553163710584736
0.003553163710577734
0.003553163710578779
0.003553163710564991
0.003553163710565614
0.003553163710568134
0.003553163710561858
0.0035531637105684
0.00355316371057139
0.0035531637105651
0.003553163710569704
0.003553163710571789
0.003553163710565737
0.003553163710571177
0.003553163710569884
0.003553163710564966
0.003553163710569395
0.003553163710571886
0.003553163710570911
0.003553163710574549
0.003553163710574165
0.003553163710575804
0.003553163710574558
0.003553163710578166
0.003553163710575506
0.003553163710578952
0.003553163710572962
0.003553163710576665
0.003553163710577138
0.003553163710581259
0.003553163710581624
0.003553163710574782
0.003553163710577725
0.00355316371058015
0.003553163710572031
0.003553163710574511
0.003553163710575652
0.003553163710578416
0.003553163710571607
0.003553163710576
0.003553163710578302
0.003553163710571621
0.002888790564476597
0.002888790564476205
0.002888790564470774
0.002888790564464516
0.002888790564461151
0.002888790564454242
0.002888790564457646
0.002888790564458352
0.002888790564454545
0.002888790564459033
0.002888790564459663
0.002888790564459564
0.002888790564460079
0.002888790564461237
0.002888790564459556
0.002888790564459345
0.002888790564460259
0.002888790564459316
0.002888790564460042
0.002888790564462569
0.002888790564459065
0.002888790564463828
0.002888790564463835
0.002888790564462929
0.002888790564464398
0.002888790564464525
0.002888790564465345
0.002888790564465634
0.002888790564462119
0.002888790564465004
0.002888790564465748
0.00288879056446821
0.002888790564467282
0.0028887905644649
0.002888790564466536
0.002888790564465557
0.002888790564462449
0.002888790564460947
0.002888790564464803
0.00288879056446497
0.002888790564462325
0.00288879056446402
0.00288879056446502
0.002888790564463324
0.002208926152175203
0.002208926152172814
0.002208926152167747
0.002208926152161529
0.00220892615215833
0.002208926152156375
0.002208926152159965
0.00220892615215943
0.002208926152156813
0.00220892615215974
0.002208926152159225
0.002208926152160451
0.0022089261521615
0.002208926152161831
0.002208926152160957
0.002208926152162042
0.002208926152163121
0.002208926152161882
0.002208926152161011
0.002208926152161478
0.002208926152161739
0.002208926152163523
0.002208926152164373
0.002208926152163943
0.00220892615216481
0.00220892615216293
0.002208926152164325
0.002208926152164603
0.002208926152162021
0.002208926152162014
0.002208926152163789
0.002208926152165819
0.002208926152166219
0.002208926152164439
0.002208926152165865
0.002208926152164318
0.002208926152160291
0.002208926152159311
0.002208926152163975
0.002208926152163949
0.002208926152164491
0.002208926152163708
0.002208926152165381
0.002208926152163197
0.001338424548437709
0.001338424548440915
0.001338424548439114
0.001338424548436125
0.00133842454843628
0.001338424548435644
0.001338424548436728
0.00133842454843633
0.001338424548434973
0.0013384245484348
0.001338424548436238
0.001338424548436251
0.001338424548436932
0.001338424548436479
0.00133842454843693
0.001338424548436338
0.001338424548437277
0.001338424548436195
0.001338424548436663
0.001338424548435766
0.001338424548436676
0.001338424548436085
0.001338424548437281
0.001338424548436042
0.001338424548437381
0.001338424548435818
0.001338424548437349
0.001338424548435958
0.001338424548436839
0.001338424548435116
0.001338424548436984
0.001338424548435751
0.001338424548437748
0.001338424548435361
0.001338424548437647
0.001338424548435052
0.001338424548436323
0.001338424548433755
0.00133842454843705
0.00133842454843454
0.001338424548437296
0.001338424548434059
0.001338424548437531
0.001338424548432638
0.0005433764079455122
0.0005433764079457509
0.0005433764079457365
0.0005433764079455447
0.0005433764079455506
0.0005433764079454873
0.0005433764079455526
0.0005433764079455291
0.0005433764079454501
0.0005433764079454094
0.0005433764079455064
0.0005433764079454871
0.0005433764079455432
0.000543376407945483
0.0005433764079455403
0.000543376407945477
0.000543376407945546
0.0005433764079454759
0.0005433764079455127
0.0005433764079454322
0.0005433764079455336
0.0005433764079454445
0.0005433764079455574
0.0005433764079454454
0.0005433764079455715
0.0005433764079454257
0.0005433764079455682
0.0005433764079454237
0.0005433764079455496
0.0005433764079453657
0.0005433764079455481
0.000543376407945387
0.0005433764079456031
0.000543376407945374
0.0005433764079456001
0.0005433764079453555
0.0005433764079455258
0.0005433764079452573
0.0005433764079455609
0.0005433764079452897
0.0005433764079455717
0.0005433764079452709
0.0005433764079455983
0.0005433764079452297
)
;

boundaryField
{
    inlet
    {
        type            cyclic;
    }
    outlet
    {
        type            cyclic;
    }
    bottomWall
    {
        type            fixedValue;
        value           uniform 0.0015;
    }
    topWall
    {
        type            fixedValue;
        value           uniform 0.0015;
    }
    left
    {
        type            cyclic;
    }
    right
    {
        type            cyclic;
    }
}


// ************************************************************************* //
