/*--------------------------------*- C++ -*----------------------------------*\
| =========                 |                                                 |
| \\      /  F ield         | OpenFOAM: The Open Source CFD Toolbox           |
|  \\    /   O peration     | Version:  v1812                                 |
|   \\  /    A nd           | Web:      www.OpenFOAM.com                      |
|    \\/     M anipulation  |                                                 |
\*---------------------------------------------------------------------------*/
FoamFile
{
    version     2.0;
    format      ascii;
    class       volVectorField;
    location    "3000";
    object      U;
}
// * * * * * * * * * * * * * * * * * * * * * * * * * * * * * * * * * * * * * //

dimensions      [0 1 -1 0 0 0 0];


internalField   nonuniform List<vector> 
924
(
(0.2204984546234834 -8.189550278993729e-14 2.923585808967983e-05)
(0.2204984546247391 -1.667420558965716e-14 2.923675251960186e-05)
(0.2204984546244884 5.326996248650463e-14 2.923754431711495e-05)
(0.2204984546240672 2.312890901852245e-14 2.92370382732837e-05)
(0.2204984546238103 2.941840713735347e-15 2.923768681284011e-05)
(0.2204984546237164 -1.304569708835756e-15 2.923700084288692e-05)
(0.2204984546236305 -2.110708783292789e-15 2.923767658522935e-05)
(0.2204984546236444 -2.622776953007274e-15 2.923687393311302e-05)
(0.2204984546235677 4.345511264636211e-18 2.923762288725708e-05)
(0.2204984546236669 -2.58669518636338e-15 2.92367125150293e-05)
(0.2204984546235906 -3.675140289818798e-15 2.923755723792549e-05)
(0.2204984546236852 7.002170935620534e-16 2.923653444105662e-05)
(0.2204984546236039 1.853649370545565e-15 2.923749170452022e-05)
(0.2204984546236815 -2.224283129793578e-15 2.92363462967161e-05)
(0.2204984546235916 1.437465667324448e-15 2.923743144374075e-05)
(0.2204984546236946 -7.073766430965961e-16 2.923615009901787e-05)
(0.2204984546235235 2.716092130797713e-15 2.92373785875446e-05)
(0.220498454623614 2.298208228586679e-15 2.923594573944004e-05)
(0.2204984546234962 -1.722863168236586e-15 2.923733383711794e-05)
(0.2204984546236514 -4.537131129259515e-15 2.923573210983753e-05)
(0.2204984546234943 4.075668851884311e-15 2.923729723394215e-05)
(0.220498454623629 -8.404289810719233e-16 2.923550771279994e-05)
(0.220498454623487 2.741353487544993e-16 2.923726856556692e-05)
(0.2204984546236398 8.720086909315585e-16 2.923527104448459e-05)
(0.2204984546235251 1.569786659607665e-15 2.923724757517225e-05)
(0.2204984546236909 -3.910382317189895e-15 2.92350208747762e-05)
(0.220498454623567 3.057073774800225e-15 2.923723403528637e-05)
(0.2204984546237558 -1.143211195880192e-15 2.923475649445317e-05)
(0.2204984546236219 5.620560104947063e-16 2.923722769174652e-05)
(0.2204984546237878 -1.057190170888741e-15 2.923447798960708e-05)
(0.2204984546236211 1.501904347777554e-15 2.923722804072699e-05)
(0.2204984546238258 -6.614523716933517e-15 2.923418662886601e-05)
(0.2204984546236766 6.813997228262486e-15 2.923723384136801e-05)
(0.2204984546238333 -3.355890426898661e-15 2.923388552347117e-05)
(0.2204984546237204 1.417188817830187e-15 2.923724214872555e-05)
(0.2204984546237627 -9.581813853868125e-16 2.923358089599918e-05)
(0.2204984546237156 4.926843457904806e-15 2.923724641256809e-05)
(0.2204984546236598 -1.853438335807979e-15 2.923328474071287e-05)
(0.2204984546237028 5.035169469381505e-15 2.923723289417933e-05)
(0.2204984546234022 -1.204468487926722e-15 2.92330214487632e-05)
(0.2204984546238171 -1.244239766617479e-15 2.923717694019461e-05)
(0.2204984546230529 1.302686795994782e-14 2.923285267922824e-05)
(0.2204984546238725 -8.542331784129102e-16 2.923705693220199e-05)
(0.2204984546225996 1.145144476052932e-14 2.923287776021068e-05)
(0.5562432412888371 -2.507653231891062e-13 7.537036049316412e-05)
(0.5562432412905998 -1.696056483749865e-13 7.537875169543387e-05)
(0.5562432412904302 8.814409623389015e-14 7.538018021303425e-05)
(0.5562432412901335 8.421814739719754e-14 7.537867980228705e-05)
(0.5562432412897481 4.955117469358154e-14 7.538017702395883e-05)
(0.556243241289571 2.574807530268168e-14 7.53784034628954e-05)
(0.556243241289391 6.82548928063531e-15 7.53800472039234e-05)
(0.5562432412894375 3.111441905127726e-15 7.53780209443331e-05)
(0.5562432412892697 -1.489654372778664e-15 7.537986846384951e-05)
(0.5562432412894738 -4.670636175827991e-15 7.537758541503856e-05)
(0.556243241289253 -5.979175078469677e-15 7.537967997694088e-05)
(0.556243241289463 -2.698117371427614e-15 7.537712092504905e-05)
(0.5562432412893022 1.258701184550461e-15 7.537950026682434e-05)
(0.5562432412894622 3.033978548521784e-15 7.537663675210333e-05)
(0.5562432412891939 4.386270555928308e-15 7.537933763536277e-05)
(0.5562432412894927 4.20071450100528e-15 7.5376134767982e-05)
(0.556243241289083 1.191931543355103e-14 7.537919530709192e-05)
(0.5562432412893594 9.359482186679521e-15 7.537561310937965e-05)
(0.5562432412890471 3.952659823533446e-16 7.537907402574832e-05)
(0.5562432412893782 -7.44660581308393e-15 7.537506813601043e-05)
(0.5562432412890156 4.581610697673621e-15 7.537897345023924e-05)
(0.5562432412894081 -4.618904973433965e-15 7.537449558883526e-05)
(0.5562432412890627 -5.02612464121285e-15 7.537889294257487e-05)
(0.5562432412894942 -5.337346725267772e-15 7.537389136134308e-05)
(0.5562432412891547 5.504559084128537e-16 7.537883199790981e-05)
(0.556243241289534 -9.324454844660424e-15 7.537325208248694e-05)
(0.55624324128919 -4.965737410513561e-15 7.537879040720133e-05)
(0.5562432412897085 -9.5269523433558e-15 7.537257562890883e-05)
(0.5562432412892815 -1.813573595618979e-15 7.537876815476355e-05)
(0.5562432412897549 -8.774550969391062e-15 7.537186167308181e-05)
(0.556243241289354 8.288295770456422e-16 7.537876497946066e-05)
(0.5562432412898141 -1.63669828606083e-14 7.537111242161016e-05)
(0.5562432412894358 1.004667712981054e-14 7.537877942508493e-05)
(0.5562432412898924 -1.112567353580514e-14 7.537033382699569e-05)
(0.5562432412894865 1.274004426093367e-14 7.537880700328371e-05)
(0.5562432412897429 -1.612566672194093e-15 7.536953784808068e-05)
(0.5562432412895255 1.932319980565141e-14 7.537883664189402e-05)
(0.5562432412895791 -5.957824680918974e-15 7.536874692445787e-05)
(0.556243241289468 3.527571756217221e-14 7.537884328016484e-05)
(0.5562432412891822 -7.427762513995312e-15 7.536800167520902e-05)
(0.5562432412896352 1.806339738420288e-14 7.537876436413246e-05)
(0.5562432412887472 2.474816107153831e-14 7.536733578609611e-05)
(0.5562432412896825 6.501314745209397e-15 7.537824134965387e-05)
(0.5562432412881589 1.100881683322364e-13 7.536563451461276e-05)
(0.716947491301968 -3.509181038541706e-13 9.805954830633887e-05)
(0.7169474913028511 -2.576013603814511e-13 9.806773409573837e-05)
(0.7169474913029205 9.696230500413346e-14 9.806908570456859e-05)
(0.7169474913029414 1.04625080017194e-13 9.806712875936772e-05)
(0.7169474913027483 6.747087114231634e-14 9.806870250040943e-05)
(0.716947491302738 4.514272699586086e-14 9.806653062497262e-05)
(0.7169474913025027 1.889160199620021e-14 9.806834684864611e-05)
(0.7169474913025756 1.346124282567836e-14 9.806592964810993e-05)
(0.7169474913023448 2.322649597017569e-15 9.80680176881157e-05)
(0.7169474913025325 -2.515405020069636e-15 9.806532427945285e-05)
(0.7169474913022895 -3.080255461631255e-15 9.806771771065531e-05)
(0.716947491302484 -1.403137868013435e-15 9.806471330535546e-05)
(0.7169474913022819 -1.146027127432502e-15 9.806744870936005e-05)
(0.7169474913025188 8.348831043390631e-15 9.806409367122381e-05)
(0.7169474913021954 7.012269910102552e-15 9.80672108509812e-05)
(0.716947491302505 7.455179914138619e-15 9.806346051985929e-05)
(0.7169474913021429 1.615895261847027e-14 9.806700307571595e-05)
(0.716947491302467 1.168464658224263e-14 9.806280776479716e-05)
(0.7169474913021484 4.282442818407443e-16 9.806682369677955e-05)
(0.7169474913024706 -5.432147481110129e-15 9.80621287193446e-05)
(0.7169474913020986 1.841859687473284e-15 9.806667095572341e-05)
(0.7169474913025339 -7.485342506887938e-15 9.806141667053231e-05)
(0.7169474913021257 -7.161454778207693e-15 9.806654347539878e-05)
(0.7169474913025815 -1.127595490405737e-14 9.806066538072486e-05)
(0.7169474913022034 -7.290827193489265e-15 9.806644059117299e-05)
(0.716947491302667 -1.427647202014776e-14 9.805986952051831e-05)
(0.7169474913022517 -1.263125021987402e-14 9.806636254267644e-05)
(0.7169474913027922 -1.967208115009543e-14 9.805902504287021e-05)
(0.7169474913023655 -6.0051832345175e-15 9.806631050151388e-05)
(0.7169474913028701 -1.459721827661342e-14 9.805812951808072e-05)
(0.7169474913024634 -4.024508092610272e-15 9.806628640113613e-05)
(0.7169474913029481 -1.934387786034198e-14 9.805718246498121e-05)
(0.7169474913024868 1.233675324645122e-14 9.806629252471691e-05)
(0.7169474913029785 -1.961003173818114e-14 9.805618573655579e-05)
(0.7169474913025705 2.104416404971524e-14 9.806633079153783e-05)
(0.7169474913028892 -1.233574346331245e-15 9.805514404759285e-05)
(0.7169474913025943 2.771523850872545e-14 9.80664016590359e-05)
(0.7169474913028029 -9.238352157583456e-15 9.805406575975226e-05)
(0.7169474913025967 5.910006865944085e-14 9.806650237124433e-05)
(0.7169474913025679 -8.566553184674281e-15 9.805296359584979e-05)
(0.7169474913025968 4.091968013190397e-14 9.806661974203608e-05)
(0.7169474913022428 3.28302843393961e-14 9.805183274846451e-05)
(0.7169474913024929 2.032877917053122e-14 9.806656176917419e-05)
(0.7169474913020122 1.687305146937133e-13 9.804967987831442e-05)
(0.8022125725695909 -3.791191146020792e-13 0.0001103337106105703)
(0.8022125725700161 -2.955626841429546e-13 0.0001103411292385297)
(0.802212572570165 9.341026116428951e-14 0.0001103423230453262)
(0.8022125725702859 1.092767341501204e-13 0.0001103402518477382)
(0.8022125725701884 7.022894563565306e-14 0.0001103417253591059)
(0.8022125725703221 5.412701179135466e-14 0.000110339481205755)
(0.8022125725700779 2.667043185548149e-14 0.0001103412303479092)
(0.8022125725701874 2.018017234171693e-14 0.0001103387634006854)
(0.8022125725699498 6.082788722375121e-15 0.0001103408037994312)
(0.802212572570121 1.187948657205567e-15 0.0001103380719432541)
(0.8022125725698921 -1.68346680934153e-16 0.0001103404301209021)
(0.8022125725700762 7.107532460071819e-16 0.0001103373919939078)
(0.8022125725698696 -2.234311167679647e-15 0.0001103401012795546)
(0.8022125725701132 1.133534213383892e-14 0.0001103367129943673)
(0.8022125725698158 7.66699294026845e-15 0.0001103398120975873)
(0.8022125725701054 9.807959772497522e-15 0.0001103360257342122)
(0.8022125725697979 1.64264979608434e-14 0.0001103395585095508)
(0.8022125725701124 9.935116266647043e-15 0.0001103353213616528)
(0.8022125725698245 -9.709776550212455e-16 0.0001103393370741612)
(0.802212572570143 -4.056591846423299e-15 0.00011033459120813)
(0.8022125725697948 -6.771805143640628e-16 0.0001103391450002553)
(0.802212572570203 -1.057780149046805e-14 0.0001103338269444718)
(0.8022125725698117 -1.000633636120711e-14 0.0001103389803662781)
(0.8022125725702322 -1.401276439704352e-14 0.0001103330208536639)
(0.8022125725698647 -1.152810233247073e-14 0.0001103388423838252)
(0.8022125725703244 -1.926058337756823e-14 0.0001103321661144972)
(0.802212572569918 -1.845496876387177e-14 0.0001103387316289776)
(0.8022125725704091 -2.602494938173971e-14 0.0001103312570346981)
(0.8022125725700168 -9.608873784849147e-15 0.0001103386502032124)
(0.8022125725704837 -1.925000512710406e-14 0.0001103302891893929)
(0.8022125725701017 -7.195504596920139e-15 0.0001103386018168466)
(0.8022125725705649 -2.386087304077678e-14 0.0001103292594158675)
(0.8022125725701162 1.150306191239584e-14 0.0001103385918340605)
(0.8022125725705895 -2.473576462347341e-14 0.0001103281655768265)
(0.8022125725701914 2.55706654932013e-14 0.0001103386274118509)
(0.802212572570538 -5.453281633765603e-15 0.0001103270058821094)
(0.8022125725702213 3.371979978930481e-14 0.0001103387180901559)
(0.8022125725704934 -7.799346358480275e-15 0.0001103257772081051)
(0.8022125725702369 6.524851102236345e-14 0.0001103388777512802)
(0.8022125725704289 -5.412906249090377e-15 0.0001103244706578181)
(0.8022125725701508 5.452868996374806e-14 0.0001103391290315351)
(0.8022125725702175 4.756669115073192e-14 0.0001103230478869091)
(0.8022125725699804 2.928732326661477e-14 0.0001103394249656947)
(0.8022125725701316 1.919088748941146e-13 0.0001103206413929243)
(0.8660073504247811 -3.533923821417003e-13 0.0001196474580483416)
(0.8660073504248851 -3.233864249919803e-13 0.0001196570324592942)
(0.8660073504250024 7.547911954743938e-14 0.0001196581040693446)
(0.8660073504251149 1.006361321987218e-13 0.0001196560861794237)
(0.8660073504250033 6.401056893468652e-14 0.0001196574296570177)
(0.866007350425208 5.937726622053286e-14 0.0001196552519008881)
(0.8660073504250089 3.380172654627695e-14 0.0001196568652746856)
(0.866007350425135 2.7981798216973e-14 0.0001196544803298286)
(0.8660073504249345 1.012969754675243e-14 0.0001196563788173533)
(0.8660073504250985 3.75673029828252e-15 0.0001196537448271837)
(0.8660073504249034 2.262837101853721e-15 0.0001196559532692948)
(0.866007350425087 3.202930226077723e-15 0.000119653028513905)
(0.8660073504248975 -4.460749949668743e-15 0.000119655578541571)
(0.866007350425119 1.326682287393302e-14 0.0001196523188002316)
(0.8660073504248736 8.578005882320042e-15 0.0001196552477896767)
(0.8660073504251373 9.366000900911604e-15 0.00011965160486342)
(0.8660073504248748 1.365200062570475e-14 0.0001196549557707836)
(0.8660073504251674 7.809993893215154e-15 0.0001196508765661485)
(0.8660073504249077 -3.575155149679668e-15 0.0001196546982310722)
(0.8660073504252219 -3.958227393118296e-15 0.0001196501241080434)
(0.8660073504249063 -3.891947291930852e-15 0.0001196544718188941)
(0.8660073504252758 -1.263883057331631e-14 0.0001196493380419127)
(0.8660073504249238 -1.192264762511277e-14 0.0001196542742555104)
(0.8660073504253111 -1.672173547703976e-14 0.0001196485094493611)
(0.8660073504249561 -1.733953648006546e-14 0.0001196541046145433)
(0.866007350425387 -2.422489137952823e-14 0.0001196476301510508)
(0.8660073504250111 -2.280011033086684e-14 0.0001196539636262944)
(0.866007350425442 -3.316410355540665e-14 0.0001196466928650058)
(0.8660073504250779 -1.439762312831412e-14 0.0001196538539670169)
(0.8660073504255095 -2.488797568429796e-14 0.0001196456912398389)
(0.8660073504251418 -1.160957355798299e-14 0.0001196537805348324)
(0.8660073504255872 -2.695634905983751e-14 0.0001196446196796036)
(0.8660073504251675 1.091604032947083e-14 0.0001196537507722933)
(0.8660073504256285 -3.121276212822695e-14 0.0001196434728310736)
(0.8660073504252132 2.875874683877684e-14 0.0001196537752003688)
(0.8660073504256099 -8.841826451343283e-15 0.0001196422444798083)
(0.8660073504252463 3.55209865546122e-14 0.0001196538685534002)
(0.8660073504256072 -6.510816601267051e-15 0.0001196409252820536)
(0.8660073504252315 6.638079260262966e-14 0.0001196540524710728)
(0.8660073504256438 -6.131698013937122e-16 0.0001196394977136344)
(0.8660073504251559 6.430522765341687e-14 0.0001196543607419706)
(0.8660073504255411 6.566278921751942e-14 0.0001196379078254342)
(0.866007350424986 3.013929266943345e-14 0.0001196547243743399)
(0.8660073504254904 2.220962343623793e-13 0.000119634993175558)
(0.9299624873349545 -2.842071362538346e-13 0.0001291260415230006)
(0.9299624873347087 -3.163464372707409e-13 0.0001291407059985161)
(0.9299624873347625 6.547918090033005e-14 0.0001291417061533971)
(0.9299624873348259 9.262798914454126e-14 0.0001291398992482839)
(0.9299624873346698 5.441949773133362e-14 0.0001291410935109178)
(0.929962487334839 5.962157667355861e-14 0.0001291391084144231)
(0.9299624873347074 3.476784681255332e-14 0.000129140529705159)
(0.929962487334835 3.269027854011379e-14 0.0001291383433553567)
(0.929962487334692 1.157102601549341e-14 0.0001291400192632105)
(0.929962487334849 3.216075962629419e-15 0.000129137600618272)
(0.9299624873346996 1.566550759708468e-15 0.0001291395599815868)
(0.9299624873348761 3.526919639820578e-15 0.000129136872913129)
(0.9299624873347156 -7.921198813625469e-15 0.0001291391480411476)
(0.9299624873349119 1.28350153817001e-14 0.0001291361517359124)
(0.9299624873347332 6.351931022165342e-15 0.0001291387793605415)
(0.9299624873349536 6.842477406262529e-15 0.0001291354279710976)
(0.9299624873347527 9.254352102444821e-15 0.0001291384499334075)
(0.9299624873350163 5.112005464324701e-15 0.0001291346920280324)
(0.9299624873347921 -9.488683522084697e-15 0.0001291381560150703)
(0.9299624873350752 -6.754820154099831e-15 0.0001291339339688297)
(0.9299624873348087 -7.776126327790462e-15 0.0001291378943862483)
(0.9299624873351289 -1.509962740088398e-14 0.0001291331437164646)
(0.9299624873348278 -1.634604171406395e-14 0.0001291376627138747)
(0.9299624873351823 -1.936935059577375e-14 0.0001291323113149075)
(0.9299624873348479 -2.415005492362461e-14 0.0001291374599721192)
(0.9299624873352533 -2.93030783376627e-14 0.0001291314271838812)
(0.9299624873348995 -2.510979958605233e-14 0.0001291372868810599)
(0.9299624873352752 -4.076836254434272e-14 0.0001291304823060033)
(0.9299624873349458 -2.054722764707439e-14 0.0001291371463322974)
(0.9299624873353499 -3.366851669110311e-14 0.000129129468286398)
(0.929962487334992 -1.881940466969383e-14 0.0001291370437910653)
(0.9299624873354178 -3.181786834064936e-14 0.0001291283772242854)
(0.9299624873350156 7.815781761411191e-15 0.0001291369876886035)
(0.9299624873354796 -3.66683981048105e-14 0.0001291272013373513)
(0.9299624873350266 3.04139925518191e-14 0.0001291369898379124)
(0.9299624873355087 -1.133130577057286e-14 0.0001291259322971515)
(0.9299624873350462 3.357646411520627e-14 0.0001291370658751157)
(0.9299624873355448 -5.597356569662839e-15 0.0001291245603195351)
(0.9299624873350244 6.309166053653672e-14 0.0001291372352778674)
(0.9299624873356033 6.42715559125737e-15 0.0001291230722573111)
(0.9299624873349729 6.46915777396725e-14 0.0001291375112313464)
(0.9299624873356011 8.338941159361514e-14 0.0001291214010871404)
(0.9299624873348695 3.236569499164654e-14 0.0001291375760617782)
(0.9299624873355921 2.403918987347184e-13 0.0001291175956074088)
(0.9992835727613636 -1.660690284421279e-13 0.0001396496541697379)
(0.9992835727608624 -2.290099463395187e-13 0.0001396684149711859)
(0.9992835727609061 6.886405934034802e-14 0.0001396692696347356)
(0.9992835727608971 9.756624349710582e-14 0.0001396677576237412)
(0.9992835727607332 6.001535944722424e-14 0.0001396687580737363)
(0.999283572760837 6.25223953781747e-14 0.000139667070319135)
(0.9992835727607245 3.980724658532733e-14 0.0001396682481010363)
(0.9992835727608251 2.869200012751817e-14 0.0001396663691309382)
(0.9992835727607408 1.067157220607161e-14 0.0001396677557696045)
(0.9992835727608526 2.63763823658986e-15 0.0001396656636216336)
(0.9992835727607714 -1.02985553940158e-14 0.0001396672912648693)
(0.9992835727609131 1.53648705643609e-15 0.0001396649575483798)
(0.9992835727607859 -1.655730242682975e-14 0.0001396668601384979)
(0.9992835727609701 3.367311722036133e-15 0.0001396642501356538)
(0.9992835727608463 2.18966947019121e-15 0.0001396664646108987)
(0.9992835727610226 -2.004600707992989e-15 0.0001396635371838775)
(0.999283572760903 -9.405540084882566e-15 0.0001396661046530444)
(0.9992835727611429 1.324547577283467e-15 0.0001396628119434055)
(0.9992835727609471 -1.6638501781685e-14 0.0001396657788826229)
(0.9992835727611944 -1.589126530086557e-14 0.0001396620658226829)
(0.999283572760972 -1.536475279553945e-14 0.0001396654853510184)
(0.9992835727612374 -1.864319084675028e-14 0.0001396612889936232)
(0.9992835727610052 -2.503474810469686e-14 0.0001396652222719049)
(0.9992835727613105 -2.804935446452295e-14 0.0001396604709231329)
(0.9992835727610407 -3.110609607005703e-14 0.0001396649887067457)
(0.9992835727613715 -4.168871143806909e-14 0.0001396596008326846)
(0.9992835727610887 -3.481057346079573e-14 0.0001396647851992678)
(0.9992835727614299 -4.911148402372315e-14 0.0001396586680726008)
(0.999283572761133 -3.425537396332255e-14 0.0001396646143334105)
(0.9992835727615187 -3.763671471110244e-14 0.0001396576623979116)
(0.9992835727611253 -2.305560135060351e-14 0.000139664481175829)
(0.9992835727615516 -3.99165899622161e-14 0.0001396565741467666)
(0.9992835727611395 2.335591679738079e-15 0.000139664393547176)
(0.9992835727616046 -3.440703096664918e-14 0.0001396553943573325)
(0.9992835727611257 1.773961070670207e-14 0.0001396643620313907)
(0.9992835727616991 -1.714333066259114e-14 0.0001396541149183708)
(0.9992835727611317 2.951692227870106e-14 0.0001396643995507303)
(0.9992835727617418 -1.031846398665339e-14 0.0001396527288406287)
(0.9992835727611545 5.825501397525392e-14 0.0001396645196693053)
(0.9992835727617895 1.600606865258755e-14 0.0001396512278490888)
(0.9992835727610966 5.086219694207714e-14 0.0001396647170039485)
(0.9992835727618558 9.116881963708006e-14 0.0001396495119753861)
(0.9992835727610503 4.425255133642635e-14 0.0001396644823269413)
(0.9992835727618959 2.189913729152236e-13 0.0001396448716802291)
(1.065740600120413 -9.43609118134306e-15 0.0001500775714656572)
(1.065740600119799 -4.526734738100406e-14 0.0001500987847082048)
(1.065740600119879 1.098524719540651e-13 0.0001500994030364479)
(1.065740600119754 1.23083197507928e-13 0.0001500980601785932)
(1.065740600119634 7.816649032296903e-14 0.0001500988218571038)
(1.06574060011972 6.506973551326231e-14 0.0001500973392526332)
(1.065740600119624 3.443269538748146e-14 0.0001500982654212546)
(1.065740600119733 1.800666039970455e-14 0.0001500966226927168)
(1.065740600119651 -4.327074975717603e-16 0.0001500977378526342)
(1.065740600119772 -1.647599449735858e-15 0.0001500959112735351)
(1.065740600119692 -2.140021588225835e-14 0.000150097243119542)
(1.065740600119831 -2.051837018561066e-14 0.0001500952045748002)
(1.065740600119747 -2.072585292770649e-14 0.000150096784169335)
(1.065740600119883 -1.486051604004472e-14 0.000150094500278091)
(1.06574060011982 -2.86210821475585e-14 0.0001500963625435777)
(1.065740600119989 -1.43073117425334e-14 0.000150093793874748)
(1.065740600119876 -2.911698355840164e-14 0.0001500959783660405)
(1.065740600120075 -1.054310948693413e-14 0.0001500930786750089)
(1.065740600119936 -3.312928672340559e-14 0.00015009563060554)
(1.065740600120144 -2.988647008444116e-14 0.0001500923460274187)
(1.065740600119983 -3.521834234156962e-14 0.0001500953175366932)
(1.065740600120215 -2.757892589636032e-14 0.0001500915856760029)
(1.065740600120025 -3.57709026812106e-14 0.0001500950373358641)
(1.065740600120276 -3.451961225253946e-14 0.0001500907861916678)
(1.065740600120052 -4.33045234999849e-14 0.0001500947887572883)
(1.065740600120332 -5.239977368137435e-14 0.0001500899354218892)
(1.065740600120084 -4.333355580925068e-14 0.0001500945718396986)
(1.065740600120401 -4.659006828164407e-14 0.0001500890209045271)
(1.065740600120085 -4.272282769528421e-14 0.0001500943885974193)
(1.065740600120463 -5.107812900969164e-14 0.0001500880301959896)
(1.06574060012008 -3.575350202584849e-14 0.0001500942436583696)
(1.065740600120495 -4.302828300778272e-14 0.0001500869510674866)
(1.065740600120081 -1.223094789185665e-14 0.0001500941448215861)
(1.06574060012054 -3.556621065938528e-14 0.0001500857715241701)
(1.065740600120058 6.545540785688811e-15 0.0001500941035278975)
(1.065740600120604 -2.309536855716441e-14 0.0001500844795899796)
(1.065740600120044 2.111218308979399e-14 0.0001500941352447598)
(1.065740600120664 -6.698839654050509e-15 0.0001500830626288153)
(1.06574060012003 3.956763393933391e-14 0.000150094259073212)
(1.065740600120745 1.798878635723867e-14 0.000150081502060686)
(1.065740600120014 4.59744756042332e-14 0.0001500944763987481)
(1.065740600120814 7.152395508974284e-14 0.0001500796595859794)
(1.065740600119996 5.815277455422472e-14 0.0001500942022444867)
(1.065740600120901 1.626439545718968e-13 0.0001500743795625031)
(1.118974491889039 1.713654389020744e-13 0.0001587047342916986)
(1.118974491888363 2.041973159736368e-13 0.0001587279191928062)
(1.118974491888517 1.596913479988148e-13 0.0001587284307749028)
(1.118974491888358 1.436544372116832e-13 0.0001587271325869373)
(1.118974491888301 1.012419970750453e-13 0.0001587277821699765)
(1.118974491888381 7.15136982565131e-14 0.0001587263521613095)
(1.11897449188834 3.492782789917534e-14 0.0001587271626284298)
(1.118974491888435 1.330693853292296e-14 0.0001587255818383203)
(1.118974491888384 -8.555234021258127e-15 0.000158726578457848)
(1.118974491888481 -1.410744760262083e-14 0.0001587248237413107)
(1.118974491888422 -3.940752869817179e-14 0.0001587260345521755)
(1.11897449188853 -3.041761641616949e-14 0.0001587240779189427)
(1.118974491888455 -5.021904263331714e-14 0.0001587255342189326)
(1.118974491888586 -3.563202440511202e-14 0.0001587233421191173)
(1.118974491888496 -4.660754909229689e-14 0.0001587250791092742)
(1.118974491888646 -4.047450127158598e-14 0.0001587226116765375)
(1.118974491888537 -6.264734035388198e-14 0.0001587246693011996)
(1.118974491888681 -3.253761777938635e-14 0.0001587218795447701)
(1.118974491888586 -5.120554416104297e-14 0.0001587243035559527)
(1.118974491888745 -4.367483001014249e-14 0.0001587211364743333)
(1.118974491888626 -4.593874072749007e-14 0.0001587239797439476)
(1.118974491888796 -3.862350707969127e-14 0.0001587203713179469)
(1.118974491888642 -5.991025350810457e-14 0.000158723695418168)
(1.118974491888852 -4.752385974369268e-14 0.0001587195714262567)
(1.118974491888655 -5.818001926529534e-14 0.0001587234485017387)
(1.118974491888892 -5.29886580273697e-14 0.000158718723086383)
(1.118974491888641 -6.754807619253358e-14 0.0001587232380482697)
(1.118974491888933 -6.033734102010872e-14 0.0001587178119486092)
(1.118974491888636 -5.361842487999052e-14 0.0001587230650320485)
(1.11897449188896 -4.690598345496346e-14 0.0001587168233821222)
(1.118974491888635 -4.180700889978784e-14 0.0001587229331279035)
(1.118974491889011 -4.118763064996368e-14 0.0001587157427027532)
(1.118974491888614 -1.462867417346296e-14 0.0001587228494466279)
(1.118974491889042 -3.578447524524172e-14 0.000158714555218264)
(1.118974491888593 -1.043002735312901e-14 0.0001587228252025503)
(1.118974491889065 -1.98947543834658e-14 0.0001587132460379415)
(1.118974491888572 1.103587427585401e-14 0.0001587228762638785)
(1.118974491889128 -1.185169252243334e-14 0.000158711799422138)
(1.118974491888526 3.141418963764587e-14 0.000158723022625659)
(1.118974491889205 9.770392892874948e-15 0.0001587101928658628)
(1.118974491888551 3.61154470335346e-14 0.0001587232628888855)
(1.118974491889294 3.845983905225504e-14 0.000158708266745679)
(1.11897449188857 6.882085135779281e-14 0.0001587229300473746)
(1.118974491889404 7.283914655425823e-14 0.0001587025149856342)
(1.153241598694614 3.207315010474808e-13 0.0001643798151069692)
(1.153241598694044 4.367766428082517e-13 0.0001644048656030032)
(1.153241598694233 1.945765959893211e-13 0.000164405407650644)
(1.153241598694119 1.325302206646374e-13 0.0001644040629064593)
(1.153241598694109 7.709881977799178e-14 0.0001644047484474356)
(1.15324159869415 4.85455042403413e-14 0.0001644032619307117)
(1.153241598694134 3.664184072023822e-15 0.000164404115604804)
(1.153241598694168 -1.211014379592154e-15 0.0001644024676439362)
(1.153241598694131 -2.866552401070702e-14 0.000164403516830742)
(1.15324159869417 -2.959826409957029e-14 0.0001644016835397642)
(1.153241598694117 -4.913201755115515e-14 0.0001644029585864071)
(1.153241598694162 -3.440523085864291e-14 0.0001644009110887019)
(1.153241598694079 -5.293756888776378e-14 0.0001644024456954839)
(1.153241598694142 -3.517984000050615e-14 0.0001644001493514076)
(1.153241598694041 -5.582449949239181e-14 0.0001644019811366295)
(1.15324159869412 -3.827889464824392e-14 0.0001643993947681199)
(1.153241598694039 -5.804236651291236e-14 0.0001644015660316383)
(1.153241598694122 -3.838636780966239e-14 0.0001643986411308075)
(1.153241598694021 -5.977310780266811e-14 0.0001644011998324545)
(1.153241598694146 -4.945463392944704e-14 0.0001643978797305963)
(1.153241598694041 -6.386399838607308e-14 0.0001644008806961382)
(1.153241598694176 -4.347887038816305e-14 0.0001643970996601661)
(1.153241598694053 -6.943213974583607e-14 0.0001644006060240272)
(1.153241598694212 -4.57154589677953e-14 0.0001643962882372867)
(1.15324159869406 -6.7493399426353e-14 0.0001644003731304596)
(1.153241598694246 -5.309653597518133e-14 0.0001643954315042887)
(1.153241598694051 -6.74153661233244e-14 0.0001644001799969433)
(1.153241598694267 -4.897093950473904e-14 0.0001643945147519493)
(1.153241598694042 -5.838247115918669e-14 0.0001644000260630532)
(1.153241598694289 -4.56290789037074e-14 0.0001643935230094887)
(1.153241598694043 -4.64241862848807e-14 0.0001643999130062002)
(1.15324159869433 -3.662830817205342e-14 0.0001643924414451147)
(1.153241598694036 -2.354699134375648e-14 0.0001643998454645299)
(1.153241598694361 -2.497585951821324e-14 0.0001643912556223355)
(1.153241598694035 -1.475636834496216e-14 0.0001643998316660119)
(1.153241598694419 -1.313366907187097e-14 0.0001643899515543373)
(1.153241598694041 -1.407955694881099e-16 0.0001643998838894335)
(1.153241598694482 -1.352797482392618e-14 0.000164388515261091)
(1.153241598694063 1.657000530460643e-14 0.0001644000175153089)
(1.153241598694554 -1.292264848191354e-14 0.000164386925802676)
(1.153241598694098 3.523505331209332e-14 0.0001644002197131582)
(1.15324159869467 -1.321752113651609e-14 0.0001643850018091146)
(1.153241598694156 7.354879576929013e-14 0.0001643997124332173)
(1.153241598694807 -3.729019431143399e-14 0.0001643788445523223)
(1.165498853901 4.00834501678685e-13 0.0001664140460350863)
(1.165498853900666 6.21463810113215e-13 0.0001664405296291788)
(1.165498853900678 2.479042823871313e-13 0.0001664411514449003)
(1.165498853900576 1.533350577920666e-13 0.0001664397618724128)
(1.165498853900556 9.386033884395356e-14 0.0001664405301503796)
(1.165498853900553 6.177394516933779e-14 0.0001664389836905836)
(1.165498853900538 1.592915142564925e-14 0.0001664399256686557)
(1.165498853900532 1.170537537524658e-14 0.0001664382025425517)
(1.165498853900503 -1.889321590893915e-14 0.0001664393481338739)