/*--------------------------------*- C++ -*----------------------------------*\
| =========                 |                                                 |
| \\      /  F ield         | OpenFOAM: The Open Source CFD Toolbox           |
|  \\    /   O peration     | Version:  v1812                                 |
|   \\  /    A nd           | Web:      www.OpenFOAM.com                      |
|    \\/     M anipulation  |                                                 |
\*---------------------------------------------------------------------------*/
FoamFile
{
    version     2.0;
    format      ascii;
    class       volScalarField;
    location    "0";
    object      p;
}
// * * * * * * * * * * * * * * * * * * * * * * * * * * * * * * * * * * * * * //

dimensions      [0 2 -2 0 0 0 0];


internalField   nonuniform List<scalar> 
3132
(
-1.575912530862907
-2.039671257900135
-2.112383262620531
-2.143569924331108
-2.158016762745862
-2.162994354251318
-2.158950822103882
-2.16653762613821
-2.172316056988095
-2.163805491743597
-2.179642026781894
-2.174587039697855
-2.17862953583027
-2.185653794300037
-2.186767149586903
-2.194661152961541
-2.194297173234567
-2.188272048545586
-2.181334211241825
-2.193590926271075
-2.199959961147314
-2.193951052686569
-2.185410014731612
-2.175758603637633
-2.189474830587175
-2.193670732332737
-2.189879826957234
-2.20355351490573
-2.189392083687193
-2.196687934550604
-2.192554854038057
-2.198727005775253
-2.195681972955519
-2.196461197493067
-2.190860972231435
-2.171841149631887
-2.173104145378108
-2.184698548197437
-2.18389605318127
-2.183990277103633
-2.174720749222614
-2.176309370312056
-2.177990317709623
-2.177152721217708
-2.179133256962269
-2.178857142000104
-2.172348649796841
-2.168404943774743
-2.16469563272439
-2.163021984997731
-2.165705735697344
-2.159472411549794
-2.1604876920442
-2.153336809016371
-2.15043004907675
-2.141592023609963
-2.089679505789227
-1.964871555399876
-1.577618441493615
-2.03999084840061
-2.112436306380698
-2.143559142181657
-2.158031482198139
-2.163024716461297
-2.158953076263475
-2.16651969639086
-2.172314548828248
-2.163756671681551
-2.179714236596698
-2.174571035850159
-2.178631761043945
-2.185655330206045
-2.186777810184692
-2.194683565340091
-2.194310218634773
-2.188250035428481
-2.181281084179136
-2.193589119465186
-2.199979428846354
-2.19393522503147
-2.185431217997492
-2.175677128737673
-2.18945855496895
-2.193702209997028
-2.189877924815963
-2.203614672608416
-2.189355508587317
-2.196708878045535
-2.192554914261991
-2.198739347869514
-2.195704564592705
-2.196477065538143
-2.19089223708704
-2.171848239723893
-2.173111692194205
-2.184719091677104
-2.183857976989724
-2.183993622744528
-2.174693496604448
-2.176317232274758
-2.177992568033043
-2.177148558856572
-2.179132117607174
-2.178874465202017
-2.172341498821164
-2.168407890637616
-2.164700466503721
-2.163016859104248
-2.165719454746772
-2.159460214728611
-2.160508752934514
-2.153341795630687
-2.150422473248391
-2.141595523152894
-2.089761164416195
-1.964792125536988
-1.581510045554729
-2.03998364279159
-2.112430267489102
-2.143582419204079
-2.158064594911909
-2.163046044252499
-2.158949112446216
-2.166515950576552
-2.172292628494425
-2.163687316347139
-2.179841756922957
-2.174598023171249
-2.178575121413062
-2.18564230340042
-2.186777462840972
-2.19471690365023
-2.194308172099359
-2.188257067594375
-2.181239232603796
-2.193626477431112
-2.199985477988365
-2.193951934827065
-2.185434437819721
-2.175609416704926
-2.189382225389262
-2.19367387856892
-2.189979805396278
-2.203666266650775
-2.189327877948072
-2.19673190051123
-2.192570936835079
-2.198754537653282
-2.195732790614209
-2.196485699986944
-2.190945515594626
-2.171842928965253
-2.173109458638639
-2.184712439713818
-2.183815955784456
-2.184011344212829
-2.174676147328885
-2.176337032476063
-2.177995902142884
-2.177150878330649
-2.179153241383517
-2.178882776374488
-2.172363733910325
-2.168406516767336
-2.164692056768005
-2.163023499826061
-2.165734368802838
-2.159459878808068
-2.160529436334731
-2.153333703523674
-2.150426059994045
-2.141634495596599
-2.089702636358587
-1.964692292191249
-1.752702441602807
-2.048326436823845
-2.114153876370848
-2.144086332044834
-2.15850066115848
-2.163770417104684
-2.159630835704306
-2.1661451086717
-2.172138106207248
-2.16299291650876
-2.181143340149563
-2.174552263627128
-2.177398176294878
-2.186118255973709
-2.187928122917096
-2.195500493128709
-2.194638127974766
-2.187549715526186
-2.180538601424246
-2.193887044737808
-2.200294613500648
-2.194220242374548
-2.186929607444169
-2.174196854007187
-2.188461359530755
-2.196243951622841
-2.190605701850693
-2.20442778694559
-2.189071228466649
-2.19677945251521
-2.192749126768801
-2.199187084124288
-2.197275763613517
-2.197378851500082
-2.192074483406536
-2.171739959551607
-2.173437822572315
-2.185034194065836
-2.18396377433797
-2.18433552879438
-2.174111516380682
-2.176668837614015
-2.178196701323724
-2.17716401895652
-2.179432312499576
-2.179329509728821
-2.172530991673831
-2.168377445987725
-2.164789898035314
-2.163187070652921
-2.165969774894143
-2.159465482706387
-2.160898690938131
-2.153902888309702
-2.150434952683156
-2.142119495178188
-2.091381087813885
-1.976050178678944
-1.757226911007543
-2.048874515126212
-2.114281330719129
-2.144092836361691
-2.158501825062418
-2.16381350050794
-2.159678048806803
-2.166124120042435
-2.172149291373646
-2.163010502774609
-2.181120287386264
-2.174494475411454
-2.177376341536846
-2.18616025407981
-2.187989886660821
-2.195530497730022
-2.194667310140915
-2.187495214596282
-2.180503005553776
-2.193862450805221
-2.200312908118059
-2.194200969690241
-2.187008419187288
-2.174102910132527
-2.18845740631262
-2.196489442868318
-2.19054542196424
-2.204452056293426
-2.189095260008289
-2.196768480988798
-2.192773005731609
-2.199174188285834
-2.197337244482818
-2.197429533059849
-2.192091036169951
-2.171747158980308
-2.173469402648883
-2.18505283153101
-2.183957997285629
-2.184316428868919
-2.174084772058969
-2.176670968193982
-2.178207207237702
-2.177155514292596
-2.179428581272437
-2.179355663474954
-2.172522574649917
-2.168382073825963
-2.164801041885573
-2.1631832756732
-2.165967832514355
-2.159472243645439
-2.160906509095561
-2.153953935021323
-2.150448882287525
-2.142091304732583
-2.091590167035131
-1.976942426861911
-1.761773435423708
-2.049177200746235
-2.114350150319572
-2.144151215601018
-2.158522859114334
-2.163832799165916
-2.159711630013172
-2.166141962903404
-2.172153599158603
-2.163018060563503
-2.181115830785118
-2.17449384998571
-2.177268553191794
-2.186179119707518
-2.188019672272119
-2.195576478580486
-2.194684961121847
-2.187463997239093
-2.180490946011828
-2.193888432912477
-2.20031474887352
-2.194208875264221
-2.187082744958508
-2.174039943526537
-2.188350716966043
-2.19672420229569
-2.190548827662943
-2.204474105140534
-2.189144070717304
-2.19676810415021
-2.192807643145567
-2.199155789603997
-2.197387928737931
-2.197479874474115
-2.192126401154379
-2.171731650679906
-2.173485785842299
-2.185039079099068
-2.183972859343255
-2.184302996672893
-2.174078687515036
-2.176685196350475
-2.178222060876494
-2.177150893850902
-2.179447447774389
-2.179374150713322
-2.172547775014377
-2.168385848959798
-2.164795976703831
-2.163193978036188
-2.165973157051027
-2.159497823004991
-2.160915728754649
-2.15398951972523
-2.150485168062926
-2.14209422726767
-2.09167283610708
-1.977699772156733
-1.875768251444809
-2.061370063532659
-2.116926513953916
-2.146674219113441
-2.159622689531575
-2.164247105143388
-2.160923626516874
-2.168109237695898
-2.172757034657804
-2.164252554989061
-2.179347143586171
-2.174374157829819
-2.175014805947137
-2.187005482023824
-2.18886826184971
-2.197400943618422
-2.195658070710883
-2.187525369286808
-2.181168886266138
-2.194584168742806
-2.200533867771878
-2.194889241868407
-2.189518505323806
-2.174444996885325
-2.185988384969396
-2.204773064845852
-2.189735702210414
-2.203702149280522
-2.191296603151109
-2.197084363046959
-2.193161302097278
-2.198382690117609
-2.198780282149743
-2.199574431822076
-2.193082149980215
-2.171556770772295
-2.173399622197814
-2.18487719485972
-2.185219813031451
-2.183993080538134
-2.173930630086558
-2.176709479801746
-2.179119318832946
-2.177496100491916
-2.180174602728616
-2.18026700625992
-2.173513759033767
-2.16850625892429
-2.164610655887076
-2.163489668308521
-2.166008902575813
-2.160837053791665
-2.161371563125587
-2.155146570855011
-2.151969744243855
-2.142306017611298
-2.095790927746754
-1.998700770510622
-1.879289955450846
-2.062013766791398
-2.117080255909313
-2.146741817202371
-2.159634658438184
-2.164267414162741
-2.160972359938398
-2.168172280548028
-2.172806794864088
-2.164355679428313
-2.179173943665933
-2.174325554039776
-2.17502597779846
-2.187032023425068
-2.188907631991017
-2.197459413243259
-2.195731020541098
-2.187490226642557
-2.181181504174915
-2.194592899196925
-2.200565456840947
-2.194898073197165
-2.189629497916048
-2.174496761252546
-2.186000089413796
-2.20518717266075
-2.189535511732346
-2.203601738470344
-2.19136632688821
-2.197056403918411
-2.193124993605168
-2.198349766119615
-2.198826408810317
-2.199660850850123
-2.19307966830119
-2.171559872073807
-2.173409365285105
-2.184905253512536
-2.185315678851652
-2.183974509351
-2.173920918201036
-2.17669017323764
-2.179158480788499
-2.177509235149139
-2.180174626629952
-2.180312465475867
-2.173516918803683
-2.16851150586027
-2.164619089701982
-2.163494163071273
-2.166011310795258
-2.160875963362815
-2.161385991461541
-2.155206352868424
-2.151998540429314
-2.142291394773841
-2.096101812972904
-1.999659946217661
-1.882718552711409
-2.062459355222052
-2.117183989030532
-2.146856171412582
-2.159665232614472
-2.164275308740184
-2.161010597915969
-2.168254100438308
-2.172839720093003
-2.164446359594548
-2.179037713952985
-2.174320529771105
-2.175005492391022
-2.187004117066184
-2.188903284571631
-2.197543851898297
-2.195793350839316
-2.187505007670071
-2.181204355879251
-2.194677392197509
-2.200577833850044
-2.194932390093037
-2.189733480705775
-2.17457130783931
-2.185931953864398
-2.205554708323892
-2.18942860337398
-2.203485886361501
-2.191449814849225
-2.197035112544194
-2.193087560003186
-2.198313337209579
-2.198860890926573
-2.199732163529731
-2.193096254432721
-2.17154425706651
-2.173396599875257
-2.184906098120107
-2.185404929017097
-2.183980204149047
-2.173927686196282
-2.176695385520021
-2.179197642165337
-2.177537770102657
-2.180204519850474
-2.180357352744513
-2.173557943481341
-2.168513537430451
-2.16461794429245
-2.163513632344344
-2.166023911818198
-2.160926831463096
-2.16140575419058
-2.155250929321761
-2.152039856363073
-2.142323761345191
-2.096306311330036
-2.000427079855764
-1.951641150988785
-2.07548544766254
-2.120332660857009
-2.149215842786282
-2.161258422475807
-2.165188209711898
-2.162213489806067
-2.169941542020715
-2.172864352851564
-2.166229774263069
-2.176634570488145
-2.174497837231131
-2.176256859748143
-2.184611702817229
-2.188054619890904
-2.199347418970121
-2.196985067369095
-2.187639981833027
-2.18215864722313
-2.19718276668617
-2.201164498844751
-2.196506366518818
-2.191517695736627
-2.178186589996551
-2.185787968355356
-2.210936719982702
-2.190547777757267
-2.200588458288981
-2.193588283459004
-2.196972479794869
-2.19190235235234
-2.197854251340884
-2.199347720514213
-2.200911138252549
-2.193537746331344
-2.172473192355261
-2.173660334953174
-2.185425286231174
-2.187244951178644
-2.184370414757832
-2.174318327386186
-2.177167428361295
-2.179945015413526
-2.178597918166628
-2.181081462621279
-2.182013538293984
-2.174903125956078
-2.168545850247332
-2.164610563670961
-2.163691156609262
-2.166355399308893
-2.162588897836407
-2.162555938651062
-2.156446501981139
-2.152717148567858
-2.143624523385805
-2.102678848150589
-2.01791839889759
-1.954659194233881
-2.076232398592547
-2.120537440773838
-2.149245803514128
-2.161326185888114
-2.1652588188976
-2.162269601675097
-2.169982409173357
-2.172864526734179
-2.166347450684349
-2.176499388795176
-2.174464677472617
-2.176441320594057
-2.184548887029955
-2.188033710929796
-2.199404435533491
-2.197075069557226
-2.187628576632878
-2.1821282368097
-2.197263616296622
-2.201206074680176
-2.196588125690126
-2.191572549227791
-2.178393352842685
-2.185973750886395
-2.211055516966247
-2.190558520125997
-2.200404008398558
-2.19366490770107
-2.196950783650746
-2.191765724614867
-2.197825381555839
-2.199334922965472
-2.200945952403041
-2.193515176849753
-2.172584166776308
-2.173681869501115
-2.185492293251873
-2.187319455275776
-2.184379926721575
-2.174313285220127
-2.177164538740231
-2.179975900772539
-2.178648909529
-2.181099803872677
-2.182103973669187
-2.174930025925427
-2.168539103564727
-2.164632214580743
-2.163670294024881
-2.166348377552481
-2.162666351562172
-2.162616785251805
-2.156518290327992
-2.152722693663595
-2.143666715883831
-2.103109018814207
-2.018990314475815
-1.957668245335015
-2.076708075469374
-2.120667084448526
-2.149376649397611
-2.161435842720255
-2.16529355498491
-2.162299864596189
-2.170035276333328
-2.172857976209716
-2.166455539005473
-2.176418662640752
-2.17448344317325
-2.176511068585831
-2.18441749781184
-2.187888958639203
-2.199448572351856
-2.197172539788685
-2.187682637913984
-2.18207679667681
-2.197513007775578
-2.201175397444607
-2.196691588470917
-2.191596263667199
-2.178639452480162
-2.186049200606619
-2.211005686188355
-2.190703394736093
-2.200180150655771
-2.193771929416612
-2.196951138333936
-2.191633989112051
-2.197773478387014
-2.199274861517997
-2.200906063133392
-2.193520028046718
-2.172652061465356
-2.173675021239284
-2.18549756182399
-2.187385652984541
-2.18443672770377
-2.174342336752914
-2.177228426138289
-2.180014299228959
-2.178727065762635
-2.181194529735818
-2.182184852806385
-2.175031518794457
-2.168517879208147
-2.164626527310987
-2.163664676492629
-2.166332224857197
-2.162765855168411
-2.16268080599343
-2.156549884225937
-2.152756759210138
-2.143803818317036
-2.10333992743644
-2.019915373233146
-2.00861691610164
-2.090015337274624
-2.124758494357869
-2.15042675202237
-2.163981755353045
-2.166842089897724
-2.16312206584103
-2.170046275514346
-2.172367475717167
-2.168175493547768
-2.175284317754707
-2.17460718313413
-2.177470343544392
-2.182642113964588
-2.186478727341211
-2.198857402497587
-2.198896656062406
-2.187124046636825
-2.180313788422577
-2.201711952919675
-2.20082196797448
-2.197936910603371
-2.191756154437442
-2.182204993326335
-2.188994774784246
-2.208456700967321
-2.19354740062645
-2.19769143425282
-2.195164815923111
-2.198572985070721
-2.190399261242758
-2.196683692641312
-2.19788703690236
-2.199712572571937
-2.193654076552827
-2.175810333010404
-2.17467599280578
-2.186233239716898
-2.18842700514393
-2.184717615622329
-2.174770975109107
-2.177911387073123
-2.180760586973868
-2.179763130558356
-2.182507702776367
-2.183905819605144
-2.176235607992854
-2.168328466801215
-2.164946389103485
-2.163495340244777
-2.166035193028668
-2.165306428526208
-2.164570364073156
-2.157686233402424
-2.152976407815419
-2.145765495701615
-2.110324438637063
-2.043627953223247
-2.05208255483271
-2.102531221735352
-2.129459824322223
-2.150985611848014
-2.167133060945715
-2.169238921738322
-2.164005634423794
-2.168879471973698
-2.171460002731029
-2.169342866726629
-2.174940177916861
-2.175011660499115
-2.178878434382748
-2.182960700071888
-2.187911518693763
-2.195875052987205
-2.199801929527785
-2.189135661736999
-2.178937292651161
-2.20748301571972
-2.199225686867321
-2.197164154192555
-2.192465808961626
-2.184350478506937
-2.191026856942752
-2.204935085795583
-2.195482490637762
-2.197522396331003
-2.195621140460489
-2.203180082668884
-2.193503662332883
-2.195393895177237
-2.195964888502762
-2.197991210334656
-2.194089027056309
-2.178811839438409
-2.175915776558558
-2.186229212076909
-2.188946278937431
-2.184788139801021
-2.174957035338313
-2.178141664764848
-2.181934759905381
-2.180600521149744
-2.184098125518763
-2.18549377855187
-2.177592503706031
-2.168422317777669
-2.166182506701401
-2.164012927919609
-2.165545133873224
-2.167850014661361
-2.167242464808076
-2.15891685546742
-2.15311591372549
-2.148245280680603
-2.117333429971555
-2.072506697872887
-2.08781689826345
-2.114095988769964
-2.134148468896806
-2.151846365226272
-2.17026803949532
-2.172402233876781
-2.165063540767307
-2.167404179185844
-2.170655407813014
-2.169390724619999
-2.174468809283674
-2.175255234174804
-2.180319998747045
-2.184466792575786
-2.190031681914697
-2.194712550192703
-2.198294497534619
-2.190955465603591
-2.180357521575687
-2.210504290290709
-2.199037757506114
-2.195110623401085
-2.193457532054718
-2.185152032751537
-2.191234419667788
-2.204387270149738
-2.196754061186543
-2.199125536649185
-2.197000752943303
-2.208209612929661
-2.202533503245734
-2.196533000817596
-2.193183870265594
-2.195637342449078
-2.194048455949823
-2.181375762522221
-2.17726591243023
-2.185819750586137
-2.189702087163947
-2.184650312950592
-2.174869792094503
-2.177709174020558
-2.183370990979158
-2.181466390229188
-2.185746458923098
-2.187666640452756
-2.179529701284634
-2.168739076680191
-2.166552571710303
-2.164333570493534
-2.164344849163988
-2.169528417650416
-2.169027214695046
-2.160392664723634
-2.154536041353334
-2.150401983284114
-2.125370919965279
-2.101105424379571
-2.116149774839566
-2.12488775404572
-2.13861968294009
-2.153313264648108
-2.172779421466579
-2.17626984634037
-2.16604560976458
-2.166554462192991
-2.169665041209595
-2.168835774867429
-2.173705622248154
-2.17497640580727
-2.181325973083638
-2.18656335225469
-2.191518520946535
-2.194916148590643
-2.197144186210617
-2.191843182967457
-2.183442888451973
-2.207842362451089
-2.198930840869687
-2.193738874218556
-2.193578008488297
-2.185305747055609
-2.189690369990546
-2.205363826249889
-2.196927190414504
-2.199820480317583
-2.200268328885361
-2.210049168888267
-2.209744254330194
-2.198223136795737
-2.190089417963081
-2.192664327781272
-2.192876504908427
-2.183096573377744
-2.178401012045404
-2.185339157443156
-2.189994479182267
-2.184449085587505
-2.174664740240268
-2.176856517796007
-2.184073542937814
-2.181833932594456
-2.187320788040427
-2.1902449827032
-2.18190637152941
-2.16921598887451
-2.165057157631582
-2.163265922541954
-2.162213787851702
-2.167845182420856
-2.167437357115486
-2.161469623504665
-2.157022091285496
-2.153104692524889
-2.135635317855204
-2.125618511369046
-2.138746492101625
-2.135418681012677
-2.143144251026929
-2.155017152094751
-2.17400325139169
-2.18002998616365
-2.166535479415177
-2.166181990933636
-2.168928320165122
-2.168640130275272
-2.172762062043102
-2.174241025483139
-2.181772342887657
-2.189232332782226
-2.192356342561018
-2.194827727685613
-2.196462627045575
-2.192956868148467
-2.187230796017158
-2.203433141453181
-2.198739499557445
-2.193915353747284
-2.192752295649694
-2.185361212892134
-2.187284943440528
-2.203340544055894
-2.195496726625604
-2.198487964945421
-2.203325024123619
-2.209278622763665
-2.210925683065422
-2.199103206761208
-2.188236655357084
-2.190278305999115
-2.191410841555909
-2.184489004585587
-2.179292306301034
-2.184722857100649
-2.18898870243657
-2.183905071832686
-2.173708367835217
-2.175615186762716
-2.18342766396652
-2.182130638619218
-2.188458964330644
-2.192659509131673
-2.184490158144505
-2.16964178363826
-2.162668260311008
-2.161081430242451
-2.159892619560389
-2.161752422324297
-2.162717153764384
-2.162411728141233
-2.159627108765417
-2.157030370302898
-2.147748719461215
-2.146718068178481
-2.157802040688833
-2.146287257195311
-2.148113023672348
-2.156554790693753
-2.173188261686344
-2.181230145018413
-2.16657887501425
-2.165874824544962
-2.168646929422704
-2.169274270110628
-2.172019487336068
-2.17293207005777
-2.181475468234115
-2.192387243569343
-2.192905247408107
-2.19459335820787
-2.196000165123187
-2.193836360145048
-2.190465374377947
-2.20069171951991
-2.198797573517147
-2.194835231393204
-2.192549439959154
-2.185778216470812
-2.184912104873912
-2.198978764829865
-2.194171215591396
-2.196593857529342
-2.203959308724712
-2.207427984472885
-2.209203003425001
-2.198785957996943
-2.189063175977412
-2.19027782518247
-2.190280349267904
-2.186504615387817
-2.180845686938977
-2.184609249953698
-2.187958132234423
-2.183362392820545
-2.172990260381716
-2.174001796001201
-2.181531877866254
-2.182988192094351
-2.189439482015504
-2.195143496316244
-2.187348752161198
-2.170345756235612
-2.159764133122341
-2.158821142305348
-2.157234788954355
-2.15261062887251
-2.15905859296989
-2.163346282574049
-2.161927975021196
-2.161161134214288
-2.159575377733425
-2.167315092383908
-2.176819376455758
-2.156905113022416
-2.153671858170958
-2.157880080682561
-2.170620762476784
-2.17801564928731
-2.166840013428933
-2.165862971740379
-2.168910689529577
-2.169397569007709
-2.171446852189773
-2.171112238549247
-2.17998799241573
-2.19518529323773
-2.193421167312503
-2.194835352972683
-2.195569210552165
-2.194303637295584
-2.192888297697169
-2.199459515490618
-2.199186420608533
-2.196168055369447
-2.193390761992597
-2.187053673815304
-2.183355630635511
-2.196190826940625
-2.19361298474609
-2.195237761859097
-2.202322562695647
-2.205439729592937
-2.206971219313532
-2.198014745876383
-2.192397838917127
-2.192629152773585
-2.189228872632134
-2.189728170635354
-2.184405799151545
-2.185500330977377
-2.185966106594432
-2.181575230625274
-2.173573914254844
-2.171952834257598
-2.179427089031233
-2.18382496365292
-2.190764136430882
-2.198187866300525
-2.189907670955768
-2.171374045953919
-2.156871581680873
-2.15649520653731
-2.154478555772619
-2.143568146424579
-2.156974102434375
-2.163664489953042
-2.163258167015571
-2.164937064338117
-2.171114456967016
-2.188511721724715
-2.20246638564826
-2.167218020990259
-2.159856226034144
-2.159967641396017
-2.168155289942192
-2.172985576193269
-2.166906742865082
-2.166332802676996
-2.169173083287217
-2.168401837032851
-2.17083235558223
-2.168628753630313
-2.176970711870486
-2.196200488566789
-2.194121733578715
-2.195618815029729
-2.196131114230802
-2.194909372674883
-2.194819814421198
-2.198198396060781
-2.199554856950244
-2.197650263329328
-2.194995474919375
-2.188818215069026
-2.18357998560586
-2.193218782262644
-2.19039811384636
-2.192166945103549
-2.200127539135233
-2.204636079557058
-2.205737808110273
-2.20086936618586
-2.198336144284647
-2.196022287602994
-2.190580985422717
-2.191900830371781
-2.188140962391643
-2.185666148776312
-2.187038501912923
-2.180340472498645
-2.171733092380851
-2.171987716649423
-2.17923380903656
-2.185818643400606
-2.192627825729484
-2.195665734968357
-2.187724025750115
-2.172754974721021
-2.157920869571853
-2.157780221227914
-2.155364326406664
-2.14597578975637
-2.157672597753865
-2.162647043141457
-2.163777360822829
-2.167560627327414
-2.181633356374732
-2.212467424709347
-2.23130449434339
-2.177306767872293
-2.16677005723898
-2.163126665970246
-2.167249824556371
-2.169518940823808
-2.166063193909173
-2.166854711684911
-2.169067315589429
-2.165734478888966
-2.169594554680983
-2.166619512729849
-2.174091639611562
-2.195455726104515
-2.196155966113703
-2.197258637012145
-2.197505702521824
-2.195680864555811
-2.196193728407918
-2.197553022476832
-2.200246268503539
-2.199507185669118
-2.196357433046799
-2.189611996509393
-2.183208662023137
-2.190252937668822
-2.187314683428333
-2.189948391577665
-2.197942813259529
-2.204370057409615
-2.206641471078381
-2.205180123310519
-2.205973602274531
-2.202232001111606
-2.19400883177516
-2.193812337577889
-2.192799494485865
-2.189658463097983
-2.189820412677309
-2.179714587797425
-2.169706219707445
-2.172235571775512
-2.17975555098488
-2.188234167695629
-2.193560132571478
-2.192292558153247
-2.184242973429584
-2.173587128610311
-2.160427507294174
-2.160186912191119
-2.158042236157204
-2.153539287548504
-2.160083208320832
-2.16216350934405
-2.164033840588381
-2.168544452481146
-2.191834494260288
-2.237480459701917
-2.234822391575611
-2.178599937237331
-2.167644471357698
-2.163529829708549
-2.167204099790712
-2.169264179839215
-2.16603695400086
-2.16688658986368
-2.168979694765653
-2.165337393914424
-2.169546748592737
-2.166558256046291
-2.174129680467631
-2.195177063633135
-2.196326592025399
-2.197663561538606
-2.197641635144329
-2.195663206964813
-2.196212993418365
-2.197616653098454
-2.200370799601718
-2.199735296763334
-2.196415719659727
-2.189714194267171
-2.18320626529682
-2.189864572030437
-2.186885081248751
-2.189731324905813
-2.197749523747249
-2.2043992598905
-2.206779086748879
-2.205619038803913
-2.206819750065219
-2.202935265909039
-2.194440453373624
-2.193932710745952
-2.193086520874494
-2.190269687585772
-2.190411456131556
-2.180066478964938
-2.169752461209324
-2.172362775608409
-2.179994813170496
-2.188754316553624
-2.193515931735996
-2.191872540153364
-2.183808366340869
-2.173579356856449
-2.160848951421999
-2.160477250199683
-2.15833071839265
-2.154417946574835
-2.160400467814787
-2.162349259719204
-2.1641476450289
-2.168411423773851
-2.192794529659664
-2.24052181269675
-2.250218886301791
-2.189594963252133
-2.174536904836548
-2.167829906586568
-2.168638140316284
-2.169091388851818
-2.166723538152264
-2.167102119407105
-2.167369741399169
-2.161388956773839
-2.168729092928682
-2.166994012072928
-2.17555517467492
-2.192298841442758
-2.197286513026926
-2.202262157969561
-2.198688233693928
-2.194497615395708
-2.195157953929982
-2.200693001236001
-2.201120971434246
-2.201740000733948
-2.197338705331462
-2.190003986733646
-2.183383664835917
-2.187257072265843
-2.184956908395679
-2.188555213379618
-2.198497021491365
-2.204765662547833
-2.208196409083522
-2.208045724784078
-2.211045430576907
-2.205869883079553
-2.19601918405834
-2.194553098334033
-2.193718242985609
-2.193776358355127
-2.196156525484049
-2.186802602990892
-2.172949597566588
-2.172212071802091
-2.184263923477539
-2.194658516283799
-2.193440101229446
-2.188233264164954
-2.180570427059426
-2.171850673012818
-2.164287064987749
-2.163007717146279
-2.161016288062897
-2.159627217910967
-2.163495777888234
-2.165190463439858
-2.164942766030061
-2.166076814297378
-2.195854708352999
-2.251237498028629
-2.239761018649816
-2.19771761294079
-2.179750905038324
-2.174479523745987
-2.172601244778798
-2.171616371112431
-2.169550312628732
-2.168856440668823
-2.167313491926408
-2.157952416564514
-2.169140043368516
-2.163804306158202
-2.171034745000847
-2.192480231980622
-2.198347936100753
-2.206169295047353
-2.199186273156922
-2.193643877598831
-2.192275107534447
-2.204096406142495
-2.201049199648546
-2.202613401859084
-2.201006542972477
-2.19007511218923
-2.184742970809172
-2.1859884432286
-2.185391681048613
-2.189160694792974
-2.199531813503208
-2.205466246117123
-2.20708977916177
-2.206706375729706
-2.206542011117156
-2.200488060773306
-2.187654256640818
-2.189022116900188
-2.189769678245952
-2.192071766275014
-2.191869745481569
-2.18762037502856
-2.178193356647869
-2.172547974706766
-2.186766428929278
-2.199046704712341
-2.195356491688511
-2.183434705727324
-2.17753176515745
-2.168781332073435
-2.167054678597746
-2.166348898591172
-2.164406613104821
-2.163903468517144
-2.165706413281442
-2.165781333202305
-2.166843174752221
-2.167146780365079
-2.191316253808058
-2.235918125088672
-2.23719890224513
-2.198413681075546
-2.180312676974208
-2.175298881134772
-2.173102207643169
-2.171961731824753
-2.169940813340097
-2.169118115216401
-2.167375934103438
-2.157753138975605
-2.169141401225517
-2.163493546138733
-2.1709646848341
-2.192250309234532
-2.198319362172607
-2.206225064920024
-2.199227587971832
-2.193657606879686
-2.191870210262798
-2.204518301763065
-2.200965684524218
-2.202675650740941
-2.201470800505564
-2.19026210907529
-2.184880099131262
-2.185981861336039
-2.185633930292149
-2.189387584801808
-2.199654722457787
-2.205451179427898
-2.206908023242717
-2.206426390559239
-2.205884006331008
-2.199601370358147
-2.186759564228914
-2.18828778939685
-2.18911989790275
-2.191675933507065
-2.191296652059286
-2.187360808494825
-2.178523812747374
-2.172392366209897
-2.186734527855013
-2.199512232516172
-2.195748653695347
-2.183079894351444
-2.177133407716092
-2.168500474748509
-2.167309373571514
-2.16668322018042
-2.164719877148323
-2.164365999003162
-2.16594312368494
-2.165748963084203
-2.167007446480846
-2.167503433237637
-2.190445593226686
-2.232966594867495
-2.224097677628344
-2.205567722391769
-2.188302906030561
-2.182101142255378
-2.178281887223375
-2.175725059755635
-2.172972291240874
-2.171682157710536
-2.169571274284178
-2.162837579073518
-2.170441178757753
-2.166080296872062
-2.17282416404704
-2.188718150592534
-2.191308788738886
-2.198049896275233
-2.197196304382806
-2.196955431824162
-2.186725294323123
-2.207423808505516
-2.201419907215918
-2.200732475288499
-2.200754853768243
-2.191817841892355
-2.187896734957975
-2.189863505860392
-2.186180919022697
-2.190978340220263
-2.201713807385738
-2.206022724104201
-2.204808041167659
-2.199983665047283
-2.19543951577039
-2.190876839450965
-2.184800783107361
-2.180495986941305
-2.179537476886733
-2.183228542186673
-2.185145759728194
-2.183743751312514
-2.178921874713497
-2.172295933176002
-2.182495069842817
-2.195550888996975
-2.198624522905077
-2.185127172502255
-2.177182292399896
-2.167188509691543
-2.16595277918392
-2.166647283550706
-2.165908519170778
-2.167098452316293
-2.167865608999443
-2.166139699754094
-2.167465730759087
-2.170050988324431
-2.188331537028275
-2.219205845417059
-2.222191494908417
-2.205662644674592
-2.189152616775131
-2.182754267105757
-2.178773945142091
-2.17608628696427
-2.173269110888747
-2.171932490777122
-2.169781993952436
-2.163363168340971
-2.170248873065635
-2.166190906950164
-2.172956605244455
-2.188477412322174
-2.191015507969863
-2.197712304739979
-2.197203784509216
-2.197235659157221
-2.186865505365192
-2.207672178158959
-2.2014720813732
-2.200538053959246
-2.200688007577476
-2.192058726353031
-2.188208772925892
-2.190103507844663
-2.186182274663572
-2.19121127871874
-2.20182199779846
-2.206036480744889
-2.204688036305152
-2.199348303354578
-2.194651537516361
-2.190180304196093
-2.18466158795946