/*--------------------------------*- C++ -*----------------------------------*\
| =========                 |                                                 |
| \\      /  F ield         | OpenFOAM: The Open Source CFD Toolbox           |
|  \\    /   O peration     | Version:  v1812                                 |
|   \\  /    A nd           | Web:      www.OpenFOAM.com                      |
|    \\/     M anipulation  |                                                 |
\*---------------------------------------------------------------------------*/
FoamFile
{
    version     2.0;
    format      ascii;
    class       volScalarField;
    location    "10000";
    object      nut;
}
// * * * * * * * * * * * * * * * * * * * * * * * * * * * * * * * * * * * * * //

dimensions      [0 2 -1 0 0 0 0];


internalField   nonuniform List<scalar> 
3770
(
6.07462638389386e-06
6.07947049306854e-06
6.076424769253612e-06
6.074658271150471e-06
6.079463853658373e-06
6.076424417838305e-06
6.074642171893546e-06
6.077385862232632e-06
6.077329986810689e-06
6.076122764509387e-06
6.078382585107104e-06
6.080393573397256e-06
5.855516075160099e-06
5.854700841571275e-06
6.077946771535349e-06
6.080101115067802e-06
5.85575074024674e-06
6.078727993290488e-06
5.855747012964784e-06
6.079007640388117e-06
5.857919428522717e-06
5.854057549073756e-06
5.856481697382605e-06
5.857963344795431e-06
5.854079531650541e-06
5.856467418265586e-06
5.857961216774576e-06
5.855101660518221e-06
5.85743922381547e-06
5.856567055519933e-06
5.854787792997262e-06
5.854686093375377e-06
6.076360376330956e-06
6.080214192326476e-06
6.077388920894435e-06
6.078581705795721e-06
6.080384829125702e-06
5.856306900156097e-06
5.854795627064665e-06
5.854695864077079e-06
6.077946758925402e-06
6.08036052133376e-06
5.856303396241707e-06
5.854792210223461e-06
5.854704771361291e-06
6.074583670746766e-06
6.076453159184115e-06
6.07868831354929e-06
6.08041362232543e-06
5.855519598069243e-06
5.854709836710316e-06
6.077450482687025e-06
6.075333856346393e-06
6.079460556181467e-06
6.076418492575245e-06
6.07465540253904e-06
6.079451117074472e-06
6.0764414371569e-06
2.48712710536922e-05
2.498346077611074e-05
2.493951403252696e-05
2.487054103004735e-05
2.498279505398209e-05
2.493946194640025e-05
2.487043665014863e-05
2.498099923742092e-05
2.493933509836035e-05
2.487234896296224e-05
2.49859365816967e-05
2.47359115696208e-05
1.712175129075471e-05
1.716904253674575e-05
2.497661101742206e-05
2.473123442731154e-05
1.718113852913418e-05
2.465317526938069e-05
1.718099957209459e-05
2.466522543514767e-05
1.713540926478261e-05
1.712157031258865e-05
1.712512969074637e-05
1.713863305944185e-05
1.712308708198328e-05
1.712477399865846e-05
1.713775992019852e-05
1.712321673656687e-05
1.712506668210849e-05
1.713755112099931e-05
1.71223957024181e-05
1.716836030716795e-05
2.486212742389432e-05
2.498035702168031e-05
2.494636450699283e-05
2.498618231572214e-05
2.474282427187507e-05
1.71349083733222e-05
1.712217262816329e-05
1.716877046543628e-05
2.497647567800604e-05
2.474352568954972e-05
1.713470041162135e-05
1.712217143536837e-05
1.716658563903849e-05
2.485814596195708e-05
2.487287113917561e-05
2.498591566759571e-05
2.473598321149616e-05
1.712174578111778e-05
1.716962804608715e-05
2.496875331060528e-05
2.494228772585037e-05
2.498243657784135e-05
2.493896145290721e-05
2.487042707293599e-05
2.49809518509025e-05
2.49400683302106e-05
0.0001491633749423526
0.0001493021309799563
0.0001492427549849612
0.0001491638399268698
0.0001492986818046522
0.0001492424977482151
0.0001491631820106477
0.0001492981369303523
0.0001492395587837412
0.0001491655647558338
0.0001492892491257319
0.0001490386535999574
0.0001362314774563543
0.0001364200943008602
0.0001492777340984789
0.0001490428502600045
0.0001364765874237134
0.0001489518928385016
0.000136474252123427
0.0001489583781123318
0.0001362973662309549
0.0001362058467209135
0.0001362529834098024
0.0001363063090202952
0.0001362267274030442
0.0001362485768019754
0.0001362993840552453
0.0001362284454020994
0.0001362461420259469
0.0001362981973636744
0.000136227868797069
0.0001364178382385398
0.0001491545407561925
0.0001492549919549626
0.0001492268267012272
0.0001492925833803396
0.0001490441106538924
0.0001362956273301694
0.0001362229043424851
0.0001364180993344471
0.0001492758107679249
0.000149047706379292
0.0001362930603642695
0.000136222415043733
0.0001364198188591841
0.0001491862910423268
0.0001491877434454014
0.0001492910630762764
0.0001490399196393052
0.0001362307677973099
0.0001364174398804601
0.0001492406816893036
0.0001492229695137029
0.0001492987733288436
0.0001492388451295939
0.0001491640492244267
0.0001492759513079841
0.0001492495392153623
0.0004746720770901497
0.000474804984928767
0.0004747187549063705
0.0004746159940722785
0.0004747909448264953
0.0004747055013243575
0.000474610444213358
0.0004747852972165993
0.0004747065110276469
0.0004746168735832946
0.0004747410333487398
0.0004745537950505269
0.0004684916903335723
0.0004685297277198865
0.0004746918869701685
0.0004745743282526499
0.0004685508366505756
0.0004744524533676919
0.0004685394471552042
0.0004744432263085366
0.0004684452710971948
0.0004683492634596684
0.0004684597524208186
0.0004684845591948771
0.0004684893774965005
0.0004684408002878347
0.0004684241879432017
0.0004684930607389878
0.0004684312104546308
0.0004684219902976434
0.0004684700137855672
0.0004685322583385642
0.0004745820021047782
0.0004747386639143479
0.0004747103165090133
0.0004747428198750111
0.0004745586204983772
0.0004684435748091153
0.0004684447040787807
0.0004685172793950553
0.0004746868921226503
0.0004745635247957443
0.0004684296186825481
0.0004684409675644719
0.0004685294707470396
0.0004746147024657128
0.000474618303711576
0.0004747399525322849
0.000474562661979921
0.0004684882769941268
0.0004685197565407449
0.0004746938767602096
0.0004747111269799922
0.0004747941851912805
0.0004746890106089502
0.0004746152583289645
0.0004746661916305641
0.0004747343212332696
0.0009582025780222842
0.0009582970679577748
0.0009582693375003371
0.0009581509111979351
0.000958274133116052
0.0009582236033839157
0.0009581268822608297
0.000958241834032013
0.0009582379985562884
0.0009581505470930733
0.0009582623057716822
0.0009581261120850886
0.0009566095120295583
0.0009565439357387839
0.0009582066237807182
0.0009581519206827736
0.0009565103128634591
0.0009580317202726084
0.0009564835751588581
0.0009580075855998466
0.0009564719865984207
0.0009564373560773036
0.000956550594363749
0.0009565432395800603
0.0009565782851206612
0.0009565634476324569
0.000956496682006292
0.0009565865756504378
0.0009565529921856767
0.0009564941266116576
0.0009565946025181454
0.0009565546657251394
0.0009580550487735402
0.0009582430882865918
0.0009582477258069657
0.0009582520000387468
0.0009581280019904238
0.0009564808873374048
0.0009565542372712271
0.0009565151730525536
0.0009581986846790508
0.0009581327146619956
0.000956445612370048
0.0009565421755581042
0.000956539809359604
0.0009581187135392618
0.0009581002778289463
0.0009582430981027942
0.0009581242780901773
0.000956602895380817
0.0009565261919416662
0.0009582022842293699
0.0009581845157538097
0.0009582384435349261
0.000958184938013387
0.0009581394836174409
0.0009581458346503525
0.0009582299199134942
0.001512607458746644
0.001512667637068115
0.001512662718655882
0.00151255852695307
0.001512643811994876
0.001512637043428126
0.001512542804206283
0.001512617160793904
0.001512636009465693
0.001512554729004799
0.001512644104547545
0.001512539386490415
0.001512442240713559
0.00151235870594015
0.001512631537264547
0.001512591267983814
0.001512307329577238
0.001512469718866738
0.001512266019653664
0.001512432214923003
0.001512276771486098
0.001512295862946114
0.0015123885390569
0.001512371185068315
0.001512417081184298
0.001512426212963025
0.001512341454595595
0.001512421115577921
0.001512423007416201
0.001512345171257188
0.001512431272851195
0.001512376788158213
0.001512470702378741
0.001512615198408236
0.001512644290855528
0.001512662968866165
0.00151256531353715
0.001512298144081525
0.001512406161142817
0.001512332505347482
0.001512622442495009
0.001512569017026141
0.001512273463340684
0.001512405568055066
0.001512365379086879
0.001512539552814985
0.001512496274036541
0.001512614963668159
0.001512527807765134
0.001512432347388747
0.001512335198200179
0.001512603688416415
0.001512585664927918
0.001512631166194215
0.001512616181978105
0.00151257414203026
0.001512563748494281
0.001512616431733273
0.002081986593692365
0.002082033488595603
0.002082044692743196
0.002081949842573617
0.002082003224555431
0.002082025505516782
0.002081938401159822
0.002081991493006977
0.002082024845066669
0.002081942325328447
0.002082021531105675
0.002081928860366115
0.002082065765775037
0.00208198849406277
0.002082010133656054
0.002081985026410756
0.00208194447414643
0.002081865708518978
0.002081891747854794
0.002081817620956121
0.002081891840530346
0.002081935022510924
0.002082009950742171
0.002081989584195047
0.002082041367383612
0.002082071635191831
0.002081984496259849
0.002082043002979443
0.002082068380412223
0.002081990418391396
0.002082059993426178
0.002082017655604717
0.00208186964564779
0.002081980161563303
0.002082016154417949
0.002082049074441825
0.002081970706834403
0.002081938061952845
0.002082046237314323
0.002081969092669457
0.002082000157477305
0.002081963260421868
0.002081917140426998
0.002082037033257291
0.002081998869888261
0.002081929012292043
0.00208187250850513
0.002081982324129195
0.002081908259786192
0.00208205176471035
0.002081960957376651
0.002081977134117779
0.002081973383468388
0.002082013822449758
0.002082011900846006
0.002081963337610524
0.002081951888904344
0.002081985158658898
0.002645499796700335
0.002645537493866412
0.002645564601877174
0.00264548006377772
0.00264551115476247
0.002645547786706907
0.002645470441265661
0.002645503536387314
0.002645548170274174
0.002645468570675992
0.002645538899014519
0.002645455169085838
0.002645571869663241
0.002645506267309923
0.002645520293172479
0.002645510012032775
0.002645475862757059
0.002645394886767215
0.002645415306523832
0.002645338711881634
0.002645400723477467
0.002645447334734157
0.002645513915658316
0.002645494557378736
0.002645540526091116
0.002645586733242076
0.002645507679246236
0.00264554592532676
0.002645584961185813
0.002645514144025779
0.002645568204702221
0.002645543741890138
0.002645405853036686
0.002645488104448358
0.002645524830530679
0.002645566399688392
0.002645507629736758
0.002645464757106858
0.002645560941467732
0.002645493310560224
0.00264550982755442
0.002645489450322262
0.002645445235322728
0.002645546308535742
0.002645518539640538
0.002645455248930604
0.002645391799250941
0.00264549070268875
0.002645426123262888
0.002645553882575791
0.002645475914608393
0.002645486000099438
0.002645494721052845
0.002645530942867104
0.002645539313436084
0.002645492866029006
0.002645477540806675
0.002645498142326227
0.003205895267766684
0.003205923417438707
0.003205962138408774
0.00320589045267977
0.00320590465221728
0.003205946938682856
0.003205882253726062
0.003205897800893883
0.003205948614481391
0.003205876199943467
0.003205937612961134
0.00320586531035156
0.003205939889498231
0.003205887358038405
0.003205909831441882
0.003205913943122686
0.00320587016979986
0.003205806926176208
0.00320580479867596
0.003205745379431949
0.003205776223237538
0.003205817046533123
0.003205878566699001
0.003205862644795086
0.003205899222201318
0.003205955972871382
0.003205889934323142
0.003205911197872046
0.003205956849239378
0.003205896529970793
0.003205936149716899
0.003205927029729094
0.003205820548115493
0.003205878355119626
0.003205914199360194
0.003205961054835283
0.003205922882542596
0.003205853921650868
0.003205933654202032
0.003205878399010972
0.003205899340347755
0.003205895819120533
0.003205834800910399
0.003205915139016011
0.003205897124474878
0.003205861513742931
0.003205795738882168
0.003205882389632498
0.003205829358773095
0.003205916105361768
0.003205854300195474
0.003205874807626997
0.003205892052805621
0.003205924990180998
0.003205941916849918
0.003205902447621109
0.003205883435453142
0.003205896046104815
0.003779370190395915
0.003779388654140702
0.003779434212720986
0.00377937762097815
0.003779378706500108
0.00377942132845602
0.003779371067414248
0.00377937178115661
0.003779424248457847
0.003779361029813405
0.003779413587590347
0.003779352714332002
0.003779400071237584
0.00377935918819631
0.003779380372929258
0.00377939516246662
0.0037793530899492
0.003779298559434209
0.003779285593346456
0.003779233553368312
0.003779243778919123
0.003779276080339525
0.003779333078286132
0.003779321669190301
0.003779348607688175
0.0037794105734952
0.003779360116777574
0.00377936818710906
0.003779415307703072
0.003779367247581797
0.003779394697484525
0.003779398206872433
0.003779313796193172
0.003779349628336948
0.00377938114286949
0.003779429841446293
0.00377941023872758
0.003779332313439669
0.003779395389387285
0.003779353189169194
0.003779369539760205
0.003779378647491676
0.003779311806355992
0.003779374638072124
0.003779364622574201
0.003779347123446673
0.003779281170457576
0.003779353539174208
0.003779309763151631
0.003779371817716337
0.003779323347396969
0.003779344246283187
0.003779365410408446
0.003779394824624656
0.003779418642384092
0.003779388286422045
0.003779367007577377
0.003779374420097164
0.004389016911471586
0.004389025779743233
0.004389073160375291
0.004389033296394786
0.004389023929760169
0.004389064162358301
0.004389028945203323
0.004389016780817888
0.004389068503316541
0.004389016025765483
0.004389060077235689
0.004389010887811086
0.004389041318556076
0.004389008411339703
0.004389023444156906
0.004389045165013239
0.004389012121312917
0.004388962800556463
0.004388945863023884
0.004388896927760615
0.004388892787701967
0.004388915454050036
0.004388965996083231
0.004388959450422498
0.004388977562593849
0.004389039637810234
0.004389006235690617
0.00438900437308576
0.004389049554050851
0.004389014343269041
0.00438903049112445
0.004389042946912085
0.004388974270302731
0.004388992452380991
0.004389018845415182
0.004389066834721747
0.00438906508438957
0.004388989767006296
0.004389035347991283
0.004389003694891801
0.004389012276835334
0.00438903135446922
0.004388967299651435
0.004389013135225759
0.004389007943027976
0.004389001159471433
0.0043889387935559
0.004388997041254845
0.004388961919309781
0.004389007856496993
0.004388969447267023
0.004388984010042764
0.004389005999120641
0.004389032538730128
0.004389061940627785
0.004389041748519356
0.004389020402347673
0.004389024139498631
0.005059184116453907
0.005059183745639856
0.005059228750969497
0.005059205992071705
0.005059189660322347
0.005059225052201935
0.005059204508616645
0.005059182616761894
0.00505923074887462
0.005059189071985141
0.005059224705219552
0.005059186865214504
0.005059206343457088
0.005059180566465354
0.005059188443863701
0.005059213453162176
0.005059191043006787
0.005059147452562228
0.005059129411276604
0.005059083128503795
0.005059066833429328
0.005059080221596353
0.005059122041561494
0.005059120519485182
0.005059130911631715
0.005059188491110671
0.005059172457933261
0.005059163655482666
0.005059204977054739
0.005059182690450156
0.005059190258374486
0.005059208777478568
0.005059155003983648
0.005059158102623947
0.005059176494845084
0.005059219671917475
0.005059234958572803
0.005059168236660615
0.00505919812280623
0.00505917642547529
0.005059176881780596
0.005059201552194703
0.00505914479185656
0.005059175941340928
0.005059173627242172
0.00505917515083563
0.005059117954942938
0.005059161586042731
0.005059133125606757
0.005059167831904536
0.005059138426750738
0.005059145832147029
0.005059165931000382
0.005059188970458041
0.00505922160831547
0.005059211668568836
0.005059192783226528
0.005059194128260789
0.005809111814368573
0.005809101864287367
0.005809141145754501
0.005809133923074973
0.005809115130443443
0.005809143380004394
0.005809135888535866
0.005809108964639116
0.00580915066809543
0.005809120224359551
0.005809148258841238
0.005809121688857326
0.005809132377280366
0.00580911206992868
0.005809113908204624
0.005809138339812445
0.00580912725177654
0.005809091938940005
0.005809074257252424
0.005809031817192769
0.005809006042119814
0.00580900962581894
0.005809039923834505
0.005809042417632518
0.005809046279390204
0.005809095075702105
0.005809095085746332
0.005809083285444628
0.005809118253023611
0.005809108289528425
0.005809109263070961
0.005809128879585197
0.005809090657308879
0.00580908284011535
0.005809095502816845
0.005809130197704912
0.005809160355120365
0.005809105947012084
0.005809121408698182
0.00580910678301455
0.005809100929307292
0.005809129491898379
0.005809082687025282
0.005809099926935642
0.005809098010453009
0.00580910550767638
0.00580905645879813
0.005809087075997004
0.005809064936909253
0.005809089053807597
0.00580906676336248
0.005809066440832795
0.00580908294369975
0.005809102832976052
0.005809136279938808
0.00580913629714684
0.005809122656233403
0.005809122484558263
0.006646423399691086
0.006646405598741337
0.006646436112278492
0.006646441555461516
0.006646424860681893
0.006646444408607501
0.006646447463395412
0.006646420354039287
0.006646453241456299
0.006646432668787798
0.006646453678665305
0.006646437414053692
0.006646442376873813
0.00664642708236508
0.006646424596477234
0.00664644602879937
0.006646443865640587
0.006646418277755516
0.006646402203256687
0.006646365634657108
0.006646333226168612
0.00664632706874878
0.006646345491662286
0.006646350171320625
0.00664634830787825
0.006646385258751761
0.006646399235656088
0.006646387006112394
0.006646414241710268
0.00664641554332417
0.006646413004546946
0.006646431501330384
0.006646408420308344
0.0066463935996663
0.006646400403188351
0.006646424315973766
0.006646462836636213
0.00664642384642333
0.006646428765686533
0.006646419179669257
0.006646410006098594
0.006646439070267954
0.006646403019900433
0.006646410103537388
0.006646407072449678
0.006646418385228532
0.006646379066984828
0.006646398143375927
0.006646380516477619
0.006646395837538126
0.006646379590821729
0.006646373364663743
0.006646385491731777
0.006646401661781406
0.006646431781521973
0.006646441337248911
0.006646433272414307
0.006646433270318136
0.007562726052146125
0.007562703442023084
0.00756272335740509
0.007562737863149857
0.007562725108602518
0.007562736692791337
0.007562747707340833
0.00756272307792634
0.007562747181276194
0.007562735074362248
0.00756275059116788
0.007562742787661397
0.007562743839775254
0.007562732528637972
0.007562727541311629
0.007562744293818397
0.007562750033281506
0.007562732938683935
0.007562720215207963
0.007562691201152075
0.007562656746782413
0.007562641519818592
0.007562648938239091
0.007562652475388802
0.007562646233308022
0.00756267053036359
0.007562692681338549
0.007562682541755271
0.007562701152421386
0.007562711515992672
0.007562707344989986
0.007562721980419027
0.007562711451430319
0.007562695844097756
0.007562699433220723
0.007562714174131738
0.007562752451412856
0.007562729410096797
0.007562727789258658
0.007562721168233213
0.00756271114711711
0.007562738548693647
0.007562713044085497
0.007562713036504752
0.007562708375672582
0.007562720280567129
0.007562691790349084
0.007562702529286441
0.007562688967422774
0.00756269614668882
0.007562684280165371
0.007562672896431388
0.007562681016803086
0.007562693323353955
0.007562717521835848
0.007562734016112314
0.007562732027085786
0.007562733293723127
0.008533654917945957
0.008533631748608652
0.008533642086725446
0.008533660203763479
0.008533652379341837
0.008533658550473873
0.008533673150869192
0.008533653259175659
0.008533669451919941
0.008533663298614925
0.008533674350394867
0.008533672622895918
0.008533672813303283
0.008533664446172973
0.008533659349990043
0.008533671412433165
0.008533681434282854
0.008533670957374187
0.008533662354921614
0.008533641682556209
0.008533609207262496
0.008533588050736491
0.00853358688057391
0.008533586965273399
0.008533577753364916
0.008533590936507303
0.00853361416409735
0.008533607293866664
0.008533618667281034
0.008533634284768348
0.008533630876384613
0.008533641035033438
0.008533639246883173
0.008533627652549104
0.008533627806185558
0.008533635912029883
0.008533667679629989
0.008533658151738486
0.008533654327160856
0.008533650168752578
0.008533640838930046
0.008533664931521837
0.008533648308684166
0.008533645201453059
0.008533639480847701
0.008533649761851832
0.008533630674770377
0.008533636903529302
0.008533625630160541
0.008533627076677241
0.008533617921079395
0.008533604322447064
0.008533608923764174
0.008533616965744527
0.00853363392145046
0.008533652370960399
0.008533655869425271
0.008533659989768801
0.00952395900030709
0.009523938575612827
0.009523942618789645
0.00952395885632089
0.009523955833554714
0.00952395970765826
0.009523973850766856
0.009523959591898735
0.009523969831161463
0.009523967752843265
0.009523975644647995
0.009523977809401367
0.009523977763301437
0.009523972016589926
0.009523968008245835
0.009523976748314256
0.009523987528793298
0.009523982278773652
0.009523977802343214
0.009523964580239826
0.009523937349407879
0.009523914933965285
0.009523906060412963
0.009523903545996897
0.00952389163002829
0.009523897323151271
0.009523914807412614
0.009523911190869103
0.009523917695204812
0.009523933748122793
0.009523932029485045
0.009523937023483496
0.00952394172622229
0.009523934616377289
0.009523934179359293
0.009523938443807948
0.009523961970487676
0.009523960970936014
0.009523957893871192
0.009523954768465116
0.0095239476077812
0.009523968091876464
0.009523958024716785
0.009523953789293599
0.009523948487359527
0.009523956249033409
0.009523944548563749
0.009523947357092255
0.009523938986949946
0.009523936822377321
0.009523929129562724
0.009523915037047718
0.009523916659130324
0.009523921169395516
0.009523931681279954
0.009523948033962292
0.009523955174088165
0.009523962200035258
0.01049557320853837
0.01049555738677633
0.01049555825737023
0.01049556973449075
0.01049557068212058
0.01049557371611282
0.01049558621052201
0.01049557665581548
0.01049558219114677
0.01049558304604757
0.01049558776454693
0.01049559384871773
0.01049559313990992
0.01049558948563565
0.01049558718439972
0.0104955940784324
0.0104956035516926
0.01049560179378553
0.01049560046867684
0.01049559295892087
0.01049557246552357
0.01049555208756734
0.01049553906320281
0.01049553454179213
0.01049552077594018
0.01049552153530661
0.01049553156706426
0.01049552978418861
0.01049553373329561
0.01049554647639452
0.01049554717609865
0.01049554800613742
0.01049555651562043
0.01049555257215289
0.01049555212231613
0.01049555520052881
0.01049557028625619
0.01049557480493627
0.01049557292976147
0.01049557004307809
0.01049556550375407
0.01049558304483414
0.01049557738231432
0.01049557368479984
0.01049556939135805
0.01049557483726714
0.01049556797580532
0.01049556886099779
0.01049556338714358
0.01049555908673121
0.0104955529492875
0.01049553941169431
0.01049553841845971
0.0104955410195802
0.01049554672863007
0.0104955580852172
0.01049556633514936
0.01049557565003331
0.01141521964227355
0.01141520845684521
0.01141520779726556
0.01141521482917208
0.01141521746167079
0.01141522090410884
0.01141523198887878
0.01141522577143085
0.01141522843437168
0.01141523036686376
0.01141523387188154
0.01141524020496448
0.01141524083154141
0.01141523793710402
0.0114152374479287
0.01141524345048343
0.01141525070743403
0.01141525214455191
0.01141525213721734
0.01141524898403045
0.01141523474709286
0.01141521822214777
0.01141520428892292
0.01141519835890798
0.01141518379962706
0.01141518131259152
0.01141518570887782
0.01141518398008147
0.01141518603898397
0.01141519464698348
0.01141519674601787
0.01141519460791943
0.01141520408484118
0.01141520237770562
0.01141520296877939
0.01141520550141418
0.01141521469954023
0.01141522154236266
0.01141522095484634
0.01141521759276421
0.01141521540593949
0.01141523099556508
0.01141522738012642
0.01141522464214508
0.01141522178176528
0.01141522612493696
0.01141522186343111
0.01141522190495348
0.01141521875800744
0.01141521384236712
0.01141520926788762
0.01141519694804488
0.01141519385274165
0.01141519482476567
0.01141519812379537
0.01141520439261748
0.0114152116723687
0.01141522205873264
0.01225890623702367
0.01225889884604018
0.0122588974586352
0.01225890144960818
0.01225890489522781
0.01225890819434814
0.01225891809797208
0.01225891416603907
0.01225891526208498
0.012258916887937
0.01225891999630398
0.01225892557737028
0.01225892683463652
0.01225892511053687
0.01225892551875886
0.01225893182366596
0.01225893707552613
0.01225893902508712
0.01225894118942411
0.01225894043254763
0.01225893091743325
0.01225891885410559
0.01225890632353044
0.01225890008977805
0.01225888659135436
0.01225888154921539
0.01225888262609666
0.01225888008428363
0.01225888061098306
0.01225888550186672
0.01225888821373964
0.01225888474553816
0.01225889301462122
0.01225889251269883
0.01225889380869152
0.01225889610241609
0.01225890166130056
0.01225890837364207
0.01225890914092511
0.01225890443451265
0.01225890435960341
0.0122589193694729
0.01225891669423786
0.01225891481424807
0.01225891282421191
0.01225891672183252
0.01225891397116093
0.01225891374355908
0.01225891239078005
0.01225890765993987
0.01225890450313949
0.01225889389334707
0.01225888943271868
0.01225888941844532
0.01225889118217802
0.01225889410728381
0.01225889904048532
0.01225890927111318
0.01301275711176926
0.01301275232306308
0.01301275040026022
0.01301275267291271
0.01301275637646748
0.01301275939874526
0.01301276825481902
0.01301276581987168
0.0130127664202436
0.01301276823905391
0.0130127697320368
0.01301277465650521
0.01301277637027194
0.01301277521733623
0.0130127759963338
0.01301278255881417
0.01301278643898274
0.01301278868290229
0.01301279173098609
0.01301279252534716
0.01301278626709789
0.01301277844424885
0.01301276823788083
0.01301276265529937
0.01301275112230425
0.01301274399628958
0.01301274410118219
0.01301273983861972
0.01301273965474397
0.01301274159465361
0.01301274404178368
0.01301273972008927
0.01301274637678957
0.01301274650913085
0.01301274817430422
0.01301275048544865
0.0130127541257478
0.01301275918598491
0.01301276078821828
0.01301275588243946
0.01301275639140609
0.0130127712368047
0.0130127692951965
0.0130127674799228
0.01301276649837564
0.01301277014568014
0.01301276824561272
0.01301276797412002
0.01301276777912883
0.01301276350651069
0.01301276162065168
0.01301275286214044
0.01301274782438606
0.01301274658392331
0.01301274788723892
0.01301274912046149
0.01301275212129179
0.01301276084531094
0.0136712486789929
0.01367124554175222
0.01367124312414078
0.01367124448183899
0.01367124816496891
0.01367125084428153
0.01367125873837627
0.01367125712448896
0.01367125790789211
0.01367125847800024
0.0136712597504685
0.01367126378182814
0.01367126582935337
0.01367126487147933
0.01367126611188364
0.01367127212362891
0.01367127514735414
0.01367127749302875
0.0136712796198059
0.01367128333660104
0.01367127850645366
0.0136712741906819
0.01367126627723311
0.01367126218117844
0.01367125283325483
0.01367124491751974
0.01367124458172306
0.01367123969513457
0.01367123820742381
0.01367123927680699
0.0136712398601525
0.01367123587067828
0.013671240846523
0.01367124130405399
0.0136712426038208
0.01367124485552631
0.01367124721298197
0.01367125094414046
0.01367125333679428
0.01367124768448658
0.01367124821656536
0.01367126271496594
0.0136712607521394
0.01367125946788256
0.01367125905680268
0.01367126287475918
0.01367126156458357
0.01367126126962454
0.01367126160631504
0.01367125862651715
0.01367125716939879
0.01367125004191238
0.0136712451704345
0.01367124359622956
0.01367124448195413
0.01367124482498157
0.01367124673257715
0.01367125318313325
0.01423443447524631
0.01423443225704471
0.01423442956353012
0.01423443061662866
0.01423443388578166
0.01423443637634531
0.01423444324899555
0.01423444207609805
0.01423444278426826
0.0142344429993065
0.01423444390693079
0.01423444708734231
0.01423444923021666
0.01423444826662397
0.0142344496861411
0.01423445506576605
0.01423445745126509
0.01423445967085636
0.0142344618049607
0.01423446651861075
0.01423446288888187
0.01423446140649884
0.01423445510455657
0.01423445281848417
0.01423444520506382
0.01423443767194105
0.01423443720343492
0.01423443219977805
0.0142344297662784
0.0142344291191136
0.01423443069273142
0.01423442609661071
0.01423442932414488
0.01423442963824373
0.014234431386249
0.01423443258824784
0.0142344349076426
0.01423443728537459
0.01423443927492114
0.01423443368083962
0.01423443406633011
0.01423444755833784
0.01423444564805371
0.01423444460692598
0.01423444455417871
0.01423444859072689
0.01423444753469852
0.01423444774502911
0.01423444731828097
0.01423444568372413
0.01423444506193784
0.01423443902406713
0.01423443475194265
0.0142344331872732
0.01423443410604446
0.01423443374312183
0.01423443505184358
0.01423443977050359
0.0147053632802353
0.01470536151631551
0.01470535878638224
0.01470535987922198
0.01470536253027917
0.01470536478919478
0.01470537065396335
0.01470536947109877
0.01470537006147902
0.01470537016791015
0.01470537081618963
0.01470537335339298
0.01470537551625609
0.0147053745739267
0.01470537560869297
0.0147053805530778
0.01470538239560569
0.01470538420757922
0.01470538647550823
0.01470539134140165
0.01470538915443177
0.01470538875508264
0.01470538409347754
0.01470538296688028
0.01470537709131435
0.01470537103980823
0.0147053707072254
0.01470536590381366
0.01470536254763867
0.01470536249787329
0.01470536311198382
0.01470535869293633
0.01470536087708214
0.01470536071825671
0.01470536183698963
0.01470536346460291
0.0147053649797012
0.01470536641424293
0.01470536826228885
0.01470536266625895
0.01470536289560885
0.01470537493646103
0.01470537314701012
0.01470537242071912
0.01470537227027464
0.01470537628267304
0.01470537544771739
0.01470537592863092
0.0147053756096959
0.01470537467210182
0.01470537461362775
0.01470536931861283
0.01470536593757875
0.01470536510558998
0.0147053647795949
0.01470536565910975
0.01470536540727947
0.01470536936362783
0.01508823620744387
0.0150882344847509
0.01508823185986482
0.01508823325941371
0.01508823545088808
0.01508823755869323
0.01508824231277301
0.01508824136041142
0.01508824140749642