/*--------------------------------*- C++ -*----------------------------------*\
| =========                 |                                                 |
| \\      /  F ield         | OpenFOAM: The Open Source CFD Toolbox           |
|  \\    /   O peration     | Version:  v1812                                 |
|   \\  /    A nd           | Web:      www.OpenFOAM.com                      |
|    \\/     M anipulation  |                                                 |
\*---------------------------------------------------------------------------*/
FoamFile
{
    version     2.0;
    format      ascii;
    class       volScalarField;
    location    "10000";
    object      nuTilda_0;
}
// * * * * * * * * * * * * * * * * * * * * * * * * * * * * * * * * * * * * * //

dimensions      [0 2 -1 0 0 0 0];


internalField   nonuniform List<scalar> 
3770
(
0.0005055488249950934
0.0005057463086229209
0.0005056233396530926
0.0005055508743527632
0.0005057461486193583
0.0005056233259401574
0.0005055503578228984
0.0005056843799182194
0.0005056504528356458
0.0005056139332534428
0.0005057041277389476
0.0005057687277617906
0.0004961744789353477
0.0004961226192354676
0.0005056820607516731
0.0005057582498232831
0.0004961739018684133
0.0005057043132096962
0.0004961737365471407
0.0005057149289391185
0.0004962865274055377
0.0004961117539577066
0.0004962214611308933
0.0004962878622436801
0.0004961122357278855
0.0004962211388609217
0.000496287968446658
0.0004961620160344835
0.0004962399674700355
0.0004962267172066885
0.0004961463457365053
0.0004961223503939651
0.0005056011954772981
0.0005057215114232138
0.0005056556013874256
0.0005057095183670874
0.0005057691791388842
0.0004962269328190386
0.0004961466621613297
0.0004961224946166558
0.0005056821053816878
0.0005057679999171971
0.0004962272539243477
0.0004961467057088241
0.000496123097042728
0.0005055945367519289
0.0005056401856508461
0.0005057125966586044
0.0005057695956572501
0.0004961745701824571
0.0004961233324857852
0.0005056382179016224
0.0005055746678376741
0.0005057459870203053
0.0005056231688499764
0.0005055507917428883
0.0005057460068834965
0.0005056237479588292
0.0007569559072413548
0.0007583957119916483
0.0007578599995039034
0.0007569568580293301
0.0007583892114794267
0.0007578598618681347
0.0007569559905011368
0.0007583690837053501
0.000757860025048202
0.0007569807430436351
0.0007584314957497576
0.0007551574996373853
0.0006221906283521745
0.0006236630723864974
0.0007583214764998814
0.000755098639460035
0.0006241152560247427
0.0007540896748501995
0.0006241142611293211
0.0007542428823285877
0.000622762382693886
0.0006221739463607421
0.0006223599482929795
0.0006227796407260821
0.000622187306566763
0.0006223568878783552
0.000622771166062549
0.0006221953514852671
0.0006223604785399426
0.0006227617054949472
0.000622166584258162
0.0006236338371645978
0.0007568619822726808
0.0007580636041277608
0.000757730950855113
0.0007584330766340413
0.0007552488427802241
0.0006227504480990035
0.0006221657135537865
0.0006236615844755112
0.0007583207113993174
0.0007552551986497557
0.0006227486178728252
0.0006221658307702684
0.0006236308541910367
0.0007571098299070896
0.0007571968186710646
0.0007584303366697369
0.000755157766550046
0.0006221906197266402
0.0006236609583523116
0.0007579293745251062
0.0007576806515136052
0.0007583844280498491
0.0007578556876958187
0.0007569558857331384
0.0007583754037208529
0.0007578640645511687
0.001173888206258702
0.001174524530689061
0.001174282211672022
0.001173928320138902
0.001174512413897369
0.001174284359117555
0.001173928220137017
0.001174511263018691
0.001174274840337911
0.00117393546214064
0.001174480020320802
0.001173308922237248
0.001110158022714447
0.00111113303218476
0.001174431445187256
0.00117331968286666
0.001111448887636511
0.001172916974073559
0.001111443661885475
0.001172951970880976
0.001110543381028104
0.001110066761106951
0.001110269621009237
0.001110558762441521
0.001110111998132125
0.001110261997561758
0.001110544921707812
0.0011101194424299
0.001110257702515423
0.001110539767524951
0.001110126419521927
0.001111120055348298
0.001173901910496195
0.001174272580272296
0.00117415922099208
0.001174493382344785
0.001173334954957833
0.001110536160562263
0.001110109665855885
0.001111130674391256
0.001174427669818619
0.001173350563050221
0.001110529366295316
0.001110108498026932
0.001111130705184715
0.00117409462225568
0.001174081765168807
0.001174491371925275
0.001173309023737443
0.001110156654060176
0.001111124222037938
0.00117421730484458
0.001174156960205911
0.00117451628825768
0.001174275142168579
0.001173929290665675
0.001174459853173958
0.001174296660506575
0.001632023260485744
0.001632321400114135
0.001632196523208212
0.001632003704358509
0.001632301731290546
0.001632183933015466
0.001631999507308109
0.001632297987587203
0.001632180564153516
0.001632004016110007
0.001632224839615345
0.001631779348660963
0.001613177100446224
0.001613388312109916
0.001632103190419714
0.001631806915232301
0.001613531973271908
0.001631543657976772
0.001613521009753957
0.001631534262482501
0.001613179497079834
0.001612911955319947
0.001613081095721576
0.001613187679728816
0.001613090499057449
0.001613065611965545
0.001613121731671894
0.001613095238165909
0.001613049634033615
0.001613117068970949
0.001613090172165892
0.001613388136692387
0.00163193272668505
0.001632201771375853
0.001632127768618859
0.001632222389955558
0.001631793111666696
0.001613171237472624
0.001613040040805011
0.001613375327434225
0.001632099799705007
0.00163179716842917
0.001613158975426973
0.001613036577443332
0.001613387485019669
0.001632013899315175
0.001632061454866843
0.001632233529780517
0.001631794881145032
0.00161317378531715
0.001613376345885624
0.001632101453670521
0.001632189327421639
0.001632329712536422
0.001632163663140334
0.001632002685821523
0.001632165586984068
0.001632213086012872
0.002077759674852022
0.002077912822987309
0.002077886657537898
0.002077748837920786
0.002077889961647389
0.002077845555203916
0.002077728764253382
0.002077860299961772
0.002077850689149091
0.002077744652301092
0.002077874425838673
0.002077661544337026
0.002072066050098802
0.002072058174125083
0.002077765263630462
0.002077682082404893
0.002072107611380639
0.002077504444749414
0.002072086647210722
0.002077481295297254
0.002071966482781854
0.002071844254751167
0.00207196148539053
0.002071994282263569
0.002071990107674309
0.002071990646499627
0.002071960971319323
0.002072000530289092
0.002071961429855172
0.002071947616605717
0.002072002899394998
0.002072066288704809
0.002077631379938849
0.002077857221865881
0.002077835824911334
0.002077850579912794
0.002077664997197393
0.002071968871699254
0.002071959741494519
0.002072039095909755
0.002077760937535356
0.002077665130708829
0.002071950560023466
0.002071954722082464
0.002072059094124891
0.002077710206521391
0.002077734055102211
0.002077859636744275
0.002077665369633198
0.002072061423983305
0.002072043335138895
0.002077779204143476
0.002077819498609139
0.002077867362288897
0.002077808888038179
0.00207773809423057
0.002077786330998406
0.002077850479750651
0.002510790632598296
0.002510869477609682
0.002510864738879433
0.002510770244450203
0.002510850319981316
0.002510844381992475
0.002510758425451341
0.002510833957485878
0.002510841886458642
0.002510764554283116
0.002510847193634245
0.00251072818185221
0.002509073211507
0.002509021005703507
0.002510806924351225
0.002510769628025383
0.002509023188145944
0.002510635154791082
0.002508992813418031
0.002510603306944732
0.002508952541951769
0.002508918444709447
0.002508999832916566
0.002509003469901241
0.002509019742603921
0.002509037014504758
0.002508985957111057
0.002509033911920215
0.00250903031404561
0.002508984125641252
0.002509039643561117
0.002509036201451875
0.002510681956378375
0.002510834201370846
0.002510848807766972
0.002510856235626822
0.002510751349629045
0.002508968103120974
0.002509015205035854
0.002509004743977734
0.002510801664620461
0.002510751680750146
0.002508953998236554
0.002509012819573109
0.002509028127890487
0.002510744450517237
0.002510734320998831
0.002510821813798462
0.002510723780703862
0.002509066711038607
0.002509003378641266
0.002510796317900282
0.002510814141043461
0.002510843442989291
0.00251083038923424
0.002510787829076735
0.002510791898363881
0.002510830362598113
0.002938277470088302
0.002938330232360154
0.002938335233060332
0.002938256704398571
0.002938304810465618
0.00293832028637143
0.002938248328332052
0.002938298778204217
0.002938319248736193
0.00293824926405395
0.002938315294235164
0.002938229060168465
0.002937776651747727
0.002937723644186071
0.002938295045027383
0.002938273526024699
0.002937707808725932
0.002938164449308923
0.002937668888442558
0.002938125138629621
0.00293764980748218
0.002937659691599996
0.002937722309148062
0.002937714057839658
0.002937743638119505
0.002937771468630761
0.002937711475049775
0.002937747945536577
0.002937767259286786
0.002937714536522286
0.002937763828273791
0.002937747462167768
0.002938188483053458
0.002938291161204052
0.002938315656709724
0.002938332286557232
0.002938263616676022
0.002937682354320963
0.00293775049842373
0.002937711262795442
0.002938288586591038
0.00293825592478068
0.002937668638855574
0.002937743290692097
0.002937733794881115
0.002938237196012746
0.002938203522634539
0.002938281606898725
0.002938216941062864
0.002937767211925313
0.002937703288276012
0.00293827598762333
0.002938286374658545
0.002938312195002984
0.002938309539073186
0.00293827197857081
0.002938266033144828
0.002938289580763581
0.003367799412898183
0.003367836780631082
0.003367855137781421
0.003367786586789753
0.003367814223544012
0.003367841757910507
0.003367779284507257
0.003367809897357731
0.003367842068598097
0.003367776845863165
0.003367834446545518
0.00336776231893225
0.003367665270153151
0.003367619105482122
0.003367817098024927
0.003367805535430744
0.003367601732326087
0.003367709383122608
0.003367555536746236
0.003367663191942837
0.003367536917444726
0.003367563377553954
0.003367617945163171
0.003367605941349679
0.00336763746610816
0.003367675333418071
0.003367616154752594
0.003367641958856311
0.003367673066948198
0.003367620675340921
0.003367661581529116
0.00336764939649792
0.003367727178351002
0.003367798239252471
0.003367825946159179
0.003367851988933238
0.003367805302222306
0.003367583937942036
0.003367654870236175
0.003367610553536866
0.003367809823535237
0.003367788624614643
0.003367569844024607
0.003367643535651172
0.003367630726775902
0.003367767809540264
0.003367720287158154
0.003367792681664505
0.00336774271192973
0.003367652043809974
0.003367595981440606
0.003367792709244221
0.003367803298070229
0.003367829893582807
0.003367835049247723
0.003367799312633036
0.00336778779590212
0.003367802556265036
0.003810234449547095
0.003810261240323196
0.003810290858803104
0.003810231806121073
0.003810244626815874
0.00381027827668852
0.003810225325341063
0.003810239940387229
0.003810279767082462
0.003810219643271995
0.003810270801318969
0.003810207981172215
0.003810207701244882
0.0038101706612964
0.003810249252524604
0.003810248265954858
0.003810157331294209
0.003810160293855455
0.003810105260446967
0.003810108337244312
0.003810078881705005
0.003810108595617996
0.00381015970488653
0.003810148140767421
0.003810176014662373
0.003810222474836616
0.003810169930990466
0.003810185312279607
0.003810222702631453
0.003810175113817771
0.003810207261149426
0.003810204050302718
0.003810177155188213
0.00381022519137628
0.003810253000572313
0.003810285933990691
0.003810256733505299
0.003810138877418367
0.003810204171491403
0.003810165003317424
0.003810241611584458
0.003810232403613375
0.003810124617521688
0.00381018940904243
0.003810180499287609
0.003810211882134931
0.003810156657272017
0.003810222250444726
0.003810181035470784
0.00381018982678925
0.003810144391975489
0.003810222808891484
0.003810236361011278
0.003810261824533526
0.003810274360606498
0.003810242847167099
0.003810227411232591
0.003810236786452108
0.004281483244036287
0.004281500741950601
0.004281537964373793
0.004281489971515545
0.004281491313133213
0.004281526942983825
0.004281484581035416
0.004281486062124707
0.004281529766346301
0.004281475957970193
0.004281521322658935
0.004281466269462816
0.004281487341727394
0.004281458177504045
0.004281494909421909
0.004281502733148742
0.004281451419423839
0.004281422772435477
0.004281395142009903
0.004281365964080455
0.004281358832137297
0.004281385247384426
0.004281433674444729
0.004281424535578291
0.004281446466936751
0.004281498689065023
0.004281456449511265
0.004281462605349567
0.004281502200487042
0.004281462101662976
0.004281485205545206
0.004281491405487378
0.004281438467798792
0.004281468157922998
0.004281494012065476
0.004281531024315054
0.004281517230532839
0.004281430488798945
0.00428148557568321
0.004281454904485816
0.004281486597343837
0.004281487492289027
0.004281414136476341
0.004281468098075778
0.00428146421669405
0.004281468410030477
0.004281409638573564
0.004281466531967226
0.004281432342885638
0.004281464225406368
0.004281428300530095
0.00428146545437621
0.00428148157404034
0.004281505277492987
0.004281524732826132
0.004281499564760284
0.004281481668608429
0.004281487262980912
0.004802244675374872
0.00480225446301583
0.004802295273044665
0.004802260369232252
0.004802252332285685
0.004802287301735221
0.004802256676487505
0.004802246586184405
0.004802291452362665
0.004802244977089222
0.004802284189232781
0.004802237076468773
0.004802258403125402
0.004802235993252966
0.004802255173334495
0.004802268810662171
0.004802236003696237
0.004802198738671986
0.004802178711142855
0.004802138954696074
0.004802131449852425
0.004802151538272874
0.004802196253751274
0.004802190853002115
0.00480220632746701
0.004802260445970854
0.004802231224654212
0.004802229419637318
0.004802268666182401
0.00480223803109371
0.004802252770910186
0.004802267687134315
0.00480221303452466
0.004802226620301238
0.004802248091385077
0.004802286134301896
0.004802286720948767
0.004802212992911428
0.004802256111091412
0.004802234293650926
0.00480224618549832
0.004802254585446334
0.004802194066498793
0.0048022368104719
0.004802237261067887
0.004802237627599239
0.004802178927598834
0.004802225082345436
0.004802196557091198
0.004802229711826389
0.004802202154981656
0.004802222109465392
0.004802238671209907
0.004802260337331178
0.004802285476310346
0.004802268036143423
0.004802249502882545
0.004802252308645199
0.005395100991906119
0.005395102781279554
0.005395143192297899
0.005395122580109651
0.005395107905477718
0.005395139707195796
0.00539512123599759
0.005395102103954976
0.005395145456964182
0.005395107433777665
0.005395140445381178
0.005395101596320583
0.005395117429947284
0.005395101195390224
0.005395110773505536
0.00539512693743515
0.00539510687865158
0.005395070240504092
0.005395052242224818
0.005395009436627319
0.005394995017196653
0.005395007659678081
0.005395045759116902
0.00539504454134336
0.005395053607601025
0.005395105446386496
0.005395090758184728
0.005395082813059487
0.005395119687567566
0.005395099303591986
0.005395106601669086
0.005395127881873503
0.00539508069138674
0.005395080811578773
0.005395096232915173
0.005395131437560898
0.005395147705106507
0.005395082605512047
0.00539511326627148
0.005395100570658807
0.005395101355317149
0.005395113920382986
0.005395061968305847
0.005395093280649338
0.005395096593426492
0.005395100170294687
0.005395044185110057
0.005395078457906781
0.005395055435972033
0.005395083021309614
0.005395063068327236
0.005395073334257375
0.005395088085414106
0.005395107329419165
0.005395136478313998
0.005395127807699548
0.005395111105293812
0.00539511178146248
0.006078765702526201
0.006078759986861822
0.0060787967604603
0.006078789946491784
0.006078772525454664
0.006078798603099046
0.006078791581367786
0.006078767295605033
0.006078805845484312
0.006078776871649247
0.006078803358798907
0.006078773413237626
0.006078783159774584
0.006078772793626432
0.006078776089973676
0.006078791661632258
0.006078781909204397
0.00607875104068008
0.006078733812231119
0.006078692059773342
0.006078669187102505
0.006078673747930039
0.006078702481295153
0.006078705234912456
0.006078708528722581
0.006078753718974631
0.006078753491437137
0.00607874248131151
0.006078774603639366
0.006078765064407419
0.006078767016539303
0.00607879122955714
0.006078756202009077
0.006078744919811957
0.006078753974601848
0.006078782177991436
0.006078811845745664
0.006078757577689948
0.006078776586339034
0.006078771936694488
0.006078765245537522
0.00607878041646449
0.006078736624004947
0.006078757369260307
0.006078762053072539
0.006078770267936105
0.006078719521040909
0.006078741771037362
0.006078723203294544
0.006078743583983299
0.006078730556612539
0.006078733945237505
0.006078745329146287
0.006078761613681142
0.006078791981283937
0.006078792235884695
0.006078780053600263
0.006078779747290912
0.006860990808137831
0.006860977926359722
0.006861007758891265
0.006861012786357191
0.006860996972962156
0.006861015347663479
0.006861017975973937
0.006860993033319082
0.006861024314206404
0.006861004185971411
0.006861024560932751
0.006861003387301278
0.00686100792814313
0.006861002537759152
0.006861001816898142
0.006861014634392832
0.006861013191709964
0.006860990739245976
0.006860974983408718
0.006860937279009455
0.006860908046934445
0.006860903711713468
0.006860921805746416
0.00686092670704553
0.006860924555877711
0.006860959512350925
0.006860972405407678
0.006860960690938575
0.006860986278594539
0.006860986767468039
0.006860985242463141
0.006861009550514338
0.006860987809293013
0.006860969549337812
0.006860973117975943
0.006860991837925642
0.006861030338987024
0.00686098926645958
0.006860998525037914
0.006861000351994234
0.006860989613205105
0.006861004654679458
0.006860969862139376
0.006860981827281449
0.006860986242524233
0.006860997882152645
0.006860954869702392
0.006860966395007134
0.00686095167313424
0.006860964452053358
0.006860956928684917
0.006860955066799974
0.006860962451067884
0.006860975042449551
0.006861003049681041
0.006861012504744791
0.006861005643474365
0.006861005539750656
0.007733225034970909
0.007733207981201713
0.00773322884884557
0.007733242834609795
0.00773323054015072
0.007733241534687236
0.007733251574886174
0.00773322852729726
0.007733251829992031
0.00773323930955459
0.007733254169191579
0.007733241178756602
0.007733242460784009
0.007733240861308782
0.007733237957174727
0.00773324701805525
0.007733252275356341
0.007733237303076056
0.007733224545219987
0.007733193594190303
0.007733161430514888
0.007733148675768171
0.007733156700172799
0.007733160988203296
0.007733154620753096
0.007733178005557381
0.007733199041858969
0.007733188984137343
0.007733206963558805
0.007733216243926886
0.007733213304307345
0.007733235264054892
0.007733225262098142
0.007733205421924815
0.007733204500524982
0.007733214211733179
0.007733253310540706
0.007733227134502025
0.00773323031045699
0.007733235444631316
0.007733224078003115
0.007733237838497736
0.007733211888826334
0.007733217759698928
0.007733220869734853
0.007733233461360066
0.007733199933116402
0.007733203347937592
0.007733191373732187
0.007733197547021305
0.007733193677817184
0.007733187823350388
0.007733191792859784
0.007733200376376407
0.007733222843464337
0.007733239029193064
0.007733238100899588
0.007733239518366048
0.008670165668661047
0.00867014756508612
0.008670159897619018
0.008670177920405491
0.008670170317001555
0.008670176228124653
0.008670189462859999
0.008670170716691787
0.008670186753274561
0.008670179998683292
0.008670190459899984
0.00867018416465668
0.008670184104771272
0.008670184768501676
0.008670181549823693
0.00867018715383199
0.008670196217323501
0.008670187345433608
0.008670178506400138
0.008670155650914661
0.008670124710000938
0.008670106139967342
0.008670105779883031
0.008670106849010139
0.008670097479169928
0.008670110289934783
0.008670132649848906
0.008670125528274024
0.008670136751757446
0.008670151151810671
0.008670148574653477
0.008670166445775632
0.008670165293616312
0.008670148982330275
0.008670144869187936
0.008670148261924632
0.008670181541489439
0.008670168627813975
0.008670168835658741
0.008670175778881999
0.008670165794156472
0.008670177432847401
0.008670159238470494
0.008670162174744672
0.008670163677293856
0.008670174842766774
0.008670150567259142
0.008670149244808764
0.008670139489268373
0.008670140778189495
0.008670138358737254
0.008670130075845463
0.008670131225052388
0.008670136146048345
0.008670151567671557
0.008670169948718559
0.008670174907338396
0.008670178999753192
0.009634969995410504
0.009634954121453671
0.00963496087586802
0.009634977550884818
0.009634974650615866
0.009634978421614626
0.009634990990849543
0.00963497740992759
0.009634987650811078
0.00963498480324161
0.009634991776911347
0.009634990558276935
0.009634990410590145
0.009634992408732251
0.009634990150864949
0.009634993692064097
0.009635003381236105
0.00963499899794712
0.00963499403164177
0.009634978948983972
0.0096349523424521
0.009634932363605945
0.009634924463922546
0.009634923392571436
0.009634911154894021
0.009634916788764483
0.009634933880303962
0.009634929786541567
0.009634936253003122
0.009634951794483749
0.009634950533768623
0.009634963099879996
0.00963496863135545
0.009634956811983182
0.009634951614806798
0.009634951754405504
0.009634976517005711
0.009634972820868113
0.009634972607148316
0.009634979668560336
0.00963497230198008
0.009634982377551103
0.009634970327559313
0.009634971444541306
0.009634972520757753
0.009634981178642319
0.009634964768894819
0.009634961059762212
0.009634953659219431
0.009634951441157922
0.009634949602817853
0.009634940264839685
0.009634939370744503
0.009634941380318399
0.009634950305875538
0.00963496660431277
0.009634975423498159
0.009634982692084357
0.01058776226474137
0.01058775002434104
0.01058775388697527
0.01058776672671573
0.01058776734695467
0.01058777042901271
0.01058778132760562
0.01058777215170792
0.01058777785910462
0.0105877779496433
0.01058778222763736
0.01058778483253507
0.01058778451569203
0.01058778723368564
0.01058778649131206
0.01058778921862535
0.01058779775364695
0.01058779673197397
0.01058779456329462
0.01058778554207048
0.01058776524031161
0.01058774694388065
0.0105877347521016
0.01058773161382678
0.01058771751793954
0.01058771834585586
0.0105877282535989
0.0105877258878629
0.01058772970154816
0.01058774267618102
0.01058774278037786
0.01058775078983534
0.01058776022469242
0.01058775213896481
0.01058774767057843
0.01058774664204025
0.01058776366374698
0.01058776492439507
0.01058776519593138
0.01058777153123995
0.01058776716713562
0.01058777603889629
0.01058776838431471
0.01058776866621283
0.0105877700216485
0.01058777629346493
0.01058776554500877
0.01058776116031181
0.01058775611150378
0.01058775197299615
0.01058775027595722
0.01058774057349951
0.01058773872507521
0.01058773834301776
0.01058774313757261
0.01058775450143217
0.01058776475062493
0.01058777444287398
0.01149359644703612
0.01149358804684147
0.01149359047331065
0.0114935990984394
0.0114936020027826
0.01149360541769005
0.01149361469957824
0.01149360855063697
0.0114936113392298
0.01149361237894302
0.01149361541873379
0.01149361977081419
0.01149361992725004
0.01149362271053166
0.01149362361370022
0.01149362643920532
0.01149363253915361
0.01149363432158283
0.01149363375531175
0.01149362924590372
0.0114936148811988
0.01149360012484562
0.01149358687611161
0.01149358222690153
0.01149356749294372
0.01149356522190058
0.01149356967875138
0.0114935674045752
0.01149356934188957
0.01149357878034657
0.01149357950258233
0.0114935841037304
0.01149359472407828
0.01149358927185058
0.01149358603940832
0.01149358499134139
0.01149359599896102
0.01149360018453497
0.01149360020409648
0.01149360517190041
0.01149360360488699
0.01149361215432947
0.0114936072626204
0.01149360725123562
0.01149360911491835
0.01149361366780559
0.01149360637184147
0.0114936026314434
0.01149359953811098
0.01149359491399852
0.0114935932347526
0.01149358431646638
0.01149358121925163
0.01149357977705796
0.01149358171546173
0.01149358840023896
0.01149359780296253
0.01149360878824861
0.01232712819034612
0.01232712271428972
0.01232712448381018
0.01232713021476357
0.01232713415464709
0.01232713751615542
0.0123271455504217
0.01232714153586582
0.01232714282898236
0.01232714408536861
0.01232714611390739
0.01232715059824972
0.01232715178834053
0.01232715422027046
0.01232715638504272
0.01232715960535587
0.01232716386045257
0.01232716616753272
0.01232716780647299
0.01232716590235218
0.01232715608742457
0.01232714547782264
0.01232713340363512
0.01232712823997327
0.01232711462756765
0.01232710978628688
0.01232711098378624
0.01232710797887452
0.01232710849522229
0.01232711422388057
0.01232711494259994
0.01232711777239237
0.01232712713485001
0.01232712350296799
0.01232712158335079
0.01232712064944609
0.01232712815461774
0.01232713264124059
0.0123271328368939
0.0123271354205419
0.01232713627069471
0.01232714592148737
0.01232714199723663
0.01232714184550875
0.01232714404963581
0.01232714771814569
0.01232714261362039
0.01232713956564047
0.01232713790997576
0.01232713376623173
0.01232713236540145
0.01232712471905972
0.01232712038586107
0.01232711866504485
0.01232711918059718
0.01232712247284819
0.01232712986103739
0.01232714079510054
0.01307346471850538
0.01307346119398823
0.01307346267436035
0.01307346650672696
0.01307347078469179
0.01307347396420153
0.01307348087762097
0.01307347823256071
0.01307347941873823
0.01307347960230121
0.01307348147949448
0.01307348537397483
0.01307348705885203
0.01307348914872145
0.01307349130066078
0.01307349555315796
0.01307349870494597
0.01307350110209041
0.01307350366752993
0.01307350349906073
0.01307349684869353
0.01307349019024358
0.0130734802631777
0.01307347562022654
0.01307346411190882
0.01307345760056351
0.01307345731583177
0.0130734529813124
0.01307345286139391
0.01307345547040585
0.01307345578080747
0.01307345699994295
0.01307346523482757
0.01307346240203698
0.013073461355891
0.01307346063050291
0.01307346664417174
0.01307346873201941
0.01307347031293255
0.01307347065029455
0.01307347304617649
0.01307348306524753
0.01307347983097792
0.01307348033936144
0.01307348187497681
0.01307348537229505
0.0130734817167755
0.01307347956433259
0.01307347859086789
0.01307347516682567
0.01307347455269628
0.0130734680753036
0.01307346344458497
0.01307346127785134
0.01307346062381988
0.01307346341072068
0.01307346772186789
0.01307347778113147
0.01372635210832521
0.01372634961706284
0.01372635085331903
0.01372635346224433
0.01372635783966778
0.01372636081277058
0.01372636665702079
0.01372636483956977
0.01372636576240894
0.01372636558407293
0.01372636766214945
0.01372637030087568
0.01372637221072374
0.01372637391804349
0.01372637578646048
0.01372638052939858
0.013726382939913
0.01372638550161872
0.01372638734376967
0.01372638986837378
0.01372638477140213
0.01372638141238556
0.01372637364378726
0.01372637028974618
0.01372636101819155
0.01372635338595676
0.01372635316635253
0.01372634793393566
0.01372634618983145
0.01372634812169937
0.01372634773264246
0.01372634760033972
0.01372635412385967
0.01372635231423408
0.0137263510908358
0.01372635071132358
0.01372635544996834
0.0137263562765539
0.01372635802188708
0.01372635701182616
0.01372636027470795
0.01372636968653486
0.01372636755471649
0.01372636688882328
0.01372636977100183
0.01372637274727617
0.01372637026977738
0.01372636858692888
0.01372636788925489
0.01372636513006429
0.01372636568299311
0.01372635990646227
0.0137263554972659
0.01372635335459967
0.01372635226329089
0.01372635461934333
0.01372635699266412
0.01372636545223952
0.01428533190608688
0.01428533001517141
0.01428533092765343
0.01428533276008898
0.01428533720590722
0.01428533984577005
0.01428534475204356
0.01428534333118216
0.01428534410344703
0.01428534370483539
0.014285345621503
0.01428534752239881
0.01428534939385042
0.01428535072560989
0.01428535239880246
0.01428535693287147
0.01428535897992271
0.014285361361313
0.01428536292239658
0.01428536688686862
0.01428536291905651
0.01428536216883379
0.01428535596140558
0.01428535454093303
0.01428534693430421
0.01428533963678097
0.01428533939962839
0.01428533401850675
0.01428533137494831
0.0142853316606688
0.01428533183914383
0.01428533142841731
0.01428533535461318
0.01428533402573672
0.01428533287884565
0.0142853329345332
0.01428533637695778
0.01428533636469453
0.0142853380567743
0.0142853363000541
0.0142853394780625
0.01428534815199117
0.0142853465269773
0.01428534555890599
0.01428534858551314
0.01428535157519978
0.01428534969628586
0.01428534809383972
0.01428534840552077
0.01428534618538679
0.01428534714696585
0.01428534211160899
0.01428533834092465
0.01428533660610949
0.01428533603272882
0.01428533704298391
0.01428533853996873
0.0142853456286086
0.01475309914995457
0.01475309752782348
0.01475309816793908
0.01475309951929905
0.01475310410894997
0.01475310628186158
0.01475311035233715
0.01475310845130552
0.01475310983963005
0.01475310916895347
0.01475311080343296
0.01475311244824729
0.01475311410503185
0.0147531152423283
0.01475311697684208
0.01475312032220537
0.01475312222084162
0.01475312425649367
0.01475312578794238
0.01475313030515189
0.01475312809133406
0.01475312761983603
0.01475312311296013
0.01475312303988662
0.0147531170157736
0.01475311112985996
0.01475311100841531
0.01475310580547749
0.01475310280670862
0.01475310218471494
0.01475310241644071
0.01475310150099662
0.01475310420095927
0.01475310291630036
0.01475310198410411
0.01475310171924132
0.01475310476455408
0.01475310370519411
0.01475310544503481
0.01475310318713069
0.0147531060727225
0.01475311366784595
0.01475311242853627
0.01475311136207159
0.01475311419188338
0.01475311699558492
0.01475311559241235
0.01475311430199716
0.0147531151758606
0.01475311339983951
0.01475311465731127
0.01475311013909131
0.01475310727595385
0.01475310546672132
0.01475310568222405
0.01475310602843549
0.01475310775312768
0.01475311301785344
0.01513361189460588
0.0151336097353469
0.01513361114396929
0.01513361206720122
0.01513361670623856
0.01513361857618448
0.01513362150523436
0.01513362015152652
0.01513362015763387
0.01513362098791055
0.01513362139338429
0.0151336230712048
0.01513362472524683
0.01513362551377405
0.01513362633345263
0.01513362949078042