/*--------------------------------*- C++ -*----------------------------------*\
| =========                 |                                                 |
| \\      /  F ield         | OpenFOAM: The Open Source CFD Toolbox           |
|  \\    /   O peration     | Version:  v1812                                 |
|   \\  /    A nd           | Web:      www.OpenFOAM.com                      |
|    \\/     M anipulation  |                                                 |
\*---------------------------------------------------------------------------*/
FoamFile
{
    version     2.0;
    format      ascii;
    class       volScalarField;
    location    "10000";
    object      nuTilda;
}
// * * * * * * * * * * * * * * * * * * * * * * * * * * * * * * * * * * * * * //

dimensions      [0 2 -1 0 0 0 0];


internalField   nonuniform List<scalar> 
3770
(
0.0004962909752199722
0.0004961122421227257
0.0004962211370095103
0.0004962876187824559
0.0004961121654134207
0.0004962211481911877
0.0004962878060805331
0.0004961221229270381
0.0004962162073050998
0.0004962238292775727
0.0004961460734034274
0.0004961223977999206
0.0005056822090000898
0.0005057685406698854
0.0004961746552758647
0.0004961289912020701
0.0005057042186882683
0.0004961737279999847
0.0005057043964360327
0.0004961656897802093
0.0005055511567984405
0.0005057458114763566
0.0005056236195248764
0.0005055509148565024
0.0005057462542775492
0.000505623360443894
0.0005055504104104568
0.0005056840833006254
0.0005056503675766208
0.0005056151081899811
0.0005057043344793893
0.0005057680793078271
0.0004962802822581633
0.0004962450274796757
0.0004962060476171874
0.0004961466545402878
0.0004961203723008492
0.000505591996780991
0.0005057040547831493
0.0005057684873935738
0.0004961745244829802
0.0004961218165886232
0.0005055907241523022
0.0005057036280384468
0.000505767435777899
0.0004961545343965866
0.0004961744675858022
0.0004961464067992777
0.0004961215109428834
0.0005056822374820949
0.0005057671616312532
0.0004962616270925661
0.0004962735967380342
0.0004961123660588033
0.0004962211211577998
0.0004962876247332346
0.0004961115380455176
0.0004962213107459434
0.0006227922173886361
0.000622187211039032
0.0006223578747249001
0.0006227716841229325
0.0006221859883878934
0.0006223569004244941
0.0006227711261063416
0.0006221888130508675
0.0006223533490689996
0.0006227603566778143
0.0006221643335374337
0.0006236614542612729
0.0007583216019472778
0.0007551642166303575
0.00062219198283706
0.0006236835741720449
0.0007540922045526884
0.0006241148395074534
0.0007540896297196519
0.0006240544933008263
0.0007568852865420834
0.000758373207493943
0.0007578663213961587
0.0007569661760814876
0.0007583926366093372
0.0007578615078941183
0.0007569578134968496
0.0007583696256440662
0.0007578616396610069
0.0007569823076578612
0.0007584360821379449
0.0007552379991853351
0.0006227858031137594
0.0006228950669732068
0.0006228341998045871
0.0006221667181374354
0.0006236183982316275
0.0007569056917528231
0.0007584293133796967
0.0007551575318108882
0.0006221904190554556
0.0006236209569102193
0.0007569030277801963
0.0007584288415564009
0.0007551705213849327
0.0006220991461221217
0.0006222617217977542
0.0006221665507006449
0.0006236626254757262
0.000758321388751832
0.0007551974747748796
0.0006229233053492425
0.0006228514775653181
0.0006221883609876761
0.0006223542821103971
0.0006227711345478825
0.0006221727022559393
0.000622362093554768
0.001110641743232408
0.001110111581543786
0.001110264790724858
0.001110546645489079
0.001110115671795642
0.001110257604735928
0.00111054199289351
0.001110114444808394
0.001110259110898273
0.001110541940382811
0.001110125033421833
0.001111136702276374
0.001174430453606305
0.00117332207561845
0.001110158624726056
0.001111141518896492
0.001172923835595563
0.00111145412968974
0.00117291838449557
0.00111141636738088
0.001173917558506146
0.001174465527365356
0.001174302772717507
0.001173951466146017
0.001174518634317764
0.001174286176454642
0.001173930619266634
0.001174512558527863
0.001174277238657452
0.00117393484578253
0.001174488010753413
0.001173339001616637
0.001110542294814822
0.001110379474555603
0.001110448289545915
0.001110117032980415
0.001111113347594358
0.001173922820521751
0.001174492216685222
0.001173311518072742
0.001110153587757635
0.001111101760272842
0.001173919755585492
0.001174491274784272
0.001173326221236612
0.00111030527469378
0.001110347659671597
0.001110110662222171
0.001111145891365921
0.001174428175554603
0.00117332391010005
0.001110408739713879
0.001110425139115756
0.001110106844052215
0.001110253060663954
0.00111054581931632
0.001110075643136367
0.001110279785664274
0.001613274718301862
0.001613102484137972
0.001613070767090491
0.00161312503507216
0.00161309593216481
0.001613052074294639
0.001613114955918361
0.001613084576575815
0.001613062554030195
0.001613127371906737
0.001613087220793368
0.001613383241783649
0.001632117329281727
0.001631792868326479
0.00161317476329523
0.001613395333141856
0.001631555685922785
0.001613532208714598
0.001631539732866794
0.001613520507593731
0.001631950429606402
0.001632194928728251
0.001632213827446003
0.001632069593366733
0.001632296694434407
0.001632181305627472
0.001632001974146991
0.001632299269987545
0.001632182473559734
0.001632004407409509
0.001632229935476236
0.001631802061385447
0.001613158050550516
0.001613127435744207
0.001613185959099404
0.001613098416457595
0.001613370831611708
0.001631962391982428
0.00163225025443528
0.001631777599171175
0.001613164884588246
0.001613379011326705
0.001631940303717278
0.001632244731313102
0.001631793762355496
0.001613099309042709
0.001613012030307529
0.001613065366518563
0.001613380866827197
0.001632112611829691
0.00163178402375875
0.00161318515978249
0.001613059903459938
0.001613048403706742
0.001613038449251115
0.001613124666064587
0.001612956883049702
0.001613089005793302
0.002072058274325382
0.002072016314194313
0.002071998428090086
0.002071963975561943
0.002072003484381712
0.00207196563136087
0.00207194429624266
0.002071981341424069
0.002071988502431397
0.00207196991954461
0.002072002892216427
0.002072050742299805
0.002077805266744489
0.00207767561595226
0.002072058034876946
0.002072073521878967
0.002077522344256759
0.002072099306920781
0.002077498295107256
0.002072084348497621
0.002077668174444279
0.002077791388057535
0.002077847041223315
0.002077777820372108
0.002077860722725311
0.002077827618260941
0.002077730765794175
0.002077861810305127
0.002077852340005383
0.002077746895673837
0.00207787539977873
0.002077685750431494
0.002071945575391156
0.002071989003093771
0.002072033438331423
0.002072018953355892
0.002072049275745395
0.002077683630665628
0.002077857785734077
0.002077644109204194
0.00207204782448742
0.002072059252633224
0.002077636732170564
0.00207783973404978
0.002077665159839079
0.002071956476685169
0.00207187825571209
0.00207198514115331
0.002072040623400565
0.002077798404602025
0.002077661162028276
0.002072026231537215
0.002071923011208441
0.002071962654070829
0.00207194098667549
0.002071956541858204
0.002071892703790486
0.002071971370779092
0.00250905002929694
0.002509055980487614
0.002509053463750172
0.002508993136861792
0.002509039268884444
0.002509035111009412
0.002508981127970036
0.002509014541823991
0.002509036366930148
0.002508993611606058
0.002509043476094755
0.00250901146760657
0.002510823297488455
0.002510746938939478
0.002509070572845207
0.00250904818076744
0.002510659041097415
0.002509006668873343
0.002510626718986061
0.002508982378067436
0.002510692644410225
0.002510765047912479
0.002510821742595377
0.002510788590177524
0.002510845358675247
0.00251083989968148
0.002510760139307452
0.002510835141109975
0.002510842576931117
0.002510768496075516
0.002510845161284579
0.002510758818141
0.002508952572110813
0.00250901099641866
0.00250904186348138
0.002509064001924971
0.002509026890741646
0.002510709550016561
0.002510832646684139
0.002510722854431045
0.002509061749058355
0.002509032639804159
0.002510685413661873
0.002510834509850961
0.002510749515225259
0.002508992373354964
0.002508932642976555
0.002509025354791616
0.00250899750096847
0.00251081463322306
0.002510728954913728
0.002509037006402145
0.002508985890577581
0.002509026480240576
0.002509017166314515
0.00250899810270516
0.002508976017591752
0.002509017612301077
0.002937756575188345
0.002937776645313855
0.002937788085375525
0.002937722861949469
0.00293775615361524
0.002937774070955485
0.002937714036249864
0.002937744870626622
0.002937774045643642
0.00293771875583995
0.002937772824688394
0.002937717409650729
0.002938306043972016
0.002938243343094039
0.002937774434874882
0.002937757809817486
0.002938195065688333
0.002937684755326372
0.002938154686621024
0.002937651250785384
0.002938171502614407
0.002938223801967415
0.002938274791593952
0.002938253263985007
0.0029383004784791
0.002938318859181193
0.002938248341962641
0.002938299020310751
0.00293831794647056
0.002938254022693922
0.002938309110372572
0.002938263671288307
0.002937669309830369
0.002937735536809817
0.002937764921378544
0.002937796842377788
0.002937746262664607
0.002938208274146029
0.002938301352545246
0.002938226788890563
0.002937766001171445
0.002937742476324383
0.002938190741174063
0.002938294665694189
0.002938249110346292
0.002937710515127884
0.002937660208009911
0.002937746936177558
0.002937698930500829
0.002938294538981692
0.002938222280805927
0.002937744522688842
0.002937730154854574
0.00293776465547042
0.002937764264580028
0.002937728558195025
0.002937717598409087
0.002937743968738663
0.003367648468328915
0.003367672417971171
0.003367695117009104
0.003367631599672076
0.003367653399444997
0.0033676823186778
0.003367624047918366
0.003367646484411955
0.003367682607091012
0.003367623235458048
0.003367675708107038
0.003367615520621011
0.003367826516117813
0.003367772706524874
0.003367663183275086
0.003367657533647911
0.00336774517928527
0.003367572836237813
0.00336769781360183
0.003367531042079085
0.003367691229542372
0.003367733541340982
0.003367783189574456
0.003367766269708754
0.003367804504863157
0.003367838962803114
0.003367776402510715
0.003367808487449871
0.003367838165214689
0.003367781723629533
0.003367824223875189
0.003367800922454515
0.003367575348183818
0.003367634339396573
0.003367663267434509
0.003367699431068241
0.003367654651072415
0.003367742491035186
0.003367819295814357
0.003367761714879216
0.003367654540366885
0.003367642237604248
0.003367726707896281
0.00336780796074809
0.003367780852026228
0.003367612090165922
0.003367561891054725
0.003367641221988758
0.003367591159015909
0.003367812128333543
0.003367748945584322
0.003367635217972631
0.00336763950791713
0.003367668508979225
0.003367675847953531
0.0033676397102736
0.003367627610186044
0.003367644340288718
0.003810194117300107
0.003810214826183837
0.003810246753702756
0.003810189652320883
0.003810200428385255
0.003810234675323278
0.003810182991432461
0.003810194515394446
0.00381023595788948
0.003810178500054032
0.003810227148452379
0.003810171106647913
0.003810259877162086
0.003810215067792013
0.003810204382988258
0.003810209739098148
0.003810200982263317
0.0038101244070879
0.003810148065302673
0.003810075980564388
0.003810126655282226
0.003810161035031629
0.003810209832610284
0.003810196411890055
0.003810226621136216
0.003810271962752161
0.003810218477220738
0.003810236430232055
0.003810272895926252
0.003810223850052762
0.003810255641836117
0.003810246330500331
0.00381013257392878
0.003810178421688788
0.003810207790945051
0.003810247809013249
0.003810216334755816
0.003810190452188997
0.003810254146026976
0.003810207112158966
0.003810195549882492
0.003810195746031517
0.003810174512405495
0.00381023916496093
0.003810221994081771
0.003810164738285359
0.003810112841267383
0.003810184615992601
0.003810141199141622
0.003810240114692424
0.003810188278063566
0.003810175339085991
0.003810189386865016
0.003810216417415752
0.00381023057013061
0.003810198654979024
0.003810183403447295
0.003810193930461627
0.004281474815693746
0.004281489576315807
0.004281528092069446
0.004281480866596101
0.004281481624326871
0.004281517373569269
0.004281475338843903
0.004281475626332852
0.004281519688203936
0.004281467001481215
0.004281510581622828
0.00428146098988787
0.004281507224665503
0.004281471170806653
0.004281482246906541
0.004281496248751572
0.004281466640052564
0.004281414943619705
0.004281409976270889
0.004281361288153747
0.00428137538168569
0.004281402680693187
0.004281450212924518
0.004281440503394036
0.004281463304724461
0.004281515129953534
0.004281472830712375
0.00428147980744281
0.004281519257727883
0.004281478920304367
0.004281501888545233
0.004281503682895842
0.004281426682588776
0.004281456829495534
0.004281483434841671
0.004281525581652538
0.004281508227522888
0.004281450467279633
0.004281502542147178
0.004281465526309195
0.004281472898857927
0.004281482901725827
0.004281432988968275
0.004281485182966174
0.004281475202424417
0.004281453903119636
0.004281399865292618
0.004281461831959509
0.004281424268656827
0.004281483350417821
0.004281441079925027
0.004281451683578042
0.004281469988204239
0.004281494970885434
0.004281515108210706
0.004281489573900046
0.004281471764292753
0.004281478193381608
0.004802247001726092
0.004802254178298312
0.00480229548493348
0.00480226087797741
0.00480225270417945
0.004802287697492
0.004802257070387781
0.004802246365499807
0.004802291375695447
0.004802245954742965
0.004802284031228437
0.004802242372578843
0.004802270162968685
0.004802239942575674
0.004802251439449541
0.004802271684909694
0.004802243999152339
0.00480219965476976
0.004802186292732283
0.004802143013481778
0.004802140421089847
0.004802160035533852
0.004802203792662321
0.004802198024936973
0.00480221384762269
0.004802267796627496
0.004802238793099052
0.004802237221092609
0.004802276524469822
0.004802245906937056
0.004802259770069741
0.004802269548007961
0.004802208513904085
0.004802224900680772
0.004802248235916675
0.004802290922817842
0.004802288856256342
0.00480222548040837
0.004802264221954866
0.00480223522081851
0.004802241540899635
0.004802260246281764
0.004802205783618362
0.004802244900257702
0.004802239102886196
0.004802231586028837
0.00480217850176001
0.004802230318631084
0.004802199253736399
0.004802240957044585
0.004802206045355605
0.004802216827954067
0.004802236611930706
0.00480226005721373
0.004802285737807424
0.004802268146692243
0.00480224957506111
0.004802252939767609
0.005395106763197725
0.005395106033519684
0.005395146478691232
0.005395126058811674
0.005395111383765201
0.005395143185315475
0.005395124727926538
0.005395104956205322
0.005395148186236837
0.005395110844473382
0.005395142677409363
0.005395109581571604
0.005395127395534015
0.00539510293948556
0.005395109550810628
0.005395133201393061
0.00539511305006102
0.005395073409050946
0.005395057531847187
0.005395016171929549
0.005395001488415927
0.00539501340393564
0.005395050883812195
0.005395049488147392
0.005395058876777111
0.005395110596259699
0.005395096242159813
0.005395088339340308
0.005395125516701054
0.005395105557874981
0.005395112265068694
0.00539512803884315
0.005395079509705545
0.005395082791642215
0.005395099524472057
0.005395138992477905
0.005395152255518469
0.005395093263473893
0.005395119406788612
0.005395098640235048
0.005395098980269785
0.005395122941699228
0.00539507211689315
0.005395099485680624
0.005395096399122741
0.005395097355746283
0.005395046819861704
0.005395086946012482
0.005395060896225313
0.005395092754173374
0.00539506512366369
0.005395071103140558
0.005395089781103132
0.00539511075569843
0.005395140115885659
0.005395131135749825
0.005395114116323993
0.005395115424363168
0.006078774625454977
0.00607876497414989
0.006078801185120389
0.006078794533983795
0.006078777187440924
0.006078803277861541
0.006078796373107908
0.006078771431425588
0.006078809940433848
0.0060787819394114
0.006078807750275154
0.006078783932150057
0.006078793819629725
0.006078773949166222
0.006078775434086067
0.006078798927491103
0.006078788622628562
0.006078755778660513
0.006078739569028168
0.006078700715555976
0.006078676788052571
0.006078679931115685
0.006078707811540566
0.006078710054632107
0.006078713657293966
0.006078758704593116
0.006078758745385433
0.006078747862587649
0.006078780178400154
0.006078771021912993
0.006078771780850048
0.006078789085621098
0.006078753750639844
0.006078747072056388
0.006078759117514775
0.006078791669536713
0.006078819278603239
0.006078769567022072
0.006078783216697616
0.006078768530874512
0.00607876329591988
0.006078791165396373
0.006078748015914161
0.006078763295227392
0.006078760666437034
0.006078767418419038
0.006078722846308995
0.006078751923629408
0.006078731227928028
0.006078753751974964
0.006078732160539422
0.006078731372058164
0.006078747125972844
0.006078765771301355
0.006078796729457919
0.006078796713581824
0.006078784060708784
0.006078783921829093
0.006861001317279149
0.006860984150267279
0.006861012849886067
0.006861017997100555
0.006861002247022746
0.006861020702046128
0.006861023608857055
0.006860997964521517
0.006861028978780798
0.006861009630451445
0.006861029406955969
0.00686101460385099
0.006861019300850618
0.006861004018316469
0.006861001519807325
0.006861022441466915
0.006861020343830469
0.00686099603644711
0.006860980921284102
0.006860946709732485
0.006860915997697218
0.006860910048246785
0.00686092736822815
0.006860931739094418
0.006860930017328756
0.006860964881313312
0.006860978099757653
0.006860966574505183
0.006860992288620712
0.00686099358638823
0.006860991108731198
0.006861007921978067
0.006860986135658022
0.006860972549783237
0.006860979238126347
0.00686100216652374
0.006861038318466376
0.006861001923082345
0.006861006132475698
0.006860996065564035
0.006860987603392876
0.006861016194624011
0.006860982244800882
0.006860988434493913
0.006860984891286399
0.006860995477207176
0.006860958925247186
0.006860977536145106
0.006860960721460417
0.006860975338163128
0.0068609592728092
0.006860953020332405
0.006860964846086232
0.006860980356787772
0.006861008821152655
0.006861017798265158
0.006861010116816187
0.006861010124384168
0.007733237663782214
0.007733215671952931
0.007733234656006103
0.007733248563679471
0.007733236334810908
0.007733247452920069
0.007733258051675193
0.00773323439149577
0.007733257496875382
0.007733245945187949
0.007733260828915896
0.007733253708749953
0.007733254699782361
0.007733243239423071
0.007733238331751899
0.007733254862611896
0.007733260383722745
0.007733243894081319
0.007733231727638461
0.007733204106768415
0.00773317100315523
0.007733156276588915
0.007733163331462284
0.007733166664713616
0.007733160703095625
0.007733184001089253
0.007733205259973684
0.007733195557079573
0.007733213398043907
0.007733223381399354
0.007733219310805144
0.007733232823624729
0.007733222718850147
0.007733208072012381
0.007733211803006338
0.007733226233895221
0.00773326278789918
0.00773324095856322
0.007733239091099507
0.007733231981182552
0.007733222486000786
0.007733249595158754
0.007733225232026063
0.00773322483592846
0.007733219864289634
0.007733231204690985
0.007733204289940369
0.007733215045119057
0.007733201969556022
0.007733208902336633
0.007733197024205271
0.007733185771070399
0.007733193811952178
0.007733205828188323
0.007733229086107842
0.007733244881623655
0.007733242909156222
0.007733244110589896
0.008670179364242848
0.008670156679437333
0.008670166600364366
0.008670184155861098
0.008670176565440765
0.008670182556063617
0.008670196764843192
0.008670177440469383
0.008670193134715379
0.008670187202048799
0.008670197936460008
0.008670196478705256
0.008670196674987737
0.008670188142643972
0.008670183116978271
0.008670195107671424
0.008670204861703033
0.008670194636281233
0.008670186313752187
0.008670166390341216
0.008670134857133659
0.008670114239383754
0.008670113067510605
0.008670113103059282
0.008670104186406914
0.008670116975277446
0.008670139518192658
0.008670132874470975
0.008670143899647095
0.008670159086736122
0.008670155745567457
0.008670165222516204
0.008670163460185681
0.008670152450897084
0.008670152801294882
0.008670160876548452
0.008670191580271729
0.008670182509982201
0.008670178614399235
0.00867017406147089
0.008670165054057516
0.008670188982287342
0.008670172953002231
0.008670169657352464
0.008670163774247248
0.008670173692281714
0.008670155446597798
0.008670161837479217
0.008670150844602794
0.008670152253373226
0.008670143065593936
0.008670129640685907
0.008670134261329013
0.008670142199502117
0.008670158697960621
0.008670176574322662
0.008670179894515663
0.008670183887455416
0.009634984810848738
0.009634964696810631
0.009634968553622652
0.00963498440399441
0.009634981446251301
0.009634985235155529
0.00963499910862543
0.00963498515302008
0.009634995157624813
0.009634993153517572
0.009635000896244972
0.009635003128361307
0.009635003086829417
0.009634997204051355
0.009634993227033251
0.009635001946571528
0.009635012517775161
0.009635007358081028
0.009635003001148782
0.009634990146308284
0.009634963517810824
0.009634941531724386
0.009634932827819574
0.009634930321127931
0.009634918689304935
0.009634924254032732
0.009634941351264146
0.009634937834081625
0.009634944190697051
0.009634959893486587
0.009634958198396344
0.009634962816205515
0.009634967382545642
0.009634960598409013
0.009634960335961664
0.009634964645297627
0.009634987590205328
0.009634986706775308
0.00963498360122776
0.009634980195277476
0.009634973205777024
0.009634993580357893
0.0096349838124032
0.00963497948899183
0.009634974088046004
0.009634981640902734
0.009634970371312487
0.009634973340805137
0.00963496512892229
0.009634963015793935
0.00963495529685069
0.009634941362863166
0.009634943034764216
0.009634947528137627
0.009634957854010241
0.009634973833892448
0.009634980752378819
0.009634987608959405
0.01058777750397454
0.01058776186300678
0.01058776264033459
0.01058777388283504
0.01058777482258569
0.01058777780271094
0.01058779012215162
0.0105877807232325
0.01058778615808265
0.01058778701812841
0.01058779166631484
0.01058779773588076
0.01058779702912377
0.01058779327173765
0.01058779096968025
0.01058779785302457
0.01058780718652577
0.01058780543986718
0.01058780415977518
0.01058779681973004
0.01058777667669344
0.01058775659772323
0.01058774377745883
0.01058773929831723
0.01058772577979889
0.01058772652420633
0.01058773638524504
0.01058773464851368
0.01058773853267802
0.01058775104875284
0.01058775175188172
0.01058775237995893
0.0105877607177059
0.01058775695084022
0.01058775661379172
0.01058775974591822
0.01058777451946991
0.01058777904491155
0.01058777714616916
0.01058777406861205
0.01058776960342485
0.01058778706682372
0.01058778155453926
0.01058777781717715
0.01058777345060564
0.01058777878050224
0.01058777213957234
0.01058777314709454
0.01058776775705593
0.01058776352698577
0.01058775737996052
0.01058774397692275
0.01058774302325413
0.01058774565720737
0.01058775129115006
0.01058776245061603
0.01058777050525694
0.01058777964875638
0.01149361204461417
0.01149360095425287
0.01149360024049416
0.01149360714420754
0.01149360973535718
0.0114936131315614
0.01149362410253279
0.01149361796820412
0.01149362059237345
0.0114936225168625
0.01149362598375176
0.01149363227127606
0.01149363289895499
0.01149362992769062
0.01149362941667587
0.01149363540263814
0.01149364258461092
0.01149364399512694
0.01149364399932868
0.01149364091675669
0.0114936268759722
0.01149361053948212
0.01149359678166293
0.01149359090605478
0.01149357654827115
0.01149357409062559
0.01149357842590813
0.01149357673177299
0.01149357876517402
0.01149358723916129
0.01149358933783242
0.01149358709090376
0.01149359641559775
0.0114935948082999
0.01149359546957379
0.0114935980410463
0.01149360707710566
0.01149361388127676
0.0114936132893255
0.01149360980250586
0.01149360763272695
0.01149362315447726
0.01149361961430191
0.01149361685775088
0.01149361393959412
0.01149361821943296
0.01149361407794827
0.01149361419629007
0.01149361109102724
0.01149360623624608
0.011493601664712
0.01149358944274682
0.01149358638956105
0.01149358739777
0.01149359067979246
0.01149359685488349
0.01149360399223275
0.01149361422514766
0.01232714380209732
0.01232713646091206
0.01232713503639837
0.01232713895441448
0.01232714235378539
0.01232714561544643
0.0123271554407754
0.01232715155362406
0.01232715263429665
0.0123271542483344
0.01232715734031647
0.01232716287797923
0.01232716412248049
0.0123271623483979
0.01232716272294276
0.01232716900946674
0.01232717421989802
0.01232717614199829
0.01232717829116557
0.0123271775616969
0.01232716815661036
0.01232715620232343
0.01232714380251026
0.01232713761980973
0.0123271242723059
0.0123271192824983
0.01232712034548735
0.01232711783942741
0.01232711836048379
0.01232712318345767
0.01232712589849034
0.01232712236398995
0.0123271305236224
0.01232713007921963
0.01232713141430479
0.01232713373630617
0.01232713920149739
0.01232714587669437
0.01232714664499923
0.01232714186948346
0.01232714178003907
0.01232715671319168
0.01232715408823388
0.01232715220029909
0.01232715016258262
0.01232715402097725
0.01232715133976331
0.01232715116151119
0.01232714982869714
0.0123271451403371
0.01232714198922794
0.01232713144735781
0.01232712703386
0.01232712704808427
0.01232712881307295
0.01232713169978754
0.01232713653775579
0.01232714664375291
0.01307348032727716
0.01307347556533649
0.01307347361293301
0.01307347584278935
0.01307347950401613
0.013073482496093
0.01307349129715957
0.01307348888770668
0.01307348947435169
0.01307349129909152
0.01307349277288402
0.01307349766606542
0.01307349936435183
0.01307349817691533
0.01307349892956244
0.01307350546341083
0.0130735093177682
0.01307351153875652
0.01307351456531659
0.01307351536573194
0.01307350917094665
0.01307350140437325
0.01307349128870415
0.01307348574476808
0.01307347431831518
0.01307346724977849
0.01307346735912812
0.01307346313707325
0.01307346295401043
0.01307346486661773
0.01307346732084196
0.01307346296199277
0.01307346953500877
0.01307346970744056
0.01307347139496168
0.01307347372699872
0.0130734773004888
0.0130734823552465
0.01307348394292769
0.01307347900955549
0.0130734794875123
0.01307349426257752
0.01307349235697608
0.01307349052614761
0.0130734895186225
0.01307349313421438
0.01307349127621733
0.01307349103345041
0.01307349085111381
0.01307348660626933
0.01307348472016753
0.0130734760110431
0.01307347101430615
0.01307346979824678
0.01307347111675771
0.01307347231690151
0.0130734752716622
0.01307348389622286
0.01372636754987475
0.01372636442999692
0.01372636198774556
0.01372636331948883
0.01372636696473492
0.01372636961903394
0.01372637747455204
0.01372637587605212
0.01372637665149664
0.01372637722605164
0.01372637847861636
0.01372638249444162
0.01372638452721472
0.01372638354491142
0.01372638476780864
0.01372639074665536
0.01372639375353293
0.01372639607780487
0.01372639819096497
0.01372640189233234
0.0137263971041122
0.01372639281140514
0.01372638495963665
0.01372638088747263
0.01372637161355161
0.01372636375784514
0.01372636342334011
0.0137263585800833
0.01372635710738511
0.0137263581578072
0.01372635874819145
0.01372635474422651
0.01372635966154597
0.01372636014272152
0.0137263614624665
0.01372636372782215
0.01372636603769766
0.0137263697739416
0.01372637215521657
0.01372636649228812
0.01372636698720536
0.01372638143067885
0.01372637948561992
0.01372637820420707
0.01372637775674936
0.01372638155424481
0.01372638026863237
0.01372637999275676
0.0137263803392093
0.0137263773806366
0.01372637591098261
0.0137263688243478
0.0137263639863454
0.01372636243160562
0.01372636333404782
0.01372636365007572
0.01372636553677168
0.01372637191142535
0.01428534724764722
0.01428534504172931
0.01428534232882451
0.01428534336609736
0.01428534659940874
0.01428534907065518
0.01428535591542942
0.01428535475352855
0.01428535545597468
0.01428535567604398
0.0142853565664217
0.01428535973788442
0.01428536186841381
0.01428536088713555
0.01428536229384025
0.01428536764422871
0.01428537001637312
0.01428537221844164
0.01428537434348811
0.0142853790316098
0.01428537543132185
0.01428537395165808
0.0142853676935448
0.01428536541448334
0.01428535785516142
0.01428535037311942
0.0142853499054732
0.0142853449414543
0.01428534252751551
0.01428534187498106
0.01428534345231904
0.0142853388441507
0.01428534204125017
0.01428534237068076
0.01428534413720069
0.01428534534290335
0.01428534763378769
0.01428535002015531
0.01428535199872629
0.01428534640341902
0.0142853467563092
0.01428536020383302
0.01428535830409088
0.01428535726958987
0.01428535718429366
0.01428536120331395
0.01428536016359765
0.01428536039181378
0.01428535996020681
0.01428535834354114
0.01428535770924975
0.01428535170362096
0.01428534745653221
0.01428534590481492
0.01428534683300293
0.01428534645798063
0.01428534775537763
0.01428535241512368
0.01475311439438681
0.01475311264049021
0.01475310989547677
0.01475311097874339
0.01475311359384336
0.01475311583899505
0.01475312168328316
0.01475312051503667
0.01475312109385332
0.01475312120714235
0.01475312184165607
0.014753124371127
0.0147531265249259
0.01475312556849342
0.01475312658977761
0.01475313151773423
0.01475313334780937
0.01475313514590051
0.01475313740632351
0.01475314224415526
0.01475314007158006
0.01475313967551241
0.01475313504253203
0.01475313391298605
0.01475312807683531
0.01475312206283118
0.01475312173034763
0.014753116961859
0.01475311362390404
0.01475311358001665
0.01475311419387124
0.01475310976936328
0.01475311193438468
0.0147531117875176
0.01475311291893492
0.01475311455440519
0.01475311604485318
0.01475311749433957
0.01475311933149251
0.01475311373921559
0.01475311394129104
0.01475312594749323
0.01475312416426536
0.01475312344597137
0.01475312326756083
0.01475312726576422
0.01475312644172215
0.01475312693672724
0.01475312660827136
0.01475312568487793
0.01475312561400392
0.01475312034566714
0.01475311698145536
0.01475311616433268
0.01475311583518649
0.01475311671419557
0.01475311644480073
0.01475312036287546
0.0151336270487895
0.01513362534034311
0.01513362269488561
0.01513362409033759
0.01513362624666259
0.01513362834398298
0.01513363308600913
0.01513363214296316
0.01513363219013485
0.01513363196497436
0.01513363405002922
0.01513363476082623
0.01513363694711793
0.01513363595637189
0.01513363728203297
0.01513364069859926
0.01513364239484498
0.01513364370363163