/*--------------------------------*- C++ -*----------------------------------*\
| =========                 |                                                 |
| \\      /  F ield         | OpenFOAM: The Open Source CFD Toolbox           |
|  \\    /   O peration     | Version:  v1812                                 |
|   \\  /    A nd           | Web:      www.OpenFOAM.com                      |
|    \\/     M anipulation  |                                                 |
\*---------------------------------------------------------------------------*/
FoamFile
{
    version     2.0;
    format      ascii;
    class       volScalarField;
    location    "10000";
    object      p;
}
// * * * * * * * * * * * * * * * * * * * * * * * * * * * * * * * * * * * * * //

dimensions      [0 2 -2 0 0 0 0];


internalField   nonuniform List<scalar> 
3770
(
2.692223138945909e-07
-2.500328885299505e-06
-8.663567132099968e-06
-5.613130346258571e-06
-4.311043353420502e-06
-9.12173526367301e-06
-6.93158729809947e-06
-6.423286806719342e-06
-1.281301062269756e-05
-1.369404347253448e-05
-1.447595013633011e-05
-4.133988425431875e-05
-3.782613960090345e-05
8.491797874565808e-06
1.299722097998718e-05
-2.93884528656482e-05
-1.46202569567359e-05
-1.021026183136878e-05
-1.157549505424787e-05
-1.987401182476865e-05
-2.485224754769308e-05
-1.26087375248829e-05
-6.981399078347803e-06
-1.346203194200163e-06
-1.470083895297448e-06
-2.756349068514271e-06
1.913992567732427e-06
4.591232694263755e-06
2.952504937756268e-06
8.192788409407052e-06
1.557353246228773e-05
4.274149091812e-05
4.851863815140528e-05
2.411356339916308e-05
7.098539049567965e-06
-1.257687438982637e-05
-1.548731410133606e-05
-2.044841272279888e-05
1.107394441697967e-06
3.767383208804662e-05
3.878407345626907e-05
-1.590444381893595e-05
-1.440925271530784e-05
7.94446453637165e-06
4.015493272223115e-05
4.720949043878342e-05
1.988135789648281e-05
-4.343790743170534e-06
-8.146945663016064e-06
-9.676511678395685e-06
3.594888549886378e-05
4.612674468370614e-05
2.275700669814128e-05
1.592405068962962e-05
1.107778413481324e-05
1.119753809181621e-05
1.117899446933698e-05
7.928153790436629e-06
4.44203929638717e-07
-2.441095742838737e-06
-8.688953239342064e-06
-5.612353629287482e-06
-4.285230600089725e-06
-9.144647945020902e-06
-6.931777717542934e-06
-6.395324283616813e-06
-1.283182905983886e-05
-1.367264028720552e-05
-1.436400669381434e-05
-3.956070983913575e-05
-3.658155284642002e-05
6.688008503110775e-06
1.16951992119883e-05
-2.779974309381978e-05
-1.476782427902549e-05
-1.019740692384993e-05
-1.155678153876789e-05
-1.9594720382004e-05
-2.325016270757946e-05
-1.268113718879553e-05
-7.038299803698138e-06
-1.320459947602979e-06
-1.427252849529216e-06
-2.808288304384196e-06
1.927008827232121e-06
4.631026928663514e-06
2.904641435876324e-06
8.20641978698811e-06
1.536968299302682e-05
4.098085028686409e-05
4.712736530594784e-05
2.426124284676473e-05
7.088706882735461e-06
-1.24281086730868e-05
-1.384528336322115e-05
-1.892888258878365e-05
8.178620675902786e-07
3.594681847992201e-05
3.746825173911551e-05
-1.405730581750613e-05
-1.293449581534326e-05
7.64711229888103e-06
3.83720531703056e-05
4.57390329052071e-05
2.007031569269435e-05
-4.150764069570531e-06
-6.447144113477695e-06
-8.424417543222017e-06
3.416257183891346e-05
4.472556731617374e-05
2.283390265272262e-05
1.589406140267492e-05
1.105401471552944e-05
1.120281849354317e-05
1.117972730172545e-05
7.860906312239449e-06
5.455139138358149e-07
-2.401792238755245e-06
-8.712164405245632e-06
-5.606241287082287e-06
-4.263109265322758e-06
-9.166341726654164e-06
-6.926929620367107e-06
-6.371817547850651e-06
-1.285140040599637e-05
-1.364980271665736e-05
-1.427833283544919e-05
-3.633621685312951e-05
-3.379666349351865e-05
3.392885069834993e-06
8.930769846105617e-06
-2.482387520782559e-05
-1.487558345265775e-05
-1.019117509042921e-05
-1.154333064339508e-05
-1.927777480003955e-05
-2.017000289413136e-05
-1.270778191729769e-05
-7.109004076906189e-06
-1.286528719140858e-06
-1.375089263699926e-06
-2.882793794222206e-06
1.953361753860682e-06
4.682663220473215e-06
2.834399954598139e-06
8.236320916979629e-06
1.517864890777286e-05
3.770650691914335e-05
4.428950742892824e-05
2.437711295924537e-05
7.06769972905374e-06
-1.225367173956537e-05
-1.082457558557529e-05
-1.585610493496811e-05
5.722985152950371e-07
3.268870120960927e-05
3.467264127730794e-05
-1.081439435228047e-05
-9.910936614944929e-06
7.391310342150444e-06
3.505925615504056e-05
4.279199158898009e-05
2.023358204437309e-05
-3.911586439692027e-06
-3.342085999747066e-06
-5.635105346036425e-06
3.090520995281108e-05
4.186978525299842e-05
2.286806835023531e-05
1.585609938103588e-05
1.102819232836623e-05
1.120425135625665e-05
1.118000188167245e-05
7.816323021580456e-06
6.425839404985898e-07
-2.40488220800837e-06
-8.739902838475448e-06
-5.592701505285231e-06
-4.243785082472764e-06
-9.190204982724561e-06
-6.911632928667764e-06
-6.352905359849258e-06
-1.287818582835903e-05
-1.360455382130719e-05
-1.424686775557251e-05
-3.326210676305595e-05
-3.092425020112028e-05
4.436719351043071e-07
6.073326193353649e-06
-2.201490094212578e-05
-1.483675396385993e-05
-1.01843735643647e-05
-1.153317138311016e-05
-1.902255633286479e-05
-1.73585581811679e-05
-1.260344690576855e-05
-7.107888620117793e-06
-1.256011438648551e-06
-1.345047971543554e-06
-2.958177713832486e-06
1.984737635832254e-06
4.734055917718404e-06
2.76169636457843e-06
8.262317540202061e-06
1.510340525247924e-05
3.464915546726641e-05
4.13378739732861e-05
2.432394709472378e-05
7.064050973352481e-06
-1.200996033351311e-05
-8.012461837090608e-06
-1.285097747602283e-05
5.764931448611395e-07
2.964584735812462e-05
3.176001604283332e-05
-7.852674336726853e-06
-6.959780747176842e-06
7.386982933932212e-06
3.199505611488977e-05
3.974937555853725e-05
2.02173935697689e-05
-3.624752573151312e-06
-4.467668436875244e-07
-2.794294229874636e-06
2.79702880572131e-05
3.891604018909307e-05
2.277791323942482e-05
1.581460384353494e-05
1.099020827663543e-05
1.117568273438489e-05
1.118784310495317e-05
7.857941210949898e-06
7.819433745116111e-07
-2.406752448945434e-06
-8.784049969145803e-06
-5.587815348011308e-06
-4.208574351495019e-06
-9.223194071249505e-06
-6.896981455622861e-06
-6.320583427145904e-06
-1.292550322332472e-05
-1.353170650347926e-05
-1.428281868390161e-05
-3.126170119345099e-05
-2.897778772586329e-05
-1.314898636083706e-06
4.143440813908222e-06
-2.03343778669805e-05
-1.474149854251486e-05
-1.018424645192482e-05
-1.152905038325637e-05
-1.871211208338564e-05
-1.57019960623442e-05
-1.240086089980918e-05
-7.053377760061845e-06
-1.235769258534381e-06
-1.31419538978844e-06
-3.027917277022034e-06
2.006347934328191e-06
4.793215640281019e-06
2.693889630149326e-06
8.291512168533857e-06
1.50842125105611e-05
3.26657199559378e-05
3.932365474970117e-05
2.417449042758904e-05
7.073360173757001e-06
-1.165482821467794e-05
-6.41290460096487e-06
-1.085237617956054e-05
7.341282577617501e-07
2.770381552067253e-05
2.973139579216824e-05
-6.065768164617112e-06
-5.036034467448502e-06
7.547880351792364e-06
3.003852046506804e-05
3.760001515175664e-05
2.010983643072715e-05
-3.217576310156533e-06
1.263373159493281e-06
-9.090205221523814e-07
2.620453755325274e-05
3.689314472426046e-05
2.259603245384213e-05
1.577313542671418e-05
1.093085111781761e-05
1.113394607597596e-05
1.121266273705099e-05
7.933577663750866e-06
9.566088737518088e-07
-2.382881422505369e-06
-8.791234297859125e-06
-5.609106530822131e-06
-4.175884621025568e-06
-9.219828176902519e-06
-6.904070217575835e-06
-6.29398818527295e-06
-1.294480878490232e-05
-1.340330979576092e-05
-1.433118293811406e-05
-2.98805345448809e-05
-2.760650213343644e-05
-2.385388008635429e-06
2.871720144729179e-06
-1.941589465078895e-05
-1.458732329018281e-05
-1.016750115019786e-05
-1.149430818387545e-05
-1.82442950076712e-05
-1.477046256253382e-05
-1.212720558111503e-05
-6.976240930553925e-06
-1.237191337457202e-06
-1.272448931147997e-06
-3.052397735037973e-06
2.000257213634967e-06
4.84505210114966e-06
2.667630395591217e-06
8.30894408883204e-06
1.500887012456676e-05
3.12547962101567e-05
3.786195637861246e-05
2.38862064081527e-05
7.110900358341568e-06
-1.103643245662066e-05
-5.605169746437487e-06
-9.450443957861053e-06
9.637247723196417e-07
2.636242515839673e-05
2.831497123607452e-05
-4.986927788427114e-06
-3.739774087562968e-06
7.764457581911278e-06
2.868764576119246e-05
3.600513300619408e-05
1.990769373151125e-05
-2.597384376208794e-06
2.195258715909855e-06
3.50514115715044e-07
2.508934070695609e-05
3.543858515473859e-05
2.228444591282171e-05
1.57107677863534e-05
1.088364837428293e-05
1.10931408795676e-05
1.122200461337494e-05
7.996259551764719e-06
1.159569060573762e-06
-2.360239171939209e-06
-8.764350196341284e-06
-5.637956277765043e-06
-4.15675447443763e-06
-9.184599245806717e-06
-6.92131721208281e-06
-6.283877859058507e-06
-1.293902628694189e-05
-1.326267675675997e-05
-1.441041981934255e-05
-2.871621104642144e-05
-2.641234792109093e-05
-3.209706204873031e-06
1.838344199105009e-06
-1.875161014839601e-05
-1.439911420966535e-05
-1.015125262512315e-05
-1.145195890049435e-05
-1.764614384272534e-05
-1.417297661583946e-05
-1.183978298488554e-05
-6.893234747320676e-06
-1.25930684866234e-06
-1.231441323782777e-06
-3.043503975572507e-06
1.983600695549326e-06
4.88080984416642e-06
2.67897406351792e-06
8.324554582707216e-06
1.491893490326347e-05
3.006831933608986e-05
3.660285765222322e-05
2.349531644727532e-05
7.151944406148631e-06
-1.019574741233601e-05
-5.1541838034055e-06
-8.269031817361081e-06
1.238025570196579e-06
2.520685017948114e-05
2.708744807294406e-05
-4.1371095151548e-06
-2.684918715170579e-06
8.015676866724179e-06
2.753152951772535e-05
3.458752828736712e-05
1.964084658385017e-05
-1.788335377709954e-06
2.764963981437532e-06
1.393066031100913e-06
2.419544818772055e-05
3.418346299483282e-05
2.191620990237732e-05
1.564158708072501e-05
1.085072856232085e-05
1.10571969805787e-05
1.121104628404899e-05
8.044716173273788e-06
1.398655122951169e-06
-2.331596786667028e-06
-8.705956209838258e-06
-5.666509510947855e-06
-4.150910624417887e-06
-9.125941149778624e-06
-6.938186559218757e-06
-6.291455307182019e-06
-1.291011659900017e-05
-1.305522015108439e-05
-1.445976894229273e-05
-2.740986372719864e-05
-2.511401290640561e-05
-4.055948698476696e-06
7.378576839003504e-07
-1.809817844309226e-05
-1.412812394395931e-05
-1.010543758019853e-05
-1.13603056324957e-05
-1.687597863429088e-05
-1.359935960733169e-05
-1.149561789871645e-05
-6.787788416495731e-06
-1.292222887369032e-06
-1.195129875623635e-06
-3.011347245679575e-06
1.965122708205521e-06
4.906797382776742e-06
2.711639016595562e-06
8.330699730538933e-06
1.47516267680516e-05
2.873897819546092e-05
3.513672442973375e-05
2.294019152416157e-05
7.213447077375106e-06
-9.071841865811768e-06
-4.677779157403406e-06
-6.987250795100971e-06
1.554916010557357e-06
2.392845438107766e-05
2.575887529061695e-05
-3.205401940702465e-06
-1.549512340322367e-06
8.279650433822596e-06
2.625169078357868e-05
3.299208290901902e-05
1.928475536202726e-05
-7.53856534527908e-07
3.341886895403652e-06
2.474265320047618e-06
2.323853357919155e-05
3.275588984893775e-05
2.141324639589939e-05
1.552759075640795e-05
1.081403805835788e-05
1.102027752887998e-05
1.118575964201002e-05
8.096372448866051e-06
1.659622634180213e-06
-2.310714850730886e-06
-8.629510733241159e-06
-5.697048936925458e-06
-4.158827368767212e-06
-9.050260659135995e-06
-6.955398209561955e-06
-6.315510747135729e-06
-1.287055293187042e-05
-1.284954145861232e-05
-1.45349788888052e-05
-2.60733754352863e-05
-2.375625441642374e-05
-4.907080155168577e-06
-4.07488332625829e-07
-1.740956687995991e-05
-1.38388749821821e-05
-1.006603696220849e-05
-1.126880992769709e-05
-1.602954596337472e-05
-1.308867003191821e-05
-1.115450407840914e-05
-6.674643757560869e-06
-1.340861911154161e-06
-1.164685098619534e-06
-2.963357505749863e-06
1.946783143564318e-06
4.920262898515605e-06
2.767614628241269e-06
8.341838421117071e-06
1.459322036910986e-05
2.740463703681401e-05
3.363626914562189e-05
2.232571456566769e-05
7.259792017182163e-06
-7.820077409762553e-06
-4.2428996007324e-06
-5.691664087813061e-06
1.896635733162555e-06
2.260382979669498e-05
2.436006856856629e-05
-2.237773449498775e-06
-4.126116664068132e-07
8.574953068378876e-06
2.492531099336441e-05
3.132659880249088e-05
1.889325153038884e-05
4.033757007808235e-07
3.863806137321772e-06
3.581048985885538e-06
2.225537975749341e-05
3.127515991348823e-05
2.088441143605908e-05
1.541137232434901e-05
1.078773720685149e-05
1.098971872147474e-05
1.114991164118541e-05
8.144603225204083e-06
1.932943964953995e-06
-2.284954264908751e-06
-8.52691611695072e-06
-5.729117863786013e-06
-4.178994012515635e-06
-8.957040867728339e-06
-6.971951818768019e-06
-6.355939631120802e-06
-1.281382781607016e-05
-1.259993589402362e-05
-1.45653765989733e-05
-2.460583591144146e-05
-2.231066070023856e-05
-5.797511386354694e-06
-1.620353810520834e-06
-1.67050928935817e-05
-1.349760467043957e-05
-9.999869128712583e-06
-1.113154395545374e-05
-1.510000026843526e-05
-1.25319668052502e-05
-1.076855303816647e-05
-6.541130707625911e-06
-1.398590494779608e-06
-1.138550957763037e-06
-2.895404333920055e-06
1.927583181906767e-06
4.927753391857411e-06
2.841031755968944e-06
8.341354110793453e-06
1.436862119704821e-05
2.593566296830912e-05
3.194805190594296e-05
2.159085621141676e-05
7.322428984800653e-06
-6.417277808952041e-06
-3.703934158651635e-06
-4.301433541463092e-06
2.262649738401487e-06
2.116810145191118e-05
2.287880568822467e-05
-1.190849859552745e-06
8.073338544161859e-07
8.868654957176232e-06
2.349711294424509e-05
2.950451525607363e-05
1.844395308228328e-05
1.667437861027307e-06
4.468732187971372e-06
4.731908589834008e-06
2.1203403281077e-05
2.963412052836108e-05
2.026238989890195e-05
1.52572861363607e-05
1.076096251719802e-05
1.095838742744605e-05
1.110497037980265e-05
8.193794598255657e-06
2.196023711451206e-06
-2.270955973390382e-06
-8.404279099892592e-06
-5.765520225033965e-06
-4.215354600367901e-06
-8.846635919351804e-06
-6.992229108962791e-06
-6.413579818777019e-06
-1.274945240858543e-05
-1.238298705250987e-05
-1.461458307369079e-05
-2.320937588440222e-05
-2.089945272075022e-05
-6.642477366559772e-06
-2.796900894643285e-06
-1.599814253098286e-05
-1.317497284514867e-05
-9.953604945119098e-06
-1.101094158787327e-05
-1.420454224798164e-05
-1.204099560078995e-05
-1.041006681513776e-05
-6.407786393560513e-06
-1.475690005276251e-06
-1.117708331873776e-06
-2.806229399948367e-06
1.90706929499379e-06
4.922355515190937e-06
2.942986055533923e-06
8.345755932203043e-06
1.41769220123538e-05
2.456151342099076e-05
3.03318097494768e-05
2.085626757538269e-05
7.36169237212862e-06
-5.030885273243019e-06
-3.200964039541611e-06
-2.992710216034608e-06
2.626582326574817e-06
1.977631582612136e-05
2.143121556360104e-05
-1.810057364497983e-07
1.950442688330621e-06
9.178242352920016e-06
2.212346508758996e-05
2.772899758357613e-05
1.79878553043323e-05
2.921237049259333e-06
5.023846644965521e-06
5.839665597147098e-06
2.018450977041264e-05
2.804778349613949e-05
1.967549080203911e-05
1.512063757634318e-05
1.075284622052541e-05
1.093480268043613e-05
1.105200562557009e-05
8.231836887709524e-06
2.433666463525691e-06
-2.260398748229855e-06
-8.248393540923768e-06
-5.805832713072974e-06
-4.268874262180505e-06
-8.713789122896066e-06
-7.017935058097761e-06
-6.490320734585265e-06
-1.266444178848717e-05
-1.215626361222306e-05
-1.460409215792383e-05
-2.183063342562159e-05
-1.953669345191683e-05
-7.435320620909797e-06
-3.918125284172553e-06
-1.532963871345671e-05
-1.28388686901285e-05
-9.894771141367271e-06
-1.086473279711483e-05
-1.33393651864011e-05
-1.154373047208977e-05
-1.003635395798375e-05
-6.261309769873016e-06
-1.56709484567486e-06
-1.102484910255826e-06
-2.68598559658392e-06
1.883169285779793e-06
4.907373297810519e-06
3.069840081517121e-06
8.339857835212035e-06
1.395171010327027e-05
2.319098906159306e-05
2.866766134131649e-05
2.006297004839265e-05
7.40763997463174e-06
-3.641450764135612e-06
-2.620287050094567e-06
-1.734054289408044e-06
2.997260931818209e-06
1.84078262900608e-05
2.003749126866648e-05
8.084429381770065e-07
3.048904584040463e-06
9.468359949013946e-06
2.080020766037596e-05
2.596335217936219e-05
1.75083174319622e-05
4.140204753219526e-06
5.624755299796047e-06
6.882516515312623e-06
1.919551466082703e-05
2.645716901233615e-05
1.905899570029862e-05
1.496516235685509e-05
1.075185708186905e-05
1.091173878048151e-05
1.099346173055115e-05
8.265433491649623e-06
2.632633737101184e-06
-2.269406160448745e-06
-8.062718830204631e-06
-5.85143023666147e-06
-4.344513952961467e-06
-8.557191219625029e-06
-7.052372455339261e-06
-6.588574017896632e-06
-1.256472122457488e-05
-1.197799909352788e-05
-1.459227547201338e-05
-2.059741887842633e-05
-1.829370324515428e-05
-8.131376897220202e-06
-4.928925337530513e-06
-1.469174422862946e-05
-1.253542476937531e-05
-9.861796363160677e-06
-1.074167044690113e-05
-1.258332873463094e-05
-1.112183882300974e-05
-9.703025910144098e-06
-6.122546200265855e-06
-1.683566816010885e-06
-1.096365313080735e-06
-2.532950526084243e-06
1.856005971583973e-06
4.876218716144305e-06
3.234821064723526e-06
8.340699142191592e-06
1.376467567504269e-05
2.198460963730889e-05
2.713428416965308e-05
1.929954605191944e-05
7.433069312087833e-06
-2.35643034343633e-06
-2.062030494695015e-06
-6.366308275461796e-07
3.351156780455311e-06
1.715133949377874e-05
1.875966063020273e-05
1.713320509938206e-06
4.00472563408255e-06
9.753587470250411e-06
1.961709544007725e-05
2.433109796487132e-05
1.703679071513864e-05
5.260367034499233e-06
6.18087750574007e-06
7.812995570927765e-06
1.829023815531572e-05
2.499418086564957e-05
1.850893393448332e-05
1.483681974790509e-05
1.077791708595898e-05
1.089786430852059e-05
1.092948415083055e-05
8.288183215734435e-06
2.786295864590621e-06
-2.293747245319627e-06
-7.840736657047077e-06
-5.900074489293785e-06
-4.441364592101366e-06
-8.373899918762654e-06
-7.096009518636818e-06
-6.707750526709687e-06
-1.243545189044024e-05
-1.181270427386202e-05
-1.451586991399243e-05
-1.945455090320007e-05
-1.71670133692068e-05
-8.728627216048964e-06
-5.823511770496441e-06
-1.410492771644123e-05
-1.22377739567601e-05
-9.822467842516587e-06
-1.060282510861172e-05
-1.191355195047921e-05
-1.071945754359054e-05
-9.372685940508967e-06
-5.981596407226232e-06
-1.817924920701684e-06
-1.100705210425782e-06
-2.342591018268234e-06
1.825113406148695e-06
4.831547129108177e-06
3.432004824259729e-06
8.334236134696198e-06
1.355820152276139e-05
2.085478848695736e-05
2.563001153851133e-05
1.851373049049408e-05
7.461705596524966e-06
-1.147960759208483e-06
-1.445954896749266e-06
3.405896142382524e-07
3.703165728882415e-06
1.598157553283212e-05
1.759483491144525e-05
2.559550591384395e-06
4.846327678913859e-06
1.000352942738199e-05
1.85550339618035e-05
2.279415162085842e-05
1.656163857182451e-05
6.277516290451827e-06
6.75155683397248e-06
8.624016288383991e-06
1.745453183066659e-05
2.359962716963386e-05
1.796732888607935e-05
1.469877866971555e-05
1.081790429489398e-05
1.088629682393956e-05
1.086290810518152e-05
8.308981344002205e-06
2.89770465745774e-06
-2.342627390571769e-06
-7.593307917260236e-06
-5.950230399708765e-06
-4.559164679400743e-06
-8.168709486797792e-06
-7.149147015784747e-06
-6.846723928510864e-06
-1.228431193483899e-05
-1.168924033397242e-05
-1.441258284382739e-05
-1.844459069442632e-05
-1.617436949171318e-05
-9.223308008808477e-06
-6.594049801710808e-06
-1.355467103900171e-05
-1.19643828365095e-05
-9.798174920867663e-06
-1.047330240698815e-05
-1.135646986068493e-05
-1.037069890752134e-05
-9.076797133772021e-06
-5.85639121295475e-06
-1.974846832018741e-06
-1.119124879586138e-06
-2.122387602960561e-06
1.792415153444673e-06
4.772504168538733e-06
3.665630886231246e-06
8.332984038839133e-06
1.336533975087261e-05
1.986563419440287e-05
2.423480727362014e-05
1.775798647889873e-05
7.485804792382251e-06
-5.954956349791681e-08
-8.220520583806461e-07
1.166793562752815e-06
4.032829681469894e-06
1.491879630699431e-05
1.655239990083862e-05
3.330251165932249e-06
5.550746579845022e-06
1.022403072248085e-05
1.762558251042131e-05
2.138917116986974e-05
1.609986637345647e-05
7.179990682667996e-06
7.298328526038466e-06
9.310079324799132e-06
1.669376281342899e-05
2.231682860464006e-05
1.747920989656297e-05
1.457827173186521e-05
1.08831813278403e-05
1.088356055950126e-05
1.07940048082236e-05
8.327974884159371e-06
2.971333838595081e-06
-2.410487599699211e-06
-7.328826851940338e-06
-5.997824752510472e-06
-4.691659356793163e-06
-7.947232525883034e-06
-7.20901757365203e-06
-6.998610857983692e-06
-1.210428620528756e-05
-1.157925615298336e-05
-1.42435941199586e-05
-1.752676295779847e-05
-1.530502627905792e-05
-9.615376202774928e-06
-7.239930235273532e-06
-1.305101577130673e-05
-1.170066297505524e-05
-9.76328770878293e-06
-1.032452737010686e-05
-1.088171758186075e-05
-1.003763434662534e-05
-8.789317491071882e-06
-5.739977483259515e-06
-2.141857891725112e-06
-1.150594764116102e-06
-1.880703012050794e-06
1.759372743184864e-06
4.703755306607053e-06
3.921301937025668e-06
8.323537447624844e-06
1.31463151031053e-05
1.895100282611556e-05
2.288877215428482e-05
1.700558552424552e-05
7.518263960872911e-06
9.266883268320008e-07
-1.56106587104296e-07
1.879687127684819e-06
4.348503195116053e-06
1.395261631631637e-05
1.562511646234182e-05
4.038802480458678e-06
6.139308244542982e-06
1.03927003093166e-05
1.680248735469482e-05
2.009585470356141e-05
1.565020074193289e-05
7.969096571951617e-06
7.840883991685705e-06
9.873567731989037e-06
1.599303687436246e-05
2.111029319967937e-05
1.700347913925694e-05
1.444614356121862e-05
1.095634737110596e-05
1.08828779639576e-05
1.072572063267657e-05
8.350830729970433e-06
3.018916770523387e-06
-2.49684623092188e-06
-7.065315619866864e-06
-6.040217876176092e-06
-4.832715905544643e-06
-7.720899228097279e-06
-7.273114537653208e-06
-7.158523248434582e-06
-1.190695145784884e-05
-1.148985372606404e-05
-1.403335443095666e-05
-1.670864168848637e-05
-1.45562337460031e-05
-9.913319303505277e-06
-7.769982511247937e-06
-1.259053641803353e-05
-1.14534685286759e-05
-9.726166063308607e-06
-1.016773441038924e-05
-1.048892257552813e-05
-9.729826234413384e-06
-8.524048937076347e-06
-5.642852974851617e-06
-2.314969979463594e-06
-1.196123500335054e-06
-1.633294601961628e-06
1.728804029620244e-06
4.629140196034748e-06
4.191284988328927e-06
8.311380752230319e-06
1.291286813366064e-05
1.812791401231824e-05
2.162683797653481e-05
1.628741576175107e-05
7.558831613573211e-06
1.798161096933152e-06
5.213806546626717e-07
2.482385490581727e-06
4.634274395061037e-06
1.308746745642759e-05
1.480759976407442e-05
4.675777285473165e-06
6.620730397538871e-06
1.05120201253177e-05
1.607117546202718e-05
1.892148112627684e-05
1.522315900875336e-05
8.650193577617645e-06
8.361442103077082e-06
1.03244724368909e-05
1.53487050380343e-05
1.999236296939821e-05
1.655443490987444e-05
1.431468281212494e-05
1.103874853574709e-05
1.08877306423761e-05
1.066030153564087e-05
8.377490351982535e-06
3.048110005102663e-06
-2.593953591998123e-06
-6.816247953986886e-06
-6.074208593651612e-06
-4.974458806948864e-06
-7.498714543976033e-06
-7.335705185584301e-06
-7.317617738942737e-06
-1.169257037272667e-05
-1.139832217554148e-05
-1.376740442755105e-05
-1.596690419938595e-05
-1.391413535017499e-05
-1.011889271923137e-05
-8.188363412258498e-06
-1.217847044338056e-05
-1.121715567414447e-05
-9.669533965993463e-06
-9.987336728233388e-06
-1.015072609231581e-05
-9.427309416752514e-06
-8.264022133728912e-06
-5.556363254154095e-06
-2.479581729186e-06
-1.25222654069285e-06
-1.392546556603492e-06
1.703217620492439e-06
4.552915601535988e-06
4.457293155527065e-06
8.28475084727001e-06
1.264490454296507e-05
1.735785236896973e-05
2.042400803762446e-05
1.559173117722031e-05
7.606448928499096e-06
2.566413524379948e-06
1.210305702983169e-06
3.000687971525585e-06
4.896345671960833e-06
1.232905224581453e-05
1.409480391474997e-05
5.240121791008714e-06
7.00678149317046e-06
1.05728795541121e-05
1.541425224012823e-05
1.786362935259379e-05
1.482133803369138e-05
9.225243729961724e-06
8.852776713654552e-06
1.066975659075191e-05
1.475468655769825e-05
1.895117051053603e-05
1.61086825196924e-05
1.41640000345949e-05
1.11131204822261e-05
1.08920469216724e-05
1.060044299597291e-05
8.408352182502824e-06
3.068663840345127e-06
-2.697382189030023e-06
-6.594322343013373e-06
-6.099117669638017e-06
-5.111444892828888e-06
-7.289879018225253e-06
-7.393552782425706e-06
-7.471791738762217e-06
-1.147359270022454e-05
-1.130545733313593e-05
-1.346818293102203e-05
-1.530025009698973e-05
-1.33664272580945e-05
-1.024509922337302e-05
-8.511637841913464e-06
-1.181413099479852e-05
-1.099505855809902e-05
-9.598225759887461e-06
-9.792145022163048e-06
-9.859689582418831e-06
-9.135722626868455e-06
-8.015772935213436e-06
-5.483522617328543e-06
-2.63155977882286e-06
-1.318483669263386e-06
-1.170527176898753e-06
1.685156174304846e-06
4.478388713861801e-06
4.71043725533308e-06
8.246731220863711e-06
1.235310367611988e-05
1.664681466143367e-05
1.929884014420059e-05
1.493414589854986e-05
7.656106630637111e-06
3.233469624975718e-06
1.886315647594403e-06
3.44526708700539e-06
5.128876446485553e-06
1.167762246814646e-05
1.34773366267255e-05
5.725330263079748e-06
7.310057560286698e-06
1.058430242502722e-05
1.481934095856455e-05
1.691999739307608e-05
1.444926352108085e-05
9.705712301957719e-06
9.303634437298364e-06
1.092509998890097e-05
1.420917345420926e-05
1.79906802587508e-05
1.567149014969361e-05
1.400066290212362e-05
1.117876915215036e-05
1.089835572138156e-05
1.054885949349478e-05
8.441461582692295e-06
3.084731568314059e-06
-2.800842331372231e-06
-6.405268277334001e-06
-6.115156794410835e-06
-5.239384254571701e-06
-7.098477951793266e-06
-7.441909408382851e-06
-7.613806884388638e-06
-1.125056902164043e-05
-1.119678064212425e-05
-1.313403266152856e-05
-1.469289210099074e-05
-1.28952253688712e-05
-1.029876723239786e-05
-8.749739384856791e-06
-1.14937894480428e-05
-1.078391003929526e-05
-9.503050782716049e-06
-9.574978204779328e-06
-9.594074362282489e-06
-8.845757452802023e-06
-7.768458238032205e-06
-5.414814975149836e-06
-2.762053943055701e-06
-1.390993417223023e-06
-9.732130480581875e-07
1.675476294268762e-06
4.406926173303103e-06
4.938789584445081e-06
8.190048268867244e-06
1.203272249892271e-05
1.597146170768903e-05
1.823723531717975e-05
1.430565142554972e-05
7.698778085711333e-06
3.810626695965561e-06
2.539202663918242e-06
3.834475335637742e-06
5.342941673047069e-06
1.113429633910331e-05
1.294724264387052e-05
6.134386324865801e-06
7.536271291770109e-06
1.054808061908567e-05
1.427781884408766e-05
1.608755529121863e-05
1.41087131702933e-05
1.009810043143969e-05
9.701816575277471e-06
1.109963485575746e-05
1.370689942071956e-05
1.710395977114762e-05
1.523146821771322e-05
1.381261621645713e-05
1.122373614891024e-05
1.090219840574345e-05
1.050639992502441e-05
8.475017153100488e-06
3.101092158686034e-06
-2.900758244593666e-06
-6.251300411912484e-06
-6.124626005029488e-06
-5.356699015217796e-06
-6.927593177030534e-06
-7.480494856307244e-06
-7.742510982315195e-06
-1.103271605279768e-05
-1.107702766666377e-05
-1.278454770026419e-05
-1.414185829970175e-05
-1.24867219790857e-05
-1.029486482538954e-05
-8.920867125253297e-06
-1.121324975463646e-05
-1.058595083065183e-05
-9.391323859335097e-06
-9.344798441215871e-06
-9.349311539231005e-06
-8.56240158207989e-06
-7.527735057572451e-06
-5.351958194103183e-06
-2.872578182774051e-06
-1.469863777754956e-06
-8.050116689400633e-07
1.673679385983471e-06
4.339836334668748e-06
5.141323039600349e-06
8.119824899520315e-06
1.169766790014703e-05
1.533679837011076e-05
1.724776439421852e-05
1.371383830013755e-05
7.728955858611713e-06
4.30498159177048e-06
3.154610073954683e-06
4.177570907917146e-06
5.539523244306064e-06
1.068993818848581e-05
1.249322767802178e-05
6.470377155382406e-06
7.69671804472112e-06
1.047653621377537e-05
1.378222963726089e-05
1.535517438527854e-05
1.380042918802427e-05
1.041721976182185e-05
1.00468909236055e-05
1.120945198100018e-05
1.32440282309826e-05
1.628828154210953e-05
1.479359125640853e-05
1.36071761821969e-05
1.125100372691372e-05
1.090621546584761e-05
1.047421526881154e-05
8.507527268898732e-06
3.118468328719578e-06
-2.993836499157153e-06
-6.130660951685544e-06
-6.129835619059723e-06
-5.462826380034031e-06
-6.776097633310486e-06
-7.507308392388985e-06
-7.853450751346966e-06
-1.081704745073627e-05
-1.093873455846691e-05
-1.241929597740605e-05
-1.363462817867178e-05
-1.212484252335175e-05
-1.024156605701046e-05
-9.035287896246677e-06
-1.096294094672282e-05
-1.039742639120485e-05
-9.259633198958999e-06
-9.097988080893111e-06
-9.11017658770984e-06
-8.279058506391057e-06
-7.286339121165849e-06
-5.287810754273083e-06
-2.960289433030228e-06
-1.552398983804834e-06
-6.656591043850308e-07
1.677981131414057e-06
4.276127234715657e-06
5.314600767088765e-06
8.033166053722419e-06
1.134941997351128e-05
1.472649449662354e-05
1.631615662891859e-05
1.314968958176221e-05
7.739054231099724e-06
4.726557785642951e-06
3.726670445368063e-06
4.486907111557398e-06
5.731651482985007e-06
1.033724533561389e-05
1.210421983228901e-05
6.744050883352387e-06
7.795528233923114e-06
1.037329917204854e-05
1.332836586925894e-05
1.471550809944823e-05
1.352516354811901e-05
1.06713813447572e-05
1.033215901931976e-05
1.126198354882907e-05
1.281268683845048e-05
1.553433224868436e-05
1.435259577055643e-05
1.337837113535634e-05
1.125439403320836e-05
1.090666272515474e-05
1.04508243852142e-05
8.537776919379755e-06
3.138829897704603e-06
-3.078766631159263e-06
-6.040292538535428e-06
-6.133526344449008e-06
-5.558589756456976e-06
-6.6432702137196e-06
-7.524727919741159e-06
-7.948844300221622e-06
-1.061013335972985e-05
-1.079048560191052e-05
-1.205275125158286e-05
-1.316904713276327e-05
-1.180050302335172e-05
-1.015146384793174e-05
-9.107554212233605e-06
-1.073930686105796e-05
-1.022051127263648e-05
-9.116998172579303e-06
-8.843030143599829e-06
-8.877495030497818e-06
-7.999530016142726e-06
-7.049832874303341e-06
-5.225799332860601e-06
-3.030696500126558e-06
-1.640382302665463e-06