/*--------------------------------*- C++ -*----------------------------------*\
| =========                 |                                                 |
| \\      /  F ield         | OpenFOAM: The Open Source CFD Toolbox           |
|  \\    /   O peration     | Version:  v1812                                 |
|   \\  /    A nd           | Web:      www.OpenFOAM.com                      |
|    \\/     M anipulation  |                                                 |
\*---------------------------------------------------------------------------*/
FoamFile
{
    version     2.0;
    format      ascii;
    class       surfaceScalarField;
    location    "10000";
    object      phi;
}
// * * * * * * * * * * * * * * * * * * * * * * * * * * * * * * * * * * * * * //

dimensions      [0 3 -1 0 0 0 0];
oriented        oriented;


internalField   nonuniform List<scalar> 
7417
(
-0.0007351696357467075
-1.036229301297541e-07
-0.0007351755224733113
5.684606077912126e-09
-0.0007351813099049751
6.134744872735055e-09
-0.0007351766013199254
-4.243067468140314e-09
-0.0007351782293651952
2.060694827768335e-09
-0.0007351794733725053
2.214615219778335e-09
-0.0007351753128132484
-5.225929329505189e-09
-0.0007351768096362884
2.419442708565951e-09
-0.0007351753589827375
2.444010613362809e-09
-0.0007351862903119305
-9.492723558812504e-09
-0.0007351067161154876
-4.502137080429527e-08
-0.000734516365603866
-5.907511062053454e-07
-0.0007340993243240367
-4.215502319305165e-07
-0.0007347022386412599
6.090862064379158e-07
-0.0007351197570620898
4.219188823853037e-07
-0.0007346034441981649
-5.239647109489783e-07
-0.000734626485780537
2.405635071943211e-08
-0.0007346177580666557
-4.549577637490981e-09
-0.0007346032674439628
-1.090075043435773e-08
-0.0007345539407772933
-9.672640690635285e-08
-0.0007340053201481936
-4.955581337823784e-07
-0.0007340210692654738
2.134993345962481e-08
-0.0007340232507928505
3.014631426203505e-09
-0.0007340152329188352
-5.349076734315826e-09
-0.0007340149835907298
-1.947452226038858e-10
-0.0007340252192760844
1.116390525964245e-08
-0.0007340164798772026
-8.838432822868449e-09
-0.0007340149957001924
-2.099818298352515e-09
-0.0007340259687193347
9.857726100964969e-09
-0.0007340208163164664
-8.696824981309578e-09
-0.0007341004628327002
6.967715364499805e-08
-0.0007346837087615289
5.832962665891305e-07
-0.0007351656511230245
4.671855638776506e-07
-0.000735148879677483
-1.828863633506263e-08
-0.000735152081680349
3.09406733936255e-09
-0.0007351438177815254
-8.617759507333528e-08
-0.0007345211294518939
-5.370930599593938e-07
-0.0007340168431203984
-5.08301412690994e-07
-0.0007341164297218635
9.650743547163117e-08
-0.0007346893216831554
5.84815091008312e-07
-0.0007351042292801572
4.254109837121926e-07
-0.0007345236134388069
-6.077576154813331e-07
-0.0007340163400659943
-4.84244062325197e-07
-0.000734114545539362
9.653798699682791e-08
-0.0007346979677126417
5.866896181814858e-07
-0.000735177292503937
4.844090842855254e-07
-0.0007351447121063646
-3.602514484713175e-08
-0.0007351362693748295
-9.112960834085494e-08
-0.0007345131976338459
-5.440783173652868e-07
-0.0007340926772737213
-4.272593931882043e-07
-0.0007346939384438458
6.032305149776956e-07
-0.0007351723456311382
4.821300278681381e-07
-0.0007351639263861772
-1.151529625731222e-08
-0.000735175544078314
7.929512198049489e-09
-0.0007351790843683323
1.734738468601268e-09
-0.0007351776869297723
-1.678695526202953e-09
-0.0007351780652323792
2.04547370580584e-09
-7.09175359269024e-09
-0.0003291534574614224
-8.750938457746128e-08
-0.0003291641257635784
1.707396329334125e-08
-0.0003291655310224651
8.326407500090522e-09
-0.0003291592628402442
-9.904767800634799e-09
-0.0003291665572312531
9.90106265167222e-09
-0.0003291649013001994
1.897116295031532e-09
-0.0003291577170092015
-1.340476153115148e-08
-0.000329165652164244
1.140107203000196e-08
-0.0003291617055114304
3.968265642837075e-09
-0.0003291719232092663
-9.960533151608984e-09
-0.0003291453084406143
-3.240265428731486e-08
-0.0003286169983025756
-1.087561781017343e-06
-0.0003280965009076338
-9.228835335777779e-07
-0.0003285967159882624
1.093534780324782e-06
-0.0003291162220294015
9.230585562777465e-07
-0.0003286341920838261
-9.991326151472543e-07
-0.0003286035736916021
5.055845403332667e-11
-0.0003285979331997736
-1.905326677807789e-09
-0.000328588753356123
-1.154064054960465e-08
-0.0003286055644444381
-1.158652636298421e-07
-0.0003280749912158067
-9.537416627207689e-07
-0.0003280477751427746
6.726695704069168e-09
-0.000328042120354518
1.43339412370227e-10
-0.0003280382897476824
-5.816193108479585e-09
-0.0003280452786184475
7.120181998289333e-09
-0.0003280521185345288
1.893421119403616e-08
-0.0003280425365795365
-1.858657560912727e-08
-0.0003280460049115381
1.149509662347908e-09
-0.0003280546034555698
1.650221405047642e-08
-0.0003280470310203534
-2.221022135309119e-08
-0.0003280606401915344
6.317589465880102e-08
-0.0003285764854840104
1.065723222625077e-06
-0.000329111664079887
9.532476650085123e-07
-0.0003291424836179055
1.901168986387018e-09
-0.0003291472583643271
1.039928861953272e-08
-0.0003291873341109656
-1.053735352925337e-07
-0.0003286142132011255
-1.003128704942157e-06
-0.0003280845220799212
-1.013612095543243e-06
-0.0003280736984852244
8.289810845360684e-08
-0.0003285853337056382
1.081576101696749e-06
-0.0003291039361083683
9.339131880868328e-07
-0.0003286271148044888
-1.088274478764993e-06
-0.0003280821567039327
-9.829377908410917e-07
-0.0003280710658087307
8.116245943428056e-08
-0.0003285852692586803
1.075045513916325e-06
-0.0003291112460697803
9.855465420522244e-07
-0.0003291350346343503
-2.242466006300589e-08
-0.0003291765198818447
-1.181065598728536e-07
-0.0003286056438908089
-1.01566555744979e-06
-0.0003280895413182867
-9.304190993596766e-07
-0.000328587881940712
1.078705169902561e-06
-0.0003291236839515602
9.894397827360065e-07
-0.000329156140896744
7.602407384978484e-09
-0.000329165241124909
8.815511180495292e-09
-0.0003291666272645307
-7.179666699436061e-11
-0.0003291651138079224
-3.839869475985691e-09
-0.0003291615336303801
2.714068679814402e-10
-2.167648750212983e-08
4.824561507115555e-06
-8.362023285972849e-08
4.81221233524314e-06
2.884358759165195e-08
4.807939370078657e-06
1.278084128409615e-08
4.814586259823544e-06
-1.628422669980212e-08
4.809678849727058e-06
1.505372676317471e-08
4.807601887161705e-06
4.578797438265449e-09
4.815996810245464e-06
-2.254617124394423e-08
4.810233253701641e-06
1.778637090995681e-08
4.809708306942526e-06
6.549604506265083e-09
4.80555648266785e-06
-2.197357120050944e-08
4.802377483837666e-06
-9.863185581772159e-09
4.39234818841189e-06
-6.828286877134394e-07
4.07556531685141e-06
-6.144132570317448e-07
4.530238632795605e-06
6.445185930080169e-07
4.84887035239942e-06
6.123196392656291e-07
4.43536447287938e-06
-5.894434209616166e-07
4.479945851790867e-06
-4.627670269274318e-08
4.485999710435244e-06
-6.891081297997086e-09
4.492007385109246e-06
-1.730545260899945e-08
4.436230626643791e-06
-9.230313747136348e-08
4.060718221174632e-06
-5.500342817099872e-07
4.095888459416991e-06
-2.728570130666257e-08
4.115447078914048e-06
-1.970368911738845e-08
4.113647101448377e-06
-2.445950703719256e-09
4.099626544235795e-06
2.110481158901931e-08
4.103077579608551e-06
1.603482853016973e-08
4.107462299740539e-06
-2.29982005617577e-08
4.098041650285601e-06
9.930502653618878e-09
4.099523186668702e-06
1.452570071072623e-08
4.100493946341832e-06
-2.438053076143555e-08
4.124774935499467e-06
3.597278533624551e-08
4.540680970190326e-06
6.582566349699681e-07
4.86871471668849e-06
6.255153580292186e-07
4.819883254730245e-06
5.297820551344209e-08
4.819610031448766e-06
9.438650011997401e-09
4.765500096963515e-06
-1.049999909508292e-07
4.409915768662457e-06
-5.999950092045646e-07
4.047350756651663e-06
-6.576334841996664e-07
4.114029578480239e-06
1.392126593832139e-08
4.54044942900418e-06
6.663781413349813e-07
4.858553552605833e-06
6.237077380476538e-07
4.395843320150625e-06
-6.464426780835362e-07
4.049740397797652e-06
-6.282162686175174e-07
4.117210422359659e-06
1.38511409384002e-08
4.543837666798229e-06
6.582195804362923e-07
4.886496781912115e-06
6.507985615755023e-07
4.83760090979136e-06
2.630399125390742e-08
4.775624668206567e-06
-1.111539307828411e-07
4.406599597087123e-06
-6.030512418983609e-07
4.080864999770979e-06
-6.098771750356918e-07
4.528281560472925e-06
6.382111529726436e-07
4.856021751778774e-06
6.696850226414595e-07
4.813426772762524e-06
5.249329938691124e-08
4.808897716184229e-06
1.270166575271469e-08
4.805099296411014e-06
3.038728240506523e-09
4.806622073888735e-06
-5.523290453225746e-09
4.813865349418164e-06
-5.798202624405645e-09
-3.940334198712643e-08
0.0002151777881349804
-7.16705285463033e-08
0.000215170643551492
3.667132855886443e-08
0.0002151714901420626
1.245216937551489e-08
0.0002151741549003055
-1.8591840514221e-08
0.0002151692264100841
2.02910031417711e-08
0.0002151709653737443
3.557988460233974e-09
0.0002151750696601857
-2.704824259492476e-08
0.0002151693730949998
2.405489731920434e-08
0.0002151722263741143
6.759593064097979e-09
0.0002151709516938504
-2.112874110563484e-08
0.0002151768900793061
2.765322423623865e-09
0.0002148371008430321
-3.210253205581241e-07
0.0002145236437380295
-2.882512096302531e-07
0.000214878397283334
2.786688551924732e-07
0.0002151898959709892
2.888915507998842e-07
0.0002148575969913318
-2.524311198306234e-07
0.0002148718923440875
-5.523667920231539e-08
0.0002148767380966023
-6.425872627828395e-09
0.0002148821773718503
-1.680599640123033e-08
0.0002148563821088486
-7.633715264042352e-08
0.0002145295299422761
-1.881000671386155e-07
0.0002145341396573546
-2.352343006373016e-08
0.0002145453911189741
-2.881827013678472e-08
0.0002145418625439786
2.904667998068501e-09
0.00021453140200111
3.180001347178821e-08
0.0002145380590701222
9.8414639557485e-09
0.0002145392129454858
-2.430953288136743e-08
0.0002145299073165269
1.924668593734333e-08
0.00021453522424452
7.948703407972281e-09
0.0002145347937757409
-2.742788178376543e-08
0.0002145383566030466
1.955591024955566e-08
0.0002148832792253361
2.888533346997194e-07
0.0002151929069519171
2.844420438846565e-07
0.0002151743404206434
6.299627575874904e-08
0.0002151746864346083
1.165852304258653e-08
0.0002151536143520163
-1.006552561388946e-07
0.0002148498969222685
-2.463712493769735e-07
0.0002145148358822464
-3.047250513889863e-07
0.0002145322011355934
-4.284534155233153e-09
0.0002148848525687409
3.012627432518795e-07
0.0002151966313844487
3.032846418100376e-07
0.0002148421281709157
-2.875642768399412e-07
0.0002145171603858333
-2.777068046422886e-07
0.0002145348813276387
-6.441582430617116e-09
0.0002148876887422011
2.884253196602542e-07
0.0002152100242601437
3.097680905605637e-07
0.0002151925979907564
3.697181512134132e-08
0.0002151634311939079
-1.045169456242573e-07
0.0002148471401276735
-2.40962884198044e-07
0.0002145281949606291
-2.812525236245478e-07
0.0002148761130440128
2.761565645016136e-07
0.0002151841880710049
3.404924052589444e-07
0.0002151708079701531
5.567190307180995e-08
0.000215168233428798
9.743172166732644e-09
0.0002151692397878642
-8.978062665794195e-11
0.0002151725741483716
-9.379967506722675e-09
0.0002151765141071642
-8.768186308766676e-09
-4.687056531551756e-08
0.00034230165317474
-6.91236391551033e-08
0.0003422963264212518
4.128235649069728e-08
0.000342301012010952
7.751610451870114e-09
0.0003423025790348469
-2.009723677785981e-08
0.0003422967826126491
2.614867821781438e-08
0.000342301343947312
-7.866385559853561e-10
0.000342303515669939
-2.951975269639167e-08
0.000342297017229861
3.079438359917652e-08
0.0003423028926951161
1.252425514991021e-09
0.0003423013964247864
-2.73655524483664e-08
0.0003423080819825462
-6.32397568738103e-10
0.0003421915596176431
-2.135181212471511e-07
0.0003420775421666833
-1.811373364695555e-07
0.0003422012425479798
1.605892997819828e-07
0.0003423122893203993
1.842495090175172e-07
0.0003422018834065461
-1.441504451009956e-07
0.000342209505701318
-6.546332192632056e-08
0.0003422137447151289
-1.178291112762899e-08
0.0003422187845573165
-2.370868146192508e-08
0.0003422063287723829
-7.596149912559655e-08
0.0003420923320559603
-7.065212266187417e-08
0.0003420889777843875
-2.222593958543638e-08
0.000342092267088681
-3.302143289683522e-08
0.0003420888428168506
6.749630973202979e-09
0.0003420811137682473
3.943065927769594e-08
0.0003420870681148917
4.063876853831633e-09
0.0003420878063449553
-2.505188538564766e-08
0.0003420798520943843
2.675043684048741e-08
0.0003420853589665455
2.493775059722412e-09
0.0003420850391646898
-2.657635289477734e-08
0.0003420814718072176
2.560215889100421e-08
0.0003422060656932134
1.751224914774897e-07
0.0003423127514101063
1.872285317805216e-07
0.0003423017915732448
7.813673161687068e-08
0.0003423014652972332
1.055570506133831e-08
0.0003422926190875524
-1.122826908506583e-07
0.0003422003453044288
-1.463035244822131e-07
0.0003420770954335922
-1.899374364024122e-07
0.0003420794026622334
-7.74981751285837e-09
0.0003422059225089623
1.843638222429424e-07
0.0003423168311389216
1.983967360635063e-07
0.0003421971677655303
-1.780987397220509e-07
0.0003420804339818868
-1.639667620051421e-07
0.0003420818414027098
-6.870303248342565e-09
0.0003422088056832945
1.706715494889175e-07
0.0003423266441845083
2.017537177061007e-07
0.0003423184593752891
4.728614300345394e-08
0.000342302135808365
-1.074480567357491e-07
0.0003421989464429189
-1.307878953392668e-07
0.0003420816768516702
-1.688746488722222e-07
0.0003422007187719828
1.636992694376102e-07
0.0003423056600416459
2.459826268652564e-07
0.0003422999955994217
6.593482724090765e-08
0.0003422975223962698
1.362271857125866e-08
0.0003423015084473015
-3.823998296102303e-09
0.0003423053495529021
-1.327960465034863e-08
0.0003423061502021202
-9.042758868523741e-09
-4.863338041912723e-08
0.0004298356760646092
-5.994774500780435e-08
0.0004298309754006383
4.647016016952387e-08
0.0004298356492240686
3.422654129328015e-09
0.0004298377438904438
-2.195158045722942e-08
0.0004298324318518595
3.166789050302571e-08
0.0004298365253385297
-4.460886931701981e-09
0.0004298387111837852
-3.188675479834175e-08
0.0004298326183117263
3.727821527761489e-08
0.0004298382940389161
-2.422912717128261e-09
0.0004298371042109322
-2.392601626228705e-08
0.0004298426786579265
3.754515832918219e-09
0.0004298092938696335
-1.669974503425292e-07
0.0004297732570342229
-1.390496586844314e-07
0.0004298122552279702
1.161314959857688e-07
0.0004298451621348038
1.4591688698911e-07
0.0004298158860021056
-1.139194484872119e-07
0.0004298225514988303
-6.817401067452747e-08
0.0004298265813957235
-1.20516449842569e-08
0.0004298312969778016
-2.399290381166561e-08
0.0004298245111195148
-7.066804192194322e-08
0.0004297909580122123
-2.034044761073211e-08
0.0004297866447967487
-1.212097296126405e-08
0.000429786245758309
-3.098427733859468e-08
0.000429783399813238
1.075081644615842e-08
0.0004297770005801799
4.599426194002097e-08
0.0004297810356920404
3.329830697553662e-10
0.0004297822319019667
-2.642338383106156e-08
0.0004297756401717353
3.340860408635793e-08
0.0004297797427841596
-2.525758598489709e-09
0.0004297797207129061
-2.880630650200007e-08
0.000429774771663454
2.172534655675612e-08
0.000429816345491227
1.183418023473492e-07
0.0004298461802635985
1.38789515068452e-07
0.000429837551488864
8.022608129011099e-08
0.0004298367382478412
1.38766679355456e-08
0.0004298313739282676
-1.10013073593964e-07
0.0004298158994860614
-1.071391050925742e-07
0.0004297759062908061
-1.395349357695486e-07
0.0004297750364122148
-7.05756632943613e-09
0.0004298160615670332
1.365191704392377e-07
0.0004298483592143562
1.620457428168538e-07
0.0004298150725843956
-1.416512828425152e-07
0.0004297795456218307
-1.155672010952634e-07
0.0004297771859760116
-6.348256477598307e-09
0.0004298180593524404
1.212053907369305e-07
0.0004298566503507486
1.520387186340052e-07
0.0004298516768939513
4.792652378548181e-08
0.0004298408123310239
-1.035848801895743e-07
0.0004298154898470421
-8.435138570731812e-08
0.000429777122240663
-1.25932260374278e-07
0.000429812750546742
1.214262083770017e-07
0.0004298402952686717
2.05492330821447e-07
0.0004298365462794
6.228037656164556e-08
0.0004298337711349389
1.236001766294601e-08
0.0004298373736812064
-8.981467888261857e-09
0.0004298410475610832
-1.742446847619995e-08
0.0004298412132927183
-8.506792011249656e-09
-4.858269117715461e-08
0.0005020198004601964
-5.94159346932816e-08
0.0005020159603166613
4.956174664526782e-08
0.0005020195651393637
-2.000517283755542e-10
0.0005020219227563649
-2.428273150232697e-08
0.0005020175833764047
3.604931902979014e-08
0.0005020205520190462
-7.250374262992337e-09
0.0005020228901098491
-3.441046064184049e-08
0.0005020176463473664
4.272975252505644e-08
0.0005020223080181692
-7.020689982709186e-09
0.0005020214283807671
-2.830431873065707e-08
0.0005020259894037118
-1.717177204563735e-09
0.0005020159068944944
-1.643836732791995e-07
0.0005020023338849078
-1.309793666567876e-07
0.0005020174844238843
1.050457566791913e-07
0.0005020281632282543
1.40283246610895e-07
0.0005020207664707432
-1.07406703481765e-07
0.0005020267745700711
-7.692861920313791e-08
0.0005020306987556993
-1.730321022259096e-08
0.0005020351895570314
-3.049663388369217e-08
0.0005020311906231891
-7.337031944477097e-08
0.0005020205417729751
-1.233924248647803e-08
0.0005020165380559008
-1.038441463857791e-08
0.0005020146375041416
-3.010911208339166e-08
0.0005020123134107526
1.32725764245153e-08
0.0005020068170628577
5.140151922292919e-08
0.0005020092222493841
-1.988301116349787e-09
0.0005020106446514752
-2.78472713824436e-08
0.0005020052178137785
3.844732563631335e-08
0.0005020079707787046
-5.150759506595312e-09
0.0005020082835802368
-2.833689891191999e-08
0.0005020034812078934
2.94540491777149e-08
0.0005020206832712191
1.120623872518864e-07
0.000502029777284029
1.409368091213352e-07
0.000502022896179852
9.102237526383408e-08
0.0005020217549847281
1.375947356307707e-08
0.0005020169383725451
-1.167880957055212e-07
0.0005020207429869253
-1.131406392212865e-07
0.0005020058734382766
-1.315073292631017e-07
0.0005020043602021587
-6.453923357515277e-09
0.000502020613988782
1.275396904171433e-07
0.0005020304719877138
1.562519775358326e-07
0.0005020212717994886
-1.393184441754474e-07
0.0005020093949761537
-1.093657069503024e-07
0.0005020065114039064
-2.456976485110035e-09
0.000502021871845402
1.136949711972916e-07
0.0005020376662707403
1.442794700878685e-07
0.0005020347547427031
5.275582908870537e-08
0.0005020265365780516
-1.051801676191577e-07
0.0005020216099874773
-8.166868955659291e-08
0.0005020061026756549
-1.138957400964066e-07
0.0005020185602874991
1.142695517826942e-07
0.0005020249675035377
2.076335109176883e-07
0.0005020219714946938
7.034195275271863e-08
0.0005020189395492351
1.698729456052331e-08
0.0005020214648016044
-1.109639033113046e-08
0.000502024732764653
-2.075491129967426e-08
0.0005020250976246867
-8.396668272602125e-09
-4.725548013462453e-08
0.0005755656617240426
-5.307220205499014e-08
0.000575562532193312
5.29674694990998e-08
0.0005755649455026965
-2.34089246800007e-09
0.0005755672949804597
-2.642280822036948e-08
0.0005755639554333866
3.957062571135574e-08
0.0005755658553953563
-8.812219506590034e-09
0.0005755682523311355
-3.692581517214875e-08
0.0005755639950609331
4.736978304619738e-08
0.0005755677009382501
-9.043915400078813e-09
0.0005755670326748878
-2.488367417190357e-08
0.0005755709046822948
1.620228955076527e-09
0.0005755668106024207
-1.517137978014024e-07
0.0005755592691263042
-1.205187045192506e-07
0.0005755680639971854
9.371873829261751e-08
0.0005755730647400807
1.329243656453495e-07
0.0005755706994827791
-1.058150854654925e-07
0.0005755759654142842
-7.899276110159539e-08
0.0005755798533619702
-1.805056559503015e-08
0.0005755841563399059
-3.106974241594885e-08
0.0005755817832567928
-7.026128588917164e-08
0.000575577656101803
1.692798941403067e-09
0.000575574053969204
-2.230762871364993e-09
0.0005755714293867023
-2.600831685967006e-08
0.0005755695337057743
1.613408633238987e-08
0.0005755647318439881
5.636033611798433e-08
0.0005755657717723568
-2.760856891415416e-09
0.0005755671764057119
-2.945414853145269e-08
0.0005755627704599088
4.288939187391128e-08
0.0005755644203683699
-7.664017888582526e-09
0.0005755648072087364
-3.051058339334426e-08
0.0005755603082696775
2.689612677060683e-08
0.0005755701803783065
9.158619677349674e-08
0.0005755746500030719
1.237158161444903e-07
0.0005755694923065508
9.086610545554041e-08
0.0005755683101853131
1.738471582329818e-08
0.0005755633064727114
-1.114269185474336e-07
0.0005755704233610262
-1.060578528591416e-07
0.0005755629966362336
-1.177155558915799e-07
0.0005755613846225382
-4.828668425308253e-09
0.00057557081103878
1.148271258853082e-07
0.0005755748660016157
1.50860192081076e-07
0.0005755717064268946
-1.34628065306495e-07
0.000575566488938608
-9.6891199971787e-08
0.0005755637525267939
-1.306258428948683e-09
0.0005755714489181839
1.014399052229768e-07
0.000575580983778638
1.279101587620066e-07
0.0005755795851571763
5.113384424726986e-08
0.0005755728521805867
-1.012924916715928e-07
0.0005755724585176554
-6.932064101274991e-08
0.0005755630678801171
-1.027002185759428e-07
0.0005755694480842228
1.045477583389668e-07
0.0005755710050864071
1.976130825169863e-07
0.0005755684960506522
6.679562176659062e-08
0.0005755653548109132
1.671897514414102e-08
0.0005755669061626469
-1.40760751121982e-08
0.0005755697084521056
-2.405651309902355e-08
0.0005755703499351557
-8.324686478238189e-09
-4.615377320719163e-08
0.0006671342348613353
-5.373598296507509e-08
0.000667131851531182
5.441661377235947e-08
0.0006671331721940413
-3.699017245417988e-09
0.0006671353384257938
-2.853078835466856e-08
0.000667132934201854
4.204690821981657e-08
0.0006671339288007222
-9.560648696551367e-09
0.0006671362595603966
-3.938748902780995e-08
0.0006671329281231971
5.092705167088444e-08
0.0006671358558904727
-1.199851142925809e-08
0.0006671352173022937
-2.783112377344698e-08
0.0006671387025933054
-3.671575663448972e-09
0.0006671360366738876
-1.55735874493536e-07
0.0006671301330391176
-1.183298622944717e-07
0.0006671374072438975
8.964541519158882e-08
0.000667141273383896
1.324491328481025e-07
0.0006671395103171195
-1.040009068189346e-07
0.0006671439585715456
-8.563006018876583e-08
0.0006671478719795983
-2.350948886255636e-08
0.0006671521203309601
-3.75517280430589e-08
0.0006671506703394593
-7.289887833193181e-08
0.0006671488206090281
5.471173252045217e-11
0.0006671457186348405
-1.563747467660259e-09
0.0006671426859172051
-2.38740469668497e-08
0.0006671411967380564
1.77803292996987e-08
0.0006671370376204985
6.046098190041867e-08
0.0006671369062209296
-2.591064836496486e-09
0.000667138105342431
-3.064060108216556e-08
0.0006671345859281606
4.596075165525523e-08
0.0006671353820637709
-8.363259929212469e-09
0.0006671357404290049
-2.994920843873713e-08
0.000667131540714296
3.418785257181601e-08
0.0006671388059760262
9.330901424388632e-08
0.0006671426462425013
1.293851218281458e-07
0.000667138912998266
9.870659794311648e-08
0.0006671378123783072
1.707311422341414e-08
0.0006671320692617199
-1.129326450330436e-07
0.00066713873494578
-1.166865792117935e-07
0.000667133899304818
-1.189580837291489e-07
0.0006671323094444054
-4.298255853674921e-09
0.0006671399141011407
1.13545566107497e-07
0.0006671427873008069
1.510282588622495e-07
0.0006671406815945914
-1.373087078971712e-07
0.0006671374365776235
-9.875663035272257e-08
0.0006671351094848634
2.168392292204439e-09
0.0006671401820761688
1.019280235995769e-07
0.0006671479357317813
1.274145514631693e-07
0.0006671477151093677
5.307421144912362e-08
0.0006671415930061621
-1.009013545761428e-07
0.0006671419223570967
-7.357782995873636e-08
0.0006671341359603724
-9.751263172828591e-08
0.0006671390155974583
1.030502496698043e-07
0.0006671400474779017
2.042971760499904e-07
0.0006671378861838671
7.319923322007111e-08
0.0006671346062242005
2.182573614542036e-08
0.0006671352368248394
-1.4422454749646e-08
0.000667137509333452
-2.63692251073288e-08
0.0006671384111012752
-8.644142235276993e-09
-4.393901089157695e-08
0.0007962737000243578
-4.938782741741647e-08
0.0007962719877238789
5.610807696049451e-08
0.000796272296516372
-3.778255962970066e-09
0.0007962741416773646
-3.015689801596112e-08
0.0007962726564446001
4.374189264992027e-08
0.000796272853986866
-9.392247339950531e-09
0.0007962750143774817
-4.161682792369301e-08
0.0007962726405044612
5.375371461148733e-08
0.0007962749866218242
-1.269068620083316e-08
0.0007962743223705352
-2.450661542144058e-08
0.0007962777354302851
-1.249335359527874e-09
0.0007962750391614639
-1.474963627403652e-07
0.0007962692718467785
-1.112996752652142e-07
0.0007962765752373615
8.172621218262363e-08
0.000796280838371376
1.275476655373441e-07
0.0007962783943670126
-1.029292728339483e-07
0.0007962820566440286
-8.67959314378669e-08
0.0007962861157022777
-2.475343531885406e-08
0.0007962904143489663
-3.858693382587811e-08
0.0007962895108996167
-7.066532629860529e-08
0.0007962889872734657
6.932698037512379e-09
0.0007962863772490549
4.774509635359626e-09
0.0007962829694693515
-1.907126038065963e-08
0.0007962818339744324
1.98905101727841e-08
0.0007962783143053168
6.416846988331943e-08
0.0007962770934670195
-1.112223620109066e-09
0.00079627791373908
-3.166849539660958e-08
0.0007962751998293807
4.858642340286157e-08
0.0007962752024633037
-9.259605167481455e-09
0.0007962753088065529
-3.170871151685571e-08
0.00079627120823982
3.227386014382266e-08
0.000796277304368949
7.986120345780999e-08
0.0007962816394755473
1.162537402645283e-07
0.0007962793374906877
9.675754346200807e-08
0.000796278525531769
2.002347182179962e-08
0.0007962717560565602
-1.051540835174626e-07
0.0007962772561264252
-1.129105499477381e-07
0.0007962732033649585
-1.112633413310915e-07
0.00079627159529743
-2.706405828117991e-09
0.0007962791367667262
1.05505580823896e-07
0.000796282345066805
1.48281780693891e-07
0.0007962796297678962
-1.345183124049757e-07
0.0007962768985879704
-9.232943987031183e-08
0.0007962749497278685
2.754805651390344e-09
0.0007962790294360137
9.566418561035504e-08
0.0007962863813624866
1.163474829459867e-07
0.0007962871875113778
5.014197938789451e-08
0.0007962811492278931
-9.663949535943533e-08
0.0007962814703411447
-6.689251422975215e-08
0.0007962736558039401
-8.955880259072348e-08
0.0007962783467199266
9.662430532513335e-08
0.0007962801254097434
1.972211038430833e-07
0.0007962782351629206
7.017217424415337e-08
0.0007962747920198628
2.22075530633951e-08
0.0007962745599444292
-1.564917536310557e-08
0.0007962762689071965
-2.865045978213676e-08
0.0007962773974712416
-8.904486553381257e-09
-4.255763193155866e-08
0.0009849645814441067
-5.083248540486351e-08
0.0009849637640887018
5.573109014428346e-08
0.0009849630977997324
-3.15787529917916e-09
0.000984964431325887
-3.137919818886533e-08
0.0009849639522805462
4.438078025922725e-08
0.0009849634050517798
-8.47966016013049e-09
0.000984965233980344
-4.353263660823825e-08
0.0009849639051634337
5.532738015089065e-08
0.0009849657596676324
-1.441663099189708e-08
0.0009849649404809447
-2.646120074649003e-08
0.0009849685368585742
-7.232583059439609e-09
0.0009849651041224222
-1.489895548441004e-07
0.0009849587645809105
-1.075376586343382e-07
0.0009849669900756845
7.59262700868183e-08
0.0009849725861980382
1.242925493833339e-07
0.0009849688064146455
-9.87073042710308e-08
0.0009849714954357168
-9.127943052156218e-08
0.0009849757756893059
-3.024612565966239e-08
0.0009849802563068179
-4.47996490982511e-08
0.0009849795203970932
-7.287418255855094e-08
0.0009849800812564314
2.701452998326734e-09
0.0009849781419715292
4.839520915468479e-09
0.0009849744285955456
-1.629528219573475e-08
0.0009849736924145908
2.092011091192427e-08
0.0009849709440450645
6.687986477801047e-08
0.0009849686517850518
1.216021968900196e-09
0.0009849688856281725
-3.182875056978146e-08
0.0009849669849475965
4.99560970751735e-08
0.0009849662212952799
-8.360389850890234e-09
0.0009849659150630459
-3.075688587050623e-08
0.0009849618240612738
3.820355006027661e-08
0.0009849674602416703
8.252840293860244e-08
0.00098497273059974
1.195110066865517e-07
0.0009849718237439934
1.011029623900455e-07
0.000984971415747265
1.924127187564579e-08
0.0009849630633401412
-1.019952123900008e-07
0.0009849670943836283
-1.21292289830042e-07
0.00098496303534999
-1.119860256780349e-07
0.0009849613028896575
-2.599016844415785e-09
0.0009849697622024958
1.025458192340393e-07
0.000984974332930814
1.46186885798034e-07
0.0009849700068046466
-1.340539323909827e-07
0.000984966969645489
-9.371265550097284e-08
0.0009849654881236109
5.275069987228972e-09
0.0009849694316285682
9.5760202720127e-08
0.0009849771117290656
1.143024881968992e-07
0.0009849789228019636
4.947785916906399e-08
0.0009849722737344596
-9.375891714601223e-08
0.0009849723532213124
-7.121594258096241e-08
0.0009849637573302163
-8.281931497884964e-08
0.000984968904509238
9.346016489882884e-08
0.0009849722604035219
1.997554643385288e-07
0.0009849706530920912
7.567801425461307e-08
0.000984966964611573
2.738935249244255e-08
0.0009849657535307517
-1.421870985225049e-08
0.000984966741572367
-2.968593951987512e-08
0.0009849681235910021
-9.368560960659709e-09
-3.971627654117878e-08
0.001253964688288039
-4.799747511548652e-08
0.001253964893025211
5.492875704257203e-08
0.00125396326980881
-1.390521054879143e-09
0.001253963817914052
-3.165542713089906e-08
0.001253964530258606
4.398258733643116e-08
0.001253963264446381
-6.701575372778124e-09
0.001253964516684337
-4.477608253870069e-08
0.00125396452322612
5.590371419504212e-08
0.001253965956434427
-1.416249847129737e-08
0.001253964990498153
-2.339454215146604e-08
0.00125396896508921
-6.893846096443447e-09
0.001253964053793958
-1.41133649768438e-07
0.00125395647766252
-9.985844241226585e-08
0.00125396624194709
6.711900219257695e-08
0.001253974069744119
1.172096747826301e-07
0.001253968496703333
-9.438420580903998e-08
0.001253969953326761
-9.117916871049711e-08
0.001253974483847835
-3.23173050019278e-08
0.001253979122777553
-4.672508874642436e-08
0.001253978234321553
-7.090818006049155e-08
0.001253979944467103
4.483987842865593e-09
0.001253978863342677
8.827107597580157e-09
0.001253974901461886