/*--------------------------------*- C++ -*----------------------------------*\
| =========                 |                                                 |
| \\      /  F ield         | OpenFOAM: The Open Source CFD Toolbox           |
|  \\    /   O peration     | Version:  v1812                                 |
|   \\  /    A nd           | Web:      www.OpenFOAM.com                      |
|    \\/     M anipulation  |                                                 |
\*---------------------------------------------------------------------------*/
FoamFile
{
    version     2.0;
    format      ascii;
    class       volVectorField;
    location    "10000";
    object      U;
}
// * * * * * * * * * * * * * * * * * * * * * * * * * * * * * * * * * * * * * //

dimensions      [0 1 -1 0 0 0 0];


internalField   nonuniform List<vector> 
3770
(
(-0.7759140375731651 -1.183568262792849e-06 -1.437638848069764e-05)
(-0.7759117938599286 -2.542948332599608e-08 -1.437595546177329e-05)
(-0.7759280454730825 3.379283295255964e-07 -1.437528787138194e-05)
(-0.7759207255561742 -2.047283322327021e-07 -1.437591068324029e-05)
(-0.775920749471702 -6.325822670583147e-08 -1.437561836412156e-05)
(-0.7759286771789614 2.733427679232056e-07 -1.43752318915865e-05)
(-0.7759206223421635 -1.89208432909807e-07 -1.437588400434614e-05)
(-0.7759200384787994 -6.100750337707978e-08 -1.437556824179913e-05)
(-0.775929072039879 2.433130917117814e-07 -1.437512442094423e-05)
(-0.7759205622606141 1.716146398198e-08 -1.437543313821615e-05)
(-0.7759403801071266 2.277550399313958e-06 -1.43749211361534e-05)
(-0.7758402639360947 8.7962356729534e-06 -1.438061888539085e-05)
(-0.7745989893314909 2.900430618678668e-06 -1.446108565636675e-05)
(-0.7748174617909749 -1.018953925221885e-05 -1.444725178191e-05)
(-0.7760098173986854 -2.808334698068244e-06 -1.436977767045575e-05)
(-0.7758412111843677 8.945591367984726e-06 -1.438064063665802e-05)
(-0.7747475960332217 -2.032284431067249e-06 -1.445173833947917e-05)
(-0.7759270841069842 2.557275118356096e-07 -1.437536344005755e-05)
(-0.7747390865542405 7.851302045121557e-09 -1.445193047706341e-05)
(-0.7759184439062458 1.641985732644128e-06 -1.437479844461104e-05)
(-0.7746256026565786 6.412113086671157e-06 -1.446026207397344e-05)
(-0.7746945101448716 -1.844573676757694e-06 -1.445479077106325e-05)
(-0.7746927992512961 3.593469095332872e-07 -1.445507390706635e-05)
(-0.7747013831396208 -1.018221334935423e-07 -1.445430678255692e-05)
(-0.7746816883609807 -2.156365343905083e-08 -1.445535881047999e-05)
(-0.7747006049862266 1.145708977118117e-07 -1.445440882531897e-05)
(-0.7747032359512374 -9.064547731068882e-08 -1.445432412360376e-05)
(-0.7746826149732463 -3.462460838099281e-08 -1.445529858997534e-05)
(-0.7747001406164539 1.644408569006786e-07 -1.445427150599422e-05)
(-0.774701446671095 -1.605805151869084e-07 -1.445432376331682e-05)
(-0.7746787791685078 -1.810168785423939e-06 -1.445573994269694e-05)
(-0.7748058483788587 -8.662568867477092e-06 -1.444787728163817e-05)
(-0.7759919207515814 -5.663538862439396e-06 -1.437090087520625e-05)
(-0.7759007660983035 1.468703435112274e-06 -1.437632475651793e-05)
(-0.7759188988533888 3.555128040450601e-08 -1.437511946450393e-05)
(-0.7759258182111394 2.562565588046971e-06 -1.437364563653033e-05)
(-0.7758630797498194 8.889071344250304e-06 -1.43809785194837e-05)
(-0.7746188764425457 4.482329799121894e-06 -1.44592464899326e-05)
(-0.7746913464488895 -3.339540131992651e-06 -1.44551158561632e-05)
(-0.7748089508971869 -8.426430311832008e-06 -1.444778750364016e-05)
(-0.7760074832808128 -3.007715872731377e-06 -1.436953304504472e-05)
(-0.7758369164092749 1.060748251548172e-05 -1.438010608436199e-05)
(-0.7746239732840546 4.38460883369651e-06 -1.445950901489479e-05)
(-0.7746898544194077 -3.272013965623065e-06 -1.445490950845868e-05)
(-0.7748094193259412 -8.308976103530605e-06 -1.444772996674226e-05)
(-0.77600927341274 -5.346359962259517e-06 -1.436972234889663e-05)
(-0.7759169839181249 1.393557517476432e-06 -1.43751724927406e-05)
(-0.775919512554924 2.119004584911332e-06 -1.437374727947119e-05)
(-0.7758541505711993 8.767815451925625e-06 -1.438132651962257e-05)
(-0.7745956540919084 2.820545878031253e-06 -1.446068176338766e-05)
(-0.7748089009369231 -1.043727867430367e-05 -1.444760804234744e-05)
(-0.7759855045631746 -5.11669760117056e-06 -1.437085075966458e-05)
(-0.7759121103606844 1.661778071740883e-06 -1.437578407269877e-05)
(-0.7759217705545147 -1.791526629260865e-07 -1.437486018706675e-05)
(-0.7759290747829228 2.432667027598919e-07 -1.437501936328803e-05)
(-0.7759222291729263 -1.778719201809541e-07 -1.437500858228184e-05)
(-0.7759253135997787 -4.31316194671692e-08 -1.437555740313682e-05)
(-0.7759282235881872 1.881109767386914e-07 -1.437471052854779e-05)
(-0.347349033761203 -2.369199635077036e-06 -4.201652972443882e-05)
(-0.3473562387105708 1.494141110331843e-07 -4.201468028915099e-05)
(-0.3473729089269249 9.708880173691907e-07 -4.201401443238451e-05)
(-0.3473556715296743 -6.33626083441327e-07 -4.201559970295019e-05)
(-0.347362547537919 -6.315355459367992e-08 -4.201456145648836e-05)
(-0.3473760296394806 7.964861019382501e-07 -4.201377736343072e-05)
(-0.3473560991287653 -6.947141278771888e-07 -4.201550928772003e-05)
(-0.3473609646365654 -4.643061252392217e-08 -4.201445041034384e-05)
(-0.3473786665751762 8.501585472128967e-07 -4.201348161648534e-05)
(-0.3473566368564149 -1.342278480737278e-07 -4.2014793050011e-05)
(-0.3473870266910356 4.788372894739849e-06 -4.201372691556915e-05)
(-0.3473918115343072 5.830654173610329e-05 -4.201267371862453e-05)
(-0.3461738843364814 4.385784662942055e-05 -4.209179268678443e-05)
(-0.3461472719610682 -5.988628175055637e-05 -4.209360007981292e-05)
(-0.3473674261107861 -4.475322564662299e-05 -4.201398999265937e-05)
(-0.3473925839302075 5.733126535635938e-05 -4.201246639808161e-05)
(-0.3461770352279309 -3.919956714338613e-06 -4.209220826285027e-05)
(-0.3473614829834511 2.890317687808864e-07 -4.20148162529033e-05)
(-0.3461768378297007 -2.377866471200339e-09 -4.209182645644783e-05)
(-0.3473656539759377 4.360656601293812e-06 -4.201318496440372e-05)
(-0.3461976481003908 5.199668094588579e-05 -4.209127810317098e-05)
(-0.3461845686365037 -3.374155684956487e-06 -4.209089062264505e-05)
(-0.3461708085949357 -2.299296340623151e-07 -4.209214380646652e-05)
(-0.3461756448707108 6.638696930476401e-08 -4.209151790161099e-05)
(-0.3461690937672406 5.557639474266344e-07 -4.209138999146318e-05)
(-0.3461902388408167 -1.204683024785106e-07 -4.209043013423559e-05)
(-0.3461832604846827 -2.66927468831134e-07 -4.209127882245229e-05)
(-0.3461705979887954 4.156145202921622e-07 -4.209136187079786e-05)
(-0.3461907352338058 -8.0402290041779e-08 -4.209011891126698e-05)
(-0.346183805338154 -3.711062835018426e-07 -4.209091494974726e-05)
(-0.3461638088291745 -4.2222089728711e-06 -4.209181308909359e-05)
(-0.3461481100923648 -5.668827916122574e-05 -4.209331678554675e-05)
(-0.3473354359584947 -5.095347975460013e-05 -4.201603166484328e-05)
(-0.3473590627883469 3.389589053870396e-06 -4.201366026240496e-05)
(-0.3473649186750208 2.514369557079014e-07 -4.201325705584835e-05)
(-0.3473882071932428 5.261043068798928e-06 -4.201050282919182e-05)
(-0.3474025158716363 5.789474236146717e-05 -4.201378506512257e-05)
(-0.3461924054031505 4.80915274157023e-05 -4.208980602651839e-05)
(-0.3461725225256405 -7.326936425123742e-06 -4.209121041175279e-05)
(-0.3461466853234162 -5.656092694354318e-05 -4.20935375105372e-05)
(-0.347362707351581 -4.496101415208756e-05 -4.20137062242717e-05)
(-0.3473997538672983 6.167849216377165e-05 -4.201074342854146e-05)
(-0.3461944559199315 4.804659139357075e-05 -4.209029527147755e-05)
(-0.3461704005945345 -7.302220066967456e-06 -4.209082019903792e-05)
(-0.3461464661523705 -5.635181938994576e-05 -4.209342216905273e-05)
(-0.347345622338013 -5.012528758755858e-05 -4.201494507292869e-05)
(-0.3473578510612335 3.056703908469682e-06 -4.201382198060424e-05)
(-0.3473783018211355 4.579976362681493e-06 -4.201049080940089e-05)
(-0.3473902162776814 5.816902715123715e-05 -4.201416819942916e-05)
(-0.3461702010802908 4.361848504447007e-05 -4.209061249138804e-05)
(-0.3461385960982021 -6.023994493851436e-05 -4.209368390459282e-05)
(-0.3473409882685941 -4.958970955286109e-05 -4.201405619163406e-05)
(-0.3473687755393846 3.502214770807879e-06 -4.201327884243316e-05)
(-0.3473646419382519 -2.949657604253704e-07 -4.201237175447347e-05)
(-0.347378920921026 6.51540294385592e-07 -4.201318769555796e-05)
(-0.3473599752625006 -4.954901286572735e-07 -4.201284227572756e-05)
(-0.3473747781592317 -4.442794596388698e-07 -4.201411165801768e-05)
(-0.3473581300214285 1.622840185874054e-07 -4.201300445411677e-05)
(0.005094013432416298 -2.147028584295448e-06 -6.485219162556235e-05)
(0.00508400363386729 8.2586348145313e-07 -6.485061589900801e-05)
(0.005067094209432863 1.444922222581185e-06 -6.484956821380846e-05)
(0.005077837604595125 -9.501191769066349e-07 -6.485094692003868e-05)
(0.005078752549745205 6.945339993031889e-08 -6.48504217515685e-05)
(0.005063355315749435 1.142159706134608e-06 -6.484920622727318e-05)
(0.005076711202077441 -1.150032220739488e-06 -6.485078309291644e-05)
(0.005081057290111749 9.910952647483724e-08 -6.485028780610231e-05)
(0.005059697519426622 1.200235636961855e-06 -6.484879066353893e-05)
(0.005076419559375408 -4.601202757128774e-07 -6.48499972883565e-05)
(0.005062117675750349 1.42818234834528e-06 -6.484966010987212e-05)
(0.005001514982551632 6.574452139338517e-05 -6.484537572679258e-05)
(0.004270155097737686 6.044603537563985e-05 -6.47981463648737e-05)
(0.004440046076150477 -6.367341280793512e-05 -6.480901842062167e-05)
(0.00513204496198373 -6.162076019383591e-05 -6.485328837912881e-05)
(0.005001973766559564 6.430010321152303e-05 -6.484493074168947e-05)
(0.004378697579512893 -5.560688036740359e-07 -6.480572387091319e-05)
(0.005078401571619183 1.068764694204639e-07 -6.485034030130548e-05)
(0.004380814392202947 -2.430990471155439e-07 -6.480559356638967e-05)
(0.005071432341627899 1.48594439834802e-06 -6.484894243007349e-05)
(0.004283781806088125 6.220829957549131e-05 -6.479955374158945e-05)
(0.004313415024522414 -4.638738290181998e-08 -6.480044952110543e-05)
(0.004341840559847819 -9.312901167399707e-07 -6.48027232838782e-05)
(0.00435169050251299 9.370445149831425e-08 -6.480323077760271e-05)
(0.004332565370007401 1.122562150727171e-06 -6.480125194313471e-05)
(0.004322067460485409 8.209144640541852e-08 -6.480072993014376e-05)
(0.004340373085434244 -6.87106502027231e-07 -6.480263038234708e-05)
(0.004330703592538324 7.160272913026879e-07 -6.480127077051718e-05)
(0.004320198665653381 1.179945022573463e-07 -6.480038696144641e-05)
(0.004338342847802228 -5.441651146189883e-07 -6.480210892871248e-05)
(0.004331235828882114 -1.037959734005205e-06 -6.480118146985981e-05)
(0.004435319689674345 -6.368057551443284e-05 -6.480824887657581e-05)
(0.005148217320578515 -6.511538383651642e-05 -6.485441520084307e-05)
(0.00506623026371635 1.356031726694955e-07 -6.484812044730292e-05)
(0.005065901544642861 3.193109034218531e-07 -6.484792743742948e-05)
(0.005050440822284272 2.2526415405921e-06 -6.484583415733281e-05)
(0.004999828857682582 6.48767067978189e-05 -6.484595352805073e-05)
(0.004279778796167959 6.159584866448719e-05 -6.479787991701819e-05)
(0.004321163802752253 -7.294425726581315e-07 -6.480015027450596e-05)
(0.004440472122311282 -6.409952158392037e-05 -6.480850799529381e-05)
(0.005136555320025557 -6.191289072288611e-05 -6.485285622206743e-05)
(0.00499404808834746 6.573519040095086e-05 -6.484303095630653e-05)
(0.004278459790708872 6.174773880054094e-05 -6.479815822079519e-05)
(0.004323521954069998 -8.32939760255777e-07 -6.479970437399472e-05)
(0.004442142883257508 -6.367463982006843e-05 -6.480851426847033e-05)
(0.005156478043852882 -6.403770808078922e-05 -6.485403347582301e-05)
(0.005087210021041149 -5.451442873496776e-07 -6.484969712516619e-05)
(0.005058881711153602 1.485294956289415e-06 -6.484561986574155e-05)
(0.005012390638146624 6.543842131065938e-05 -6.484652305447776e-05)
(0.004273831721493424 6.008014167875957e-05 -6.479634697679821e-05)
(0.00444561266756069 -6.386522376141982e-05 -6.480880358741609e-05)
(0.005136172258720664 -6.324892195408391e-05 -6.485111032148831e-05)
(0.005060060931879526 1.783803556729404e-07 -6.484790117930495e-05)
(0.005074957808776179 -1.864141419655649e-07 -6.484680490605646e-05)
(0.005058934079416933 8.657851410794907e-07 -6.484844166368112e-05)
(0.00507319102826518 -6.199765765185509e-07 -6.484664690993996e-05)
(0.00506302310131696 -8.980205031592881e-07 -6.484958428435969e-05)
(0.005083722268647236 -6.581068137089423e-07 -6.484709571460205e-05)
(0.2267033244592565 -1.750098769105202e-06 -7.927275590621681e-05)
(0.2266949855405611 1.763535102220653e-06 -7.927159561965987e-05)
(0.2266879492991767 9.785573005963058e-07 -7.927089814038684e-05)
(0.2266983403004035 -8.570430191181148e-07 -7.927225934815279e-05)
(0.2266922278888464 6.576634397755983e-07 -7.927141840979311e-05)
(0.2266856209678669 5.833816833044916e-07 -7.927053182142939e-05)
(0.2266971568325314 -1.185271225120384e-06 -7.927204339186304e-05)
(0.2266942900552329 7.156850168639994e-07 -7.927124201567864e-05)
(0.2266824067712351 6.704950442893227e-07 -7.927012991543303e-05)
(0.2266982223714356 -2.692939960325184e-07 -7.92715256404149e-05)
(0.2266859484189017 -1.903184573672331e-07 -7.927089374182963e-05)
(0.2266767047525717 2.236970035125202e-05 -7.927023363152755e-05)
(0.2260069729437221 2.330338109321614e-05 -7.922649758023052e-05)
(0.2260689853556316 -2.068024007874658e-05 -7.92302797799189e-05)
(0.2267075569813751 -2.281708982881101e-05 -7.92715968512627e-05)
(0.2266712541572951 2.097578787242933e-05 -7.92691860003037e-05)
(0.226061109128596 3.53084184343928e-08 -7.923035829768315e-05)
(0.2266964978323105 7.111227278299451e-08 -7.927139332883965e-05)
(0.2260649714369479 -2.338170638903718e-07 -7.923049675824589e-05)
(0.2266966414261538 4.91546733408725e-07 -7.927101262499042e-05)
(0.2260271800780285 2.324939340308435e-05 -7.922787909100819e-05)
(0.2260184160131524 1.184743255881095e-06 -7.922658648559439e-05)
(0.2260324170944872 -1.150455206686233e-06 -7.922787096620226e-05)
(0.226040329526901 1.490374348712054e-07 -7.922840349189648e-05)
(0.2260217423769346 1.48621697326315e-06 -7.922646490096982e-05)
(0.2260181597578258 2.195814650738776e-07 -7.922611296900984e-05)
(0.2260362436117797 -9.445593059525628e-07 -7.922809968654384e-05)
(0.2260201674984722 9.308414794566926e-07 -7.922648552646284e-05)
(0.2260163591699485 2.103282396885946e-07 -7.92258409529268e-05)
(0.226034201951559 -8.293403616638685e-07 -7.922754620602701e-05)
(0.2260206757547861 6.08104934834332e-08 -7.922623695487195e-05)
(0.2260634312986516 -2.274811812967585e-05 -7.922910995207645e-05)
(0.2267171395795336 -2.451471032830435e-05 -7.927214933311756e-05)
(0.22668527577395 -5.445766602217122e-07 -7.926923849838253e-05)
(0.2266849399795667 5.297477823921757e-07 -7.926896144896702e-05)
(0.2266775119086436 5.355619773845672e-07 -7.92678806590295e-05)
(0.2266726724297332 2.131199308092054e-05 -7.926956025221576e-05)
(0.2260213620666128 2.327500469916374e-05 -7.922642553637743e-05)
(0.226011980794659 1.720695816173493e-06 -7.922516693477847e-05)
(0.2260696424571464 -2.266629536923158e-05 -7.922939266311621e-05)
(0.2267106589310942 -2.310327699609342e-05 -7.927102034066571e-05)
(0.2266686138204743 2.136962169967088e-05 -7.926765932023244e-05)
(0.2260216290318362 2.340970175061351e-05 -7.922661553668802e-05)
(0.22601435909816 1.499291850499808e-06 -7.922469448642545e-05)
(0.2260713809285788 -2.283365728626299e-05 -7.922940879413104e-05)
(0.2267233478874635 -2.393353465680176e-05 -7.927141072635335e-05)
(0.2267104165379632 -1.064778336566771e-06 -7.927111659709532e-05)
(0.2266848709047249 8.820704518662369e-09 -7.926753303792275e-05)
(0.2266858835995439 2.193894134851479e-05 -7.92703363056671e-05)
(0.2260101915558263 2.288027241142645e-05 -7.922421330567576e-05)
(0.2260742676852723 -2.093235385942557e-05 -7.922996870725147e-05)
(0.2267055295540787 -2.234881561338692e-05 -7.926854372369642e-05)
(0.2266834751523803 -8.483624375239016e-07 -7.926923747245898e-05)
(0.2266888523112393 -1.92510548521872e-07 -7.926691643573066e-05)
(0.2266831179805986 2.126422921340028e-07 -7.926981909212616e-05)
(0.226694475511591 -5.643835564267705e-07 -7.92670634591712e-05)
(0.2266906846783199 -7.495962346065029e-07 -7.92713358000416e-05)
(0.2267001014061262 -1.835600073498489e-06 -7.926694685702277e-05)
(0.3593983856918567 -1.564802068049774e-06 -8.793064359527914e-05)
(0.3593898392878556 2.305440331961525e-06 -8.79296828243462e-05)
(0.3593870945110686 6.818234641194121e-07 -8.792913299559881e-05)
(0.3594006728002495 -8.878971454128399e-07 -8.793063129899024e-05)
(0.3593895439030182 1.054902612968837e-06 -8.792958493215359e-05)
(0.3593870211490888 2.516094712983196e-07 -8.792883782190472e-05)
(0.3593999058532074 -1.290266061782067e-06 -8.793040131153837e-05)
(0.3593915974819935 1.159734558092034e-06 -8.792938843141691e-05)
(0.3593845228425108 3.521780770540817e-07 -8.792845152364003e-05)
(0.3594026465258509 -2.349807852639058e-07 -8.793006890042079e-05)
(0.3593851183245411 -1.770900778707463e-07 -8.792887980860054e-05)
(0.3593973475384901 5.722438052284396e-06 -8.792972976629845e-05)
(0.3591619224221552 7.026817467915545e-06 -8.791417770568853e-05)
(0.3591876951081155 -4.785651585012029e-06 -8.791561095563638e-05)
(0.3593954693472315 -6.008548484860829e-06 -8.792903058235805e-05)
(0.3593904875594343 4.423306629967329e-06 -8.792854678727338e-05)
(0.3591920226634165 -6.168307137154232e-07 -8.791630223661366e-05)
(0.3594052221492653 1.355238123965986e-09 -8.793010295197983e-05)
(0.3591969063274401 -2.868264651011197e-07 -8.791657792058574e-05)
(0.3594087371284891 6.917007095197912e-07 -8.793022203819196e-05)
(0.3591828130070086 7.710187468153276e-06 -8.791536962983787e-05)
(0.3591727104104397 1.040601803260535e-06 -8.791413562624058e-05)
(0.3591745885028312 -1.212084395835492e-06 -8.791456428583732e-05)
(0.3591785378976167 2.680971117809315e-07 -8.791492685333895e-05)
(0.3591653244176599 1.785407314228477e-06 -8.791341313700124e-05)
(0.3591621662566543 2.012683798725053e-07 -8.791291502465001e-05)
(0.3591782121093593 -1.082347682501599e-06 -8.79147493926917e-05)
(0.359163417061308 1.159695501360951e-06 -8.791336611157321e-05)
(0.3591612801312496 1.598793122285047e-07 -8.79127403691796e-05)
(0.3591769024135975 -9.798276246763738e-07 -8.791427085380267e-05)
(0.3591639235951095 -4.564395248049248e-08 -8.791310431083912e-05)
(0.3591812797716141 -7.077069112683626e-06 -8.79142069846344e-05)
(0.3594080863088377 -7.623783030378132e-06 -8.792967757477137e-05)
(0.3593877891859396 1.044620531773565e-07 -8.792759192199174e-05)
(0.3593876027249547 6.484958366266037e-07 -8.792726749616241e-05)
(0.3593818606983403 4.250929425026168e-07 -8.792649049185881e-05)
(0.3593907473976533 4.484140732614698e-06 -8.792829480729117e-05)
(0.3591766716418012 7.17849730817361e-06 -8.791398606425481e-05)
(0.3591586458651446 1.366840318780663e-06 -8.791218607064401e-05)
(0.3591888512342543 -6.697373959248711e-06 -8.791445992308684e-05)
(0.3593978687268329 -6.230282017604808e-06 -8.792828691416314e-05)
(0.359388965991078 5.002755794077258e-06 -8.792703763447309e-05)
(0.3591794577336792 7.300177693828356e-06 -8.791427098931191e-05)
(0.3591615087471011 1.144644184993925e-06 -8.791172752104946e-05)
(0.3591901515558114 -7.14984129497295e-06 -8.791450962826308e-05)
(0.3594080306275126 -7.396239134435493e-06 -8.792836940441319e-05)
(0.359414102451368 -4.015071497648628e-07 -8.792952468970797e-05)
(0.3593879665596282 8.311124157044568e-08 -8.792603780198349e-05)
(0.3594046125918611 5.305243504012147e-06 -8.792927994873708e-05)
(0.3591648360804311 6.594996899447162e-06 -8.791159499694927e-05)
(0.3591928037369049 -4.999507819402804e-06 -8.791523503800883e-05)
(0.3593944152190345 -5.181299915130122e-06 -8.79258063053668e-05)
(0.3593897700000705 -4.563436508410437e-07 -8.792783755864133e-05)
(0.3593879485547061 -1.772877830689465e-07 -8.792468789520778e-05)
(0.3593877673334562 -1.761069821983551e-07 -8.79282714856915e-05)
(0.3593985094692101 -6.604544641925508e-07 -8.792500579845741e-05)
(0.359396187398215 -6.707286577659417e-07 -8.792990892768452e-05)
(0.35939850844899 -2.327415975240627e-06 -8.792436942042579e-05)
(0.4474497679053033 -1.371397851095754e-06 -9.367938785725971e-05)
(0.4474429527986032 2.596549224109883e-06 -9.367861404548694e-05)
(0.4474399857568526 4.099031462390088e-07 -9.367798787410402e-05)
(0.4474534083774806 -9.363411078022871e-07 -9.36793996343684e-05)
(0.4474437571594359 1.354768490975071e-06 -9.367853936230745e-05)
(0.4474412870064904 -1.281858977194552e-08 -9.367773911996996e-05)
(0.4474528279689512 -1.369329350196162e-06 -9.367914612390079e-05)
(0.4474458534155253 1.518306363886775e-06 -9.367833593680929e-05)
(0.4474389032072152 7.998549675524729e-08 -9.367734943972788e-05)
(0.4474568179567116 -2.092766631365183e-07 -9.367895331567099e-05)
(0.4474388793987524 -4.27573000372385e-08 -9.367767092872687e-05)
(0.4474557969860193 1.750769668013336e-06 -9.367885197352287e-05)
(0.4473837196710766 2.807593425767363e-06 -9.367395283013043e-05)
(0.4474002620131595 -1.178467762898996e-06 -9.367479078113651e-05)
(0.4474478266992743 -1.599973644087389e-06 -9.367779537725252e-05)
(0.4474488523836596 3.073406283378177e-07 -9.367763473484042e-05)
(0.4474048250536609 -1.126255700834197e-06 -9.36753685652212e-05)
(0.4474623850505816 -8.760481930100028e-08 -9.367912578199838e-05)
(0.4474104309414577 -3.703421500899792e-07 -9.367573954317381e-05)
(0.4474673723902282 9.365817616282177e-07 -9.367945274819425e-05)
(0.4474051529535102 4.077147375660317e-06 -9.367512988483284e-05)
(0.4473988979976573 1.046773459174188e-06 -9.367418643815068e-05)
(0.4473958194379844 -1.14643030619296e-06 -9.367421402910311e-05)
(0.4473973791796793 4.413864958223599e-07 -9.367445545595734e-05)
(0.4473884313387562 2.046755355115193e-06 -9.367329727128458e-05)
(0.4473839217135779 2.749017659283473e-08 -9.367261170406961e-05)
(0.4473971422182988 -1.142891731075096e-06 -9.367419960728877e-05)
(0.4473861913633332 1.44758220247098e-06 -9.367317769882668e-05)
(0.4473832273239612 -1.04850343417492e-08 -9.367245891335956e-05)
(0.4473961666402715 -1.077419860787935e-06 -9.367375263515561e-05)
(0.4473854804899476 -1.329795219539845e-07 -9.367280546015587e-05)
(0.4473934730113747 -3.617643546674158e-06 -9.367321293329796e-05)
(0.4474603982094653 -3.355008275257145e-06 -9.367828608600803e-05)
(0.4474439224156745 6.31975652112689e-07 -9.367655516891819e-05)
(0.4474435579438733 7.557305544920354e-07 -9.36762151211106e-05)
(0.4474386654073477 4.904363330127233e-07 -9.367554937002324e-05)
(0.4474478733200213 2.483953487413189e-07 -9.367706123877439e-05)
(0.4473983927441915 3.203143332262888e-06 -9.367364899820001e-05)
(0.4473824468151802 1.031684673035068e-06 -9.367203782099972e-05)
(0.4474016703462619 -2.99692996077526e-06 -9.367347214082422e-05)
(0.4474499403568176 -1.750373438055617e-06 -9.367694341040576e-05)
(0.4474473628887978 1.10105394407746e-06 -9.367606067966641e-05)
(0.4474023552146385 3.309171241525194e-06 -9.367400287735372e-05)
(0.4473851624462404 8.557951912670648e-07 -9.367154847174317e-05)
(0.4474027671427254 -3.600151971746706e-06 -9.367353875239706e-05)
(0.4474568101881712 -3.431146108679187e-06 -9.367669212828817e-05)
(0.4474673225167936 4.879908189767966e-08 -9.367826756781357e-05)
(0.4474439089922845 3.260921726325082e-07 -9.367500595962738e-05)
(0.4474623330652115 1.366810774345353e-06 -9.36781700568782e-05)
(0.4473865419420069 2.37878039380886e-06 -9.367118212632436e-05)
(0.4474050576166383 -1.327873473181049e-06 -9.367433833946293e-05)
(0.4474476868006715 -6.675233199921809e-07 -9.367447523089734e-05)
(0.4474467039756334 -1.576543264127708e-07 -9.367686354105492e-05)
(0.4474430289234791 -1.519160623605234e-07 -9.367337766304711e-05)
(0.4474431034026582 -4.693377748145317e-07 -9.367716738467518e-05)
(0.4474520682531728 -8.351503430037582e-07 -9.36735035370377e-05)
(0.447451003285843 -6.130013782875304e-07 -9.367881108972608e-05)
(0.4474512116797872 -2.412798662417486e-06 -9.367271263234417e-05)
(0.5125866054970583 -1.199302363224726e-06 -9.792502309488638e-05)
(0.5125823338731266 2.80443212848888e-06 -9.792448226655574e-05)
(0.5125788311984798 2.020394855401933e-07 -9.79237965527408e-05)
(0.5125902864216766 -1.028097388497773e-06 -9.792500699208804e-05)
(0.5125831903899105 1.592588871812572e-06 -9.792438074550907e-05)
(0.5125805812456484 -1.942769685787388e-07 -9.792355122305367e-05)
(0.5125896754276931 -1.473662728160502e-06 -9.792472833862619e-05)
(0.5125853707955084 1.811175113649404e-06 -9.792417451611381e-05)
(0.5125779870363378 -1.320816810321939e-07 -9.792313097936946e-05)
(0.5125942849468293 -1.951644964660486e-07 -9.792460099859005e-05)
(0.5125779284147411 1.028930740503676e-08 -9.792338757470016e-05)
(0.512594466038076 7.948350924060924e-07 -9.792454989930745e-05)
(0.5125679909080488 1.778933654934918e-06 -9.792266166107893e-05)
(0.5125810160413869 -4.460983408792735e-07 -9.79232899864067e-05)
(0.5125864548593149 -4.463794924092878e-07 -9.792355400475233e-05)
(0.5125881842762678 -8.156844424764477e-07 -9.792339387614622e-05)
(0.5125842070191938 -1.493600448136313e-06 -9.792367361601004e-05)
(0.5126004039416286 -1.994120813622573e-07 -9.792477350109345e-05)
(0.5125901155324263 -4.836289415380149e-07 -9.792408966481048e-05)
(0.5126060171609506 1.057288384739645e-06 -9.792520279989937e-05)
(0.5125887450945276 3.349360079749218e-06 -9.792376430301448e-05)
(0.5125850811480746 1.180348332712487e-06 -9.792302407887063e-05)
(0.5125804400567816 -1.031884332359153e-06 -9.792289163406242e-05)
(0.5125807285328644 5.935466877342916e-07 -9.792306542504501e-05)
(0.5125745613835186 2.303595182239677e-06 -9.792216155495293e-05)
(0.5125693746041738 -1.121195101104381e-07 -9.792137679742659e-05)
(0.5125797395113689 -1.217150591966668e-06 -9.792270846070418e-05)
(0.512572100719527 1.710158675668687e-06 -9.792198332230975e-05)
(0.5125684955632756 -1.559012115528022e-07 -9.792121423971813e-05)
(0.5125788930191078 -1.152986032684441e-06 -9.792229003185228e-05)
(0.5125708736835873 -1.057074278773111e-07 -9.79215806284943e-05)
(0.5125745705887582 -3.055519819242233e-06 -9.792166523462498e-05)
(0.5125973439347888 -2.300845444944882e-06 -9.79238368755433e-05)
(0.5125844064257966 1.013315609822613e-06 -9.792239692552312e-05)
(0.5125838499411536 8.562894382354046e-07 -9.792203989770726e-05)
(0.5125794857980757 5.225277993715785e-07 -9.792142130298272e-05)
(0.5125857801889692 -9.736802633458509e-07 -9.792252997902172e-05)
(0.5125813980671039 2.286644269984619e-06 -9.792218254708033e-05)
(0.5125685602241072 9.008604948894106e-07 -9.792084703625155e-05)
(0.5125821721600125 -2.224293520944815e-06 -9.792182117375462e-05)
(0.5125882982408858 -5.202667237623665e-07 -9.792259261714958e-05)
(0.5125864667970339 4.820118189267507e-08 -9.792173783937125e-05)
(0.5125855385034803 2.370038402791454e-06 -9.792254597448127e-05)
(0.5125709803897572 8.035983363603953e-07 -9.792032718403023e-05)
(0.5125836378396412 -2.89981234008847e-06 -9.792194841131317e-05)
(0.5125923415802004 -2.64023694370312e-06 -9.792208968083299e-05)
(0.5126040649564166 2.948853365295648e-07 -9.792382941819021e-05)
(0.5125842782887616 4.987041171963501e-07 -9.792082477455717e-05)
(0.512600688150503 4.603355622166145e-07 -9.792373805332962e-05)
(0.5125709022406615 1.374199381244081e-06 -9.791977557154641e-05)
(0.512585506209146 -5.322672734954227e-07 -9.792276430005387e-05)
(0.5125869606249179 5.870964897575229e-07 -9.792017508053191e-05)
(0.512586854608053 2.010805873942295e-09 -9.792269775139003e-05)
(0.5125829400805847 -8.850632781363582e-08 -9.791905574484905e-05)
(0.5125822700157951 -6.63733982961553e-07 -9.792290348686883e-05)
(0.5125892923841258 -1.004591476724531e-06 -9.791892045211339e-05)
(0.5125891362229323 -5.816113232398846e-07 -9.79244906740782e-05)
(0.5125890860147723 -2.375275824495978e-06 -9.791811376440493e-05)
(0.5651801514157991 -1.062565765082073e-06 -0.0001013397275592075)
(0.5651779494757118 2.960884981515083e-06 -0.000101339353590124)
(0.5651741400306425 6.188033278898984e-08 -0.0001013386384515859)
(0.5651832234014085 -1.131871192347091e-06 -0.0001013396298147203)
(0.5651783695899918 1.777541318652564e-06 -0.0001013392017968344)
(0.5651759312929034 -3.076021428403677e-07 -0.0001013383857049731)
(0.5651824556355605 -1.589079045201011e-06 -0.0001013393237108687)
(0.5651806524706943 2.048295953236747e-06 -0.0001013389986208548)
(0.565173250149968 -2.909005713746607e-07 -0.0001013379510152509)
(0.5651874886909795 -1.846535265952181e-07 -0.0001013392515709356)
(0.5651732224049284 3.224361139738334e-08 -0.0001013381706949173)
(0.5651879861347635 5.002223459581975e-07 -0.0001013392080029148)
(0.5651737430922557 1.521258639796821e-06 -0.0001013381388188988)
(0.565184521091884 -3.243284859156772e-07 -0.0001013386301438291)
(0.5651811372851734 -6.414944422688513e-08 -0.000101338324701924)
(0.5651826352359848 -1.260621403153205e-06 -0.0001013381248609534)
(0.5651865261101735 -1.777735540944033e-06 -0.0001013388648651476)
(0.5651930513172023 -3.177000655926068e-07 -0.0001013393594111273)
(0.5651924493408131 -6.032931006535561e-07 -0.0001013393014644626)
(0.5651987059177852 1.098998351299908e-06 -0.0001013398144347268)
(0.5651933427606077 3.249845040401111e-06 -0.0001013391737027323)
(0.5651911992059437 1.353898338848857e-06 -0.0001013385502571043)
(0.5651862245732537 -8.917169448908206e-07 -0.0001013383410523328)
(0.5651857098470439 7.172141845814936e-07 -0.0001013384590577384)
(0.5651815495451483 2.539347786346501e-06 -0.0001013377486753545)
(0.5651761471170245 -1.871552614796012e-07 -0.0001013369208780611)
(0.5651838403198517 -1.293484848315669e-06 -0.0001013380063807554)
(0.5651787492040529 1.929781198446152e-06 -0.0001013375079262572)
(0.5651750393811245 -2.563873323949597e-07 -0.0001013367380651863)
(0.5651830306652125 -1.226639493373174e-06 -0.0001013375998453396)