/*--------------------------------*- C++ -*----------------------------------*\
| =========                 |                                                 |
| \\      /  F ield         | OpenFOAM: The Open Source CFD Toolbox           |
|  \\    /   O peration     | Version:  v1812                                 |
|   \\  /    A nd           | Web:      www.OpenFOAM.com                      |
|    \\/     M anipulation  |                                                 |
\*---------------------------------------------------------------------------*/
FoamFile
{
    version     2.0;
    format      ascii;
    class       volVectorField;
    location    "10000";
    object      wallShearStress;
}
// * * * * * * * * * * * * * * * * * * * * * * * * * * * * * * * * * * * * * //

dimensions      [0 2 -2 0 0 0 0];


internalField   uniform (0 0 0);

boundaryField
{
    inlet
    {
        type            cyclic;
    }
    outlet
    {
        type            cyclic;
    }
    bottomWall
    {
        type            calculated;
        value           nonuniform List<vector> 
58
(
(-0.01456764604072465 1.103751975118486e-07 9.345973243685319e-07)
(-0.01456779334393851 -4.433065738268435e-09 9.345691875100154e-07)
(-0.01456673412379104 -3.352330167697684e-08 9.345256913092279e-07)
(-0.01456721050675272 2.120264250837226e-08 9.345662233507509e-07)
(-0.01456720957471692 1.715492350491888e-09 9.345472197805795e-07)
(-0.0145666930364442 -2.363281564306951e-08 9.34522048350279e-07)
(-0.01456721727368675 2.049359612423904e-08 9.345644895917416e-07)
(-0.01456725582935117 1.284402740403443e-09 9.345439655995597e-07)
(-0.01456666747531593 -2.133829282510352e-08 9.345150594226634e-07)
(-0.01456722286854834 -6.845559601705344e-09 9.345351795099688e-07)
(-0.01456593748254816 -1.593683762369736e-07 9.345017767693297e-07)
(-0.01457244944460861 -1.268663757128621e-07 9.348727786843031e-07)
(-0.01465324581629331 2.332229962285923e-07 9.401113038581651e-07)
(-0.01463903198851503 2.147368725247195e-07 9.392106567522775e-07)
(-0.01456142434554723 -2.416524953813208e-07 9.341669913912101e-07)
(-0.01457238788571095 -1.773246786246314e-07 9.348741870785452e-07)
(-0.0146435783510636 1.354686493671134e-07 9.395027454257085e-07)
(-0.01456679828801215 -1.813419474908297e-08 9.345306096876063e-07)
(-0.01464413950686942 3.413409402881831e-09 9.395152872875798e-07)
(-0.01456736388343853 -8.855425514974458e-08 9.34493931200301e-07)
(-0.01465152421584356 2.413320344677315e-08 9.400576031469899e-07)
(-0.01464703628780308 1.280473473812527e-07 9.39701501619843e-07)
(-0.01464715321312568 -3.440465170080769e-08 9.397199184739866e-07)
(-0.01464659286473251 1.40905369165629e-08 9.39669996422755e-07)
(-0.01464787548346293 2.237838693160745e-09 9.397385066540639e-07)
(-0.01464664374666889 -2.01407817534397e-08 9.396766348614092e-07)
(-0.01464647240537427 1.638126080864126e-08 9.396711126379184e-07)
(-0.01464781518547895 4.467899534923757e-09 9.397345861748964e-07)
(-0.0146466739382254 -2.317662690867549e-08 9.396677105618944e-07)
(-0.01464658759591889 2.404067704324899e-08 9.396710999551831e-07)
(-0.01464805868488993 1.074363794537997e-07 9.397633014080601e-07)
(-0.01463978937663099 1.286662497894253e-07 9.392513899182236e-07)
(-0.01456258305086842 -2.788782027367608e-08 9.342401163986441e-07)
(-0.01456851424179974 -9.270617137761603e-08 9.34593260680469e-07)
(-0.01456733049120449 -1.495181422899492e-08 9.345147977342873e-07)
(-0.01456688554275518 -1.956720146968364e-07 9.344189442162306e-07)
(-0.01457096501121734 -1.512359937473015e-07 9.34896022389099e-07)
(-0.01465195590144148 1.666721240347472e-07 9.399916207055336e-07)
(-0.01464723738187294 1.994076167051505e-07 9.397226542924664e-07)
(-0.01463959036756224 1.067786411333754e-07 9.392455348744107e-07)
(-0.01456157622895543 -2.263680581996414e-07 9.341511023801287e-07)
(-0.0145726721866418 -2.639063007881877e-07 9.348394618192828e-07)
(-0.01465162290673128 1.634526038473847e-07 9.400086567713201e-07)
(-0.0146473346707839 1.957475437468831e-07 9.397092486473813e-07)
(-0.01463955816122213 9.504259103450727e-08 9.392417916114647e-07)
(-0.01456145305597499 -6.137289974071952e-08 9.341633982193301e-07)
(-0.01456745968563786 -7.826129068373449e-08 9.345182564503483e-07)
(-0.01456729500174453 -1.539011270822531e-07 9.344255894529116e-07)
(-0.01457154545271182 -1.327101464361564e-07 9.349186987594204e-07)
(-0.01465346279570874 2.507836091063444e-07 9.400850669168686e-07)
(-0.01463958774298877 2.461505583801329e-07 9.392338684598302e-07)
(-0.01456300215518486 -7.921620621425425e-08 9.342368965843835e-07)
(-0.01456777516703824 -1.138424811518695e-07 9.345580437628215e-07)
(-0.01456714175229453 7.490624095747534e-09 9.344979252340923e-07)
(-0.01456666724209188 -2.130339596231675e-08 9.345082296942303e-07)
(-0.01456711269999166 1.719987951572549e-08 9.345075695577429e-07)
(-0.01456691236153449 8.983098853892893e-10 9.345432296013844e-07)
(-0.01456672184503891 -1.096241330810706e-08 9.344881576645412e-07)
)
;
    }
    topWall
    {
        type            calculated;
        value           nonuniform List<vector> 
58
(
(-0.002371053029254447 6.892949811435934e-09 4.037858172449319e-07)
(-0.002371587726389133 -1.489681888855923e-08 4.03880206943691e-07)
(-0.002371274877814703 -4.684709691406748e-09 4.038545882930616e-07)
(-0.002370745606485889 9.441796663420365e-09 4.037684658505394e-07)
(-0.002371121169641693 -1.355675031123768e-08 4.039513360135574e-07)
(-0.00237178801391074 7.617047399517155e-09 4.037880034540489e-07)
(-0.002370106111376775 1.855428537860143e-08 4.03817606433154e-07)
(-0.002372349052457824 -3.035710016773734e-08 4.039472219482442e-07)
(-0.002370918447333642 1.77886846559088e-08 4.037164454944814e-07)
(-0.002370098790194214 -9.084510119342405e-09 4.039260968634228e-07)
(-0.002372810009782479 -1.669115479557429e-08 4.038697217097349e-07)
(-0.002369334337166646 3.932916651328438e-08 4.037432476852446e-07)
(-0.002371982428615696 -2.129620080292037e-08 4.040080420298541e-07)
(-0.002372197572003483 1.986479142024389e-08 4.037233008568344e-07)
(-0.002369288832752651 9.200348216475856e-09 4.038808567402985e-07)
(-0.002373719645440669 -4.116682919857597e-08 4.039097639955202e-07)
(-0.002369396821543731 2.303098265451335e-08 4.036925042986673e-07)
(-0.002370976902537872 -3.540370973672957e-08 4.040017382008981e-07)
(-0.00237265802778055 6.442835736515336e-09 4.03755712529669e-07)
(-0.002367956269114091 3.323184223800266e-08 4.03823404317523e-07)
(-0.002373945811694117 -3.09426317070868e-08 4.039987567441666e-07)
(-0.002370180941708351 5.537807864495706e-08 4.036663110939904e-07)
(-0.002370664758550291 -1.429466197769396e-08 4.040067731217269e-07)
(-0.00237420430606192 -1.350658182257597e-08 4.037868375923572e-07)
(-0.002367919758498571 1.863192133906628e-08 4.037612874316063e-07)
(-0.002373469925042514 -6.205770504638433e-08 4.040049048403272e-07)
(-0.002370274055202903 1.906771593427497e-08 4.036505735205371e-07)
(-0.00236901025075687 -9.434932549014517e-09 4.039686531767237e-07)
(-0.002374154661250448 -9.115514615940695e-09 4.038630754387224e-07)
(-0.002367778788203594 6.336949995179071e-08 4.037133976669564e-07)
(-0.002373430459290689 -3.440956679583718e-08 4.040824486549739e-07)
(-0.002371856684236608 4.039154407348439e-08 4.036466893280331e-07)
(-0.002368838977070999 3.736935341695348e-09 4.039131396974344e-07)
(-0.002375048015452413 -5.479340913119345e-08 4.039163746743627e-07)
(-0.002368063428188413 3.460016730090859e-08 4.036342344536363e-07)
(-0.002371847717314809 -6.175591959856517e-08 4.040633113788649e-07)
(-0.002372679178370119 3.439494109284544e-10 4.037388881982552e-07)
(-0.002367239308524746 4.186741767658457e-08 4.038065012837039e-07)
(-0.002374693551521246 -2.557048781714368e-08 4.040343413197285e-07)
(-0.002369549991484761 7.178151830004152e-08 4.036259586847668e-07)
(-0.002370887351893595 -1.805959849681822e-08 4.040141795040663e-07)
(-0.002374729502693611 -2.078744136646517e-08 4.038267618062732e-07)
(-0.002367592063338915 3.138338613772857e-08 4.037017363209801e-07)
(-0.00237338832350252 -7.43959858569503e-08 4.040158666080874e-07)
(-0.002370616361535789 1.063262136941977e-08 4.036993392380358e-07)
(-0.002368336602686159 3.836734167975356e-09 4.038766356051506e-07)
(-0.002374400577683225 -1.606749840229529e-08 4.03959660705894e-07)
(-0.00236808892161993 6.751825540855035e-08 4.036798077889678e-07)
(-0.002372626668247817 -9.603432672759328e-09 4.039977245903811e-07)
(-0.002372958783226506 6.286000086791325e-09 4.038042514113255e-07)
(-0.00236919869010483 1.247301279188241e-08 4.03788726909628e-07)
(-0.002373661714922613 -5.098103696642422e-08 4.039291357437977e-07)
(-0.002369657025358727 -2.481128310371995e-09 4.037651132298938e-07)
(-0.002370455087840149 -1.00658720407139e-08 4.038438290474224e-07)
(-0.002371793972667976 -6.428229130302401e-09 4.03897998831151e-07)
(-0.002369898674028957 2.455765942901194e-08 4.037906689000314e-07)
(-0.00237190173667774 6.019833516182266e-09 4.038864264810958e-07)
(-0.002371420137799091 1.404276033488141e-09 4.038645412985267e-07)
)
;
    }
    left
    {
        type            cyclic;
    }
    right
    {
        type            cyclic;
    }
}


// ************************************************************************* //
