/*--------------------------------*- C++ -*----------------------------------*\
| =========                 |                                                 |
| \\      /  F ield         | OpenFOAM: The Open Source CFD Toolbox           |
|  \\    /   O peration     | Version:  v1812                                 |
|   \\  /    A nd           | Web:      www.OpenFOAM.com                      |
|    \\/     M anipulation  |                                                 |
\*---------------------------------------------------------------------------*/
FoamFile
{
    version     2.0;
    format      ascii;
    class       volScalarField;
    location    "3000";
    object      p;
}
// * * * * * * * * * * * * * * * * * * * * * * * * * * * * * * * * * * * * * //

dimensions      [0 2 -2 0 0 0 0];


internalField   nonuniform List<scalar> 
924
(
-1.355326319971998e-17
-1.07708661961548e-14
-1.931276713818689e-13
-2.475374091854522e-13
-2.371447879010074e-13
-2.3210458733491e-13
-2.253434983564261e-13
-2.115173681118081e-13
-2.038550194038961e-13
-1.871399643615963e-13
-1.818290972611127e-13
-1.855798097917854e-13
-1.780396866529487e-13
-1.782243582375158e-13
-1.908840391819854e-13
-1.794170675561132e-13
-1.818126832179865e-13
-1.910509190065577e-13
-1.884157198535031e-13
-1.75318601487357e-13
-1.841476239145517e-13
-1.726449181876426e-13
-1.709902369166176e-13
-1.715791592471571e-13
-1.666486285821137e-13
-1.547746025734886e-13
-1.616782271262065e-13
-1.469436105856105e-13
-1.499718208055628e-13
-1.480419938019993e-13
-1.518027972145526e-13
-1.404307884976007e-13
-1.60607737126394e-13
-1.385821958466748e-13
-1.489896183341847e-13
-1.523327765545088e-13
-1.55425033845029e-13
-1.414341058868188e-13
-1.608347085201172e-13
-1.613008950913601e-13
-1.356302709213341e-13
-1.501106411118381e-13
-7.217966352733465e-14
-1.2096612388856e-13
1.890126762791267e-15
-1.731564749184923e-14
-1.964445866898797e-13
-2.461038171572103e-13
-2.355656208122969e-13
-2.313444126171306e-13
-2.250162286950529e-13
-2.112918626875826e-13
-2.039168713147877e-13
-1.869368496234906e-13
-1.817272349372612e-13
-1.858586752644353e-13
-1.781222048499398e-13
-1.779080979169822e-13
-1.908785348139276e-13
-1.793603616002978e-13
-1.817828938093945e-13
-1.908523002197373e-13
-1.880465788047618e-13
-1.753172813361548e-13
-1.844304269770708e-13
-1.725936588399932e-13
-1.7125584849274e-13
-1.718476631676283e-13
-1.665838649954262e-13
-1.547541830481612e-13
-1.620706327178001e-13
-1.470209923590078e-13
-1.501062797723312e-13
-1.483003261084608e-13
-1.517172631366103e-13
-1.404513645875871e-13
-1.6091190386722e-13
-1.384883091875035e-13
-1.488399784425333e-13
-1.523877179032959e-13
-1.553352666288107e-13
-1.415076984380994e-13
-1.604575748367389e-13
-1.611373676321745e-13
-1.356416014021728e-13
-1.503137165432319e-13
-7.237489458245905e-14
-1.166920821368058e-13
1.836875758247655e-14
-3.754570749292276e-14
-2.116603568234457e-13
-2.453741087099879e-13
-2.330771601993019e-13
-2.289751408436512e-13
-2.232012014748602e-13
-2.099894402498042e-13
-2.030847307732813e-13
-1.866299774067907e-13
-1.812238015571021e-13
-1.857845942477501e-13
-1.789759693971824e-13
-1.774868739317915e-13
-1.901546946388428e-13
-1.800566620388642e-13
-1.823109101757867e-13
-1.901728454049476e-13
-1.871145638449261e-13
-1.753307695147396e-13
-1.848393712089889e-13
-1.724920791192672e-13
-1.714491339857274e-13
-1.721717136593661e-13
-1.670961311499551e-13
-1.548569409258178e-13
-1.62218531238312e-13
-1.480539108624627e-13
-1.506240585945136e-13
-1.486435907897194e-13
-1.51622090051754e-13
-1.403045910145845e-13
-1.606825776423515e-13
-1.393349098814912e-13
-1.488663415040705e-13
-1.520685857397236e-13
-1.554608447731011e-13
-1.433253231097293e-13
-1.596566611992452e-13
-1.591725638013697e-13
-1.361355067261466e-13
-1.496008612008197e-13
-7.811898826379585e-14
-1.003559025052625e-13
4.642578465804626e-14
-6.606247087558858e-14
-2.347912189259315e-13
-2.456330836112787e-13
-2.314478050090179e-13
-2.265635034734208e-13
-2.2058517863871e-13
-2.080084513059522e-13
-2.014647320660945e-13
-1.865051108655024e-13
-1.805797549147761e-13
-1.850694834249472e-13
-1.800899271313624e-13
-1.772030171646654e-13
-1.890517797058104e-13
-1.812667438644596e-13
-1.82955096855844e-13
-1.89162688084154e-13
-1.867041497369332e-13
-1.754429651746072e-13
-1.848391588906955e-13
-1.726691142676846e-13
-1.7163640258674e-13
-1.721519371614979e-13
-1.682652066404668e-13
-1.552355735947774e-13
-1.619796591255825e-13
-1.497650865365042e-13
-1.512387332737604e-13
-1.485477916662098e-13
-1.518132113271282e-13
-1.401975237637941e-13
-1.598459582567355e-13
-1.406891533547995e-13
-1.488895097987669e-13
-1.514076381458956e-13
-1.558374609732695e-13
-1.462348511667491e-13
-1.591318178612494e-13
-1.564306709571384e-13
-1.373213826322878e-13
-1.483194276643748e-13
-8.698939623722196e-14
-7.506585509403913e-14
8.592979021326671e-14
-9.710095018756325e-14
-2.634905572950197e-13
-2.447890623817953e-13
-2.297936479376956e-13
-2.257835096196691e-13
-2.184244590486203e-13
-2.06019921310247e-13
-1.99673423529806e-13
-1.868415777707431e-13
-1.803985419816108e-13
-1.838057742537876e-13
-1.810144514665179e-13
-1.773327876382187e-13
-1.878048591889895e-13
-1.824319780298349e-13
-1.834951957452256e-13
-1.879103753043269e-13
-1.868730388113439e-13
-1.758376138175174e-13
-1.841772162504173e-13
-1.733706871601171e-13
-1.722986396447146e-13
-1.715122195731384e-13
-1.694340803649438e-13
-1.56033802555953e-13
-1.614266890793211e-13
-1.516362459836653e-13
-1.518452563215592e-13
-1.477816902663827e-13
-1.521219706380519e-13
-1.407600028620944e-13
-1.585795136076055e-13
-1.418888216974005e-13
-1.491509315062863e-13
-1.505764236532909e-13
-1.566646714918826e-13
-1.487239194471957e-13
-1.593430865880816e-13
-1.548583729779555e-13
-1.404851710613976e-13
-1.459062055189467e-13
-9.823108494046261e-14
-4.660175447622717e-14
1.494977664256158e-13
-1.346297105799382e-13
-3.066912822433258e-13
-2.428445823886364e-13
-2.261443995591816e-13
-2.257038790753308e-13
-2.167475556459416e-13
-2.037248195311179e-13
-1.971603328855634e-13
-1.880619640756593e-13
-1.805733593481733e-13
-1.813157401641573e-13
-1.823897603309401e-13
-1.780837938446094e-13
-1.856715878516708e-13
-1.839826403758074e-13
-1.842242688474606e-13
-1.857169182646353e-13
-1.872044490586176e-13
-1.766412526730887e-13
-1.826590253672121e-13
-1.747094730262296e-13
-1.736999978869573e-13
-1.699285208161997e-13
-1.708953217071831e-13
-1.575197455963772e-13
-1.602139984393016e-13
-1.543715328575562e-13
-1.526921047706959e-13
-1.458959059891817e-13
-1.526597850340153e-13
-1.422454250688585e-13
-1.561326972037039e-13
-1.434626911608262e-13
-1.505651032227516e-13
-1.487795755641082e-13
-1.585077126774861e-13
-1.513882187415771e-13
-1.592035876950457e-13
-1.546544290360075e-13
-1.475589526581601e-13
-1.420828521449018e-13
-1.163522493693923e-13
-1.155569375057228e-14
2.464586071421829e-13
-1.815901050856026e-13
-3.727086866194059e-13
-2.406686556365303e-13
-2.194523391201735e-13
-2.232717529329316e-13
-2.133903182646282e-13
-2.009814634566233e-13
-1.917437735082438e-13
-1.891830932649448e-13
-1.815296794556535e-13
-1.760373465831817e-13
-1.843668751505967e-13
-1.80201110041988e-13
-1.808648289988371e-13
-1.862029390823284e-13
-1.862728712172443e-13
-1.816872699598017e-13
-1.872242124112381e-13
-1.784689404948092e-13
-1.798979481787856e-13
-1.766473524715886e-13
-1.75997038535618e-13
-1.682579609389998e-13
-1.720670278782726e-13
-1.618440725510973e-13
-1.607036262133499e-13
-1.574236073809463e-13
-1.53942659433624e-13
-1.413581783970078e-13
-1.527743014532907e-13
-1.450592243011322e-13
-1.517884599955579e-13
-1.452096164191141e-13
-1.548304341947101e-13
-1.461782634760779e-13
-1.607442121734575e-13
-1.558720389122535e-13
-1.589286116566414e-13
-1.542549172172131e-13
-1.615464133155671e-13
-1.373637498704603e-13
-1.435711053410112e-13
3.088498413160113e-14
3.451009937824043e-13
-2.247083619512664e-13
-4.373226190029856e-13
-2.386526286127785e-13
-2.129533542573351e-13
-2.161851061549526e-13
-2.071531615998437e-13
-1.951768020795893e-13
-1.872107502966567e-13
-1.87824991711723e-13
-1.820954380343994e-13
-1.756292210016004e-13
-1.808546929213435e-13
-1.826268016400408e-13
-1.797869814303357e-13
-1.818094805207136e-13
-1.846126861715129e-13
-1.805913678614625e-13
-1.865970237204486e-13
-1.811390791283285e-13
-1.799590641527603e-13
-1.784558592044753e-13
-1.758438772197127e-13
-1.66695516836261e-13
-1.712836373238026e-13
-1.667690251396141e-13
-1.62420307842047e-13
-1.538082317516202e-13
-1.546865807331788e-13
-1.436813549049452e-13
-1.54148195444093e-13
-1.470851181061769e-13
-1.499441478974144e-13
-1.471036960536443e-13
-1.542036276313363e-13
-1.469012305244456e-13
-1.634783601496534e-13
-1.539990360773164e-13
-1.65109956330194e-13
-1.554277716594905e-13
-1.778331074048482e-13
-1.388243242723361e-13
-1.746366465941558e-13
6.689812325889995e-14
3.724872256446985e-13
-2.39329007143787e-13
-4.564084343342378e-13
-2.278341446267215e-13
-1.974557712340796e-13
-2.008888593253988e-13
-1.931073040817101e-13
-1.846484925949981e-13
-1.813436386907145e-13
-1.808473556784084e-13
-1.790308161423286e-13
-1.775543697985467e-13
-1.779722016829254e-13
-1.784014775661157e-13
-1.792169344394076e-13
-1.794277175224187e-13
-1.827408557574048e-13
-1.837760482042045e-13
-1.85983422777822e-13
-1.821360975734812e-13
-1.779526370813829e-13
-1.788551128896434e-13
-1.777118279438596e-13
-1.686418397166819e-13
-1.718864267899342e-13
-1.660203250471494e-13
-1.622241476297221e-13
-1.533169825933338e-13
-1.567216805960011e-13
-1.527730770935871e-13
-1.578168237170683e-13
-1.478149693252101e-13
-1.499233303243214e-13
-1.493864094275796e-13
-1.523175221186893e-13
-1.526400984745868e-13
-1.650524850718012e-13
-1.485579343054792e-13
-1.735040680269263e-13
-1.615621411275293e-13
-1.924376152909071e-13
-1.474183213402669e-13
-1.97454259867438e-13
6.627494865015117e-14
2.736628496854551e-13
-2.148015160071804e-13
-3.936198773025725e-13
-1.9873654239559e-13
-1.709659727466071e-13
-1.79173716661337e-13
-1.749789459947355e-13
-1.731060454882339e-13
-1.72400741836634e-13
-1.73250329008224e-13
-1.746194169596094e-13
-1.725503234751555e-13
-1.752011742234135e-13
-1.745467204298054e-13
-1.772389310456059e-13
-1.821652864054558e-13
-1.832362011294873e-13
-1.804969960859004e-13
-1.850570842212224e-13
-1.840898214770573e-13
-1.776027810062305e-13
-1.806017628965145e-13
-1.800394701410751e-13
-1.733162108753724e-13
-1.732930805819388e-13
-1.661561976010989e-13
-1.626908282106103e-13
-1.581771048119279e-13
-1.585572374324472e-13
-1.552879249002637e-13
-1.571459405669599e-13
-1.514496105054353e-13
-1.507921299403133e-13
-1.545689429187009e-13
-1.587434011692646e-13
-1.540737787102009e-13
-1.653563682498625e-13
-1.564649748981794e-13
-1.737721387708393e-13
-1.657721399750511e-13
-2.009603522763457e-13
-1.5555697282294e-13
-2.023852390476817e-13
9.63713085864059e-15
4.924453531971979e-14
-1.341509730767053e-13
-2.125682468183869e-13
-1.355745860737681e-13
-1.352064676287864e-13
-1.512547874543448e-13
-1.579075550759383e-13
-1.62935614289734e-13
-1.684307496684567e-13
-1.725039715012437e-13
-1.771582771763612e-13
-1.787927028519172e-13
-1.80619965620574e-13
-1.815617134182094e-13
-1.820782126253603e-13
-1.847158474582719e-13
-1.862258071647763e-13
-1.842248602440951e-13
-1.867926174612422e-13
-1.879043893744948e-13
-1.831114026574997e-13
-1.839593081953724e-13
-1.804054132449384e-13
-1.766130024774111e-13
-1.748641425796384e-13
-1.706490445731667e-13
-1.646617260071222e-13
-1.610685516437754e-13
-1.590872771930345e-13
-1.579368878414209e-13
-1.558573689827419e-13
-1.563271393944346e-13
-1.544509470518266e-13
-1.598276029706021e-13
-1.592696028717206e-13
-1.569973532153058e-13
-1.674903159158465e-13
-1.661048433829576e-13
-1.747178323449214e-13
-1.75173193356061e-13
-1.941117021246495e-13
-1.69910145094217e-13
-1.888530715766624e-13
-8.589987790807327e-14
-2.815425970201185e-13
-1.114295247196386e-13
-3.17434105441651e-14
-7.845676157836253e-14
-1.008104882373078e-13
-1.194335062934008e-13
-1.345269293766294e-13
-1.462761398792037e-13
-1.546640514242877e-13
-1.608174566719494e-13
-1.660724272249241e-13
-1.682570610109148e-13
-1.722103607413103e-13
-1.756439206609932e-13
-1.767413673944942e-13
-1.797928835654013e-13
-1.801377909617716e-13
-1.817824635927042e-13
-1.814147934288293e-13
-1.838200384078969e-13
-1.807780592428975e-13
-1.802207625464055e-13
-1.77298879300203e-13
-1.756190065252582e-13
-1.709171266522879e-13
-1.694275991460358e-13
-1.627714713494073e-13
-1.615144762603818e-13
-1.564959764046829e-13
-1.590874860154213e-13
-1.54576000307804e-13
-1.588356706184715e-13
-1.538379127062189e-13
-1.598466767283212e-13
-1.571690538882616e-13
-1.610243323894748e-13
-1.653124747512884e-13
-1.73328916060384e-13
-1.746281511372247e-13
-1.848772746643017e-13
-1.833807937622751e-13
-1.842745357283764e-13
-1.777146475185128e-13
-2.202608335756544e-13
-5.174350653660716e-13
-6.477748610530045e-14
1.257328952035016e-13
-1.994357685322841e-14
-6.80869225498319e-14
-9.102801518810079e-14
-1.1610493488768e-13
-1.367783956699348e-13
-1.480474494115332e-13
-1.552428073811443e-13
-1.643105487515427e-13
-1.685799833620006e-13
-1.698937842907482e-13
-1.761828458595223e-13
-1.786146641298432e-13
-1.815939696264604e-13
-1.794089646979553e-13
-1.813839146350128e-13
-1.80049392928562e-13
-1.829504884721601e-13
-1.802094765014644e-13
-1.811351101530601e-13
-1.775479464722299e-13
-1.768521115211203e-13
-1.663828243499282e-13
-1.661084365926908e-13
-1.596956609048238e-13
-1.624436321081424e-13
-1.552308243307082e-13
-1.593883707984772e-13
-1.539297155085542e-13
-1.624685435976548e-13
-1.537054335265569e-13
-1.614133430788375e-13
-1.542223736491233e-13
-1.641187115750971e-13
-1.633140037965821e-13
-1.794052720683631e-13
-1.743093944871131e-13
-1.948269096982261e-13
-1.789122215279064e-13
-2.006359143363061e-13
-1.81232791791181e-13
-3.268138071367508e-13
-6.358891634713043e-13
-4.456655805911149e-14
2.110093048492197e-13
2.813356107136642e-14
-4.080257554008487e-14
-6.959253150093526e-14
-1.0179702456761e-13
-1.308629155882701e-13
-1.440338185797459e-13
-1.532310678966439e-13
-1.620874454674051e-13
-1.684751005334918e-13
-1.682373383262243e-13
-1.772014080640906e-13
-1.800130724647295e-13
-1.819885696171426e-13
-1.811153626763035e-13
-1.820766516295314e-13
-1.802374814718822e-13
-1.855257101827281e-13
-1.80089346381029e-13
-1.809996946341658e-13
-1.775984818822236e-13
-1.778535023839321e-13
-1.661884927439516e-13
-1.656246442870525e-13
-1.572123059948771e-13
-1.628737286533223e-13
-1.540113274568968e-13
-1.618237756659751e-13
-1.536676060515902e-13
-1.638293851369827e-13
-1.530715166705708e-13
-1.626216321244626e-13
-1.512268491926024e-13
-1.676175653713658e-13
-1.604750613942028e-13
-1.818544003131333e-13
-1.766508958176851e-13
-2.042723101926951e-13
-1.818097844493866e-13
-2.152320155761543e-13
-2.001059360397268e-13
-3.842515529378091e-13
-6.690602332453461e-13
-4.783122436368462e-14
2.417068352653901e-13
6.816436169551141e-14
-1.467606178642024e-14
-5.320580743008998e-14
-9.451370921263875e-14
-1.270545770479313e-13
-1.402098469821017e-13
-1.530377623853989e-13
-1.606785837677812e-13
-1.673805828908587e-13
-1.684399577545664e-13
-1.782738406271999e-13
-1.811492389964611e-13
-1.830505953400341e-13
-1.839349593525974e-13
-1.82972707083397e-13
-1.809090666201906e-13
-1.893495314836652e-13
-1.796074555043564e-13
-1.81570131629199e-13
-1.778257005151994e-13
-1.796129472369235e-13
-1.681331887878349e-13
-1.647047804072716e-13
-1.567732276638677e-13
-1.633845761698649e-13
-1.52752220877151e-13
-1.646907232494751e-13
-1.539697595695411e-13
-1.655275469111913e-13
-1.538667391673241e-13
-1.639167829411355e-13
-1.490534909853149e-13
-1.688632662682694e-13
-1.592696029971371e-13
-1.860804821839801e-13
-1.798040871067305e-13
-2.108286814273666e-13
-1.872034629360402e-13
-2.256064093992634e-13
-2.251284589397003e-13
-4.055440336990101e-13
-6.660414741200578e-13
-6.012103216026365e-14
2.459766479374882e-13
9.465339737529618e-14
1.654744959967895e-15
-4.232545980024518e-14
-8.936769933222931e-14
-1.25828504225281e-13
-1.399047355613189e-13
-1.545877120656494e-13
-1.596161265161932e-13
-1.663150928284093e-13
-1.699734708871687e-13
-1.777526456249451e-13
-1.814761959349661e-13
-1.83806331417748e-13
-1.850064460613163e-13
-1.8370850110456e-13
-1.822771446034709e-13
-1.915898995339431e-13
-1.798644199351772e-13
-1.838489319801863e-13
-1.780832467518301e-13
-1.799861262610569e-13
-1.691273659921815e-13
-1.656155598180536e-13
-1.582042882090744e-13
-1.626105739858766e-13
-1.509305491545276e-13
-1.65492833584814e-13
-1.5547510642038e-13
-1.690764824747709e-13
-1.524249312831024e-13
-1.6442868119978e-13
-1.487198283661889e-13
-1.683435159085008e-13
-1.58788702174838e-13
-1.888419567665923e-13
-1.814257108588166e-13
-2.141786332300042e-13
-1.912521856388548e-13
-2.331960744777008e-13
-2.449488908258913e-13
-4.072948485981714e-13
-6.590930216643873e-13
-7.390993061214542e-14
2.469224577908096e-13
1.120395734111296e-13
1.104807212426129e-14
-3.648755239821344e-14
-8.643834775419972e-14
-1.242522869427527e-13
-1.404201528413198e-13
-1.569067207186436e-13
-1.588912614729892e-13
-1.65712905435453e-13
-1.710782232112536e-13
-1.777445691460231e-13
-1.814766082229997e-13
-1.840621687868222e-13
-1.858987377649405e-13
-1.844817045169094e-13
-1.838488860581846e-13
-1.928345648350033e-13
-1.811053887124696e-13
-1.84888261740843e-13
-1.785572024188924e-13
-1.802780664263814e-13
-1.701644256034319e-13
-1.675920078198292e-13
-1.583733222837206e-13
-1.61072931927168e-13
-1.497840070435346e-13
-1.664450469077995e-13
-1.572684007245845e-13
-1.715985686451216e-13
-1.505393399252535e-13
-1.642861510642707e-13
-1.486768680397161e-13
-1.678576908066947e-13
-1.581896216575069e-13
-1.908217413254836e-13
-1.830758019260013e-13
-2.152370794828914e-13
-1.928946112201811e-13
-2.376998874592732e-13
-2.575049387860823e-13
-4.020857277678438e-13
-6.558302987853688e-13
-8.798187596759906e-14
2.506970821691405e-13
1.261998074323469e-13
1.804431270845299e-14
-3.437100202844171e-14
-8.686714268047926e-14
-1.229483823044312e-13
-1.408725698492063e-13
-1.589282682706595e-13
-1.591514065043943e-13
-1.655788791954425e-13
-1.714414333819568e-13
-1.784339658175169e-13
-1.811404987517484e-13
-1.841031420328755e-13
-1.867032340181664e-13
-1.848479772175234e-13
-1.853352333278242e-13
-1.935784918441613e-13
-1.823078334324566e-13
-1.856709306368525e-13
-1.791742771415511e-13
-1.80529015749123e-13
-1.707285789364854e-13
-1.688694731623771e-13
-1.581841665597917e-13
-1.597602933158571e-13
-1.49573142480515e-13
-1.671958743237038e-13
-1.585207728832782e-13
-1.730855913158027e-13
-1.491243287356876e-13
-1.639077099874949e-13
-1.48656928105151e-13
-1.669970543148267e-13
-1.568354881363881e-13
-1.927682649802596e-13
-1.84580985180276e-13
-2.15923930076153e-13
-1.938402764380436e-13
-2.397032151264957e-13
-2.651413763012347e-13
-3.952349795494053e-13
-6.568321737807481e-13
-1.018604693185269e-13
2.583416172878976e-13
1.401763472955717e-13
2.336758337893956e-14
-3.426624244383814e-14
-8.866115508621726e-14
-1.226736972323675e-13
-1.416671841732468e-13
-1.606223593561313e-13
-1.600545927347137e-13
-1.655107865413886e-13
-1.713400937809687e-13
-1.791774439724858e-13
-1.80858162205337e-13
-1.844714945259753e-13
-1.875877038582547e-13
-1.848237007154263e-13
-1.867039070290588e-13
-1.942750080997563e-13
-1.826614262336089e-13
-1.864508242172394e-13
-1.801746021859358e-13
-1.808384029942549e-13
-1.709177282224123e-13
-1.693437864636631e-13
-1.581135922453382e-13
-1.584145440767001e-13
-1.495721906207317e-13
-1.678821317783279e-13
-1.594321255583135e-13
-1.741635576616889e-13
-1.483050055738958e-13
-1.637066448699262e-13
-1.484831325736143e-13
-1.652564211970261e-13
-1.546493316965445e-13
-1.947492762574709e-13
-1.865658418806619e-13
-2.171600130222333e-13
-1.946278423917392e-13
-2.411259883864494e-13
-2.697566810525681e-13
-3.876399453006462e-13
-6.577794424552563e-13
-1.176194563247023e-13
2.63765169759213e-13
1.510934883299613e-13
2.630888227206085e-14
-3.470840500356062e-14
-8.995334490593439e-14
-1.231083022530287e-13
-1.422922649361691e-13
-1.616206969623687e-13
-1.607942399669513e-13
-1.653891591187501e-13
-1.713636846978294e-13
-1.795622579904393e-13
-1.806868226269953e-13
-1.84817845095809e-13
-1.87980274335038e-13
-1.846972109022227e-13
-1.874506040758974e-13
-1.947581497042309e-13
-1.824708371718768e-13
-1.868784600639543e-13
-1.809152918397809e-13
-1.811049708186448e-13
-1.70871123360841e-13
-1.692198355425323e-13
-1.579836600852744e-13
-1.575655264425823e-13
-1.495624476783824e-13
-1.68391265725991e-13
-1.598907107301348e-13
-1.74783409321836e-13
-1.480440724088725e-13
-1.636839030665318e-13
-1.479880988931302e-13
-1.639197936503651e-13
-1.531387720946162e-13
-1.961264940046495e-13
-1.878401572197216e-13
-2.182930792352021e-13
-1.949772227526797e-13
-2.420436505793888e-13
-2.733329210628119e-13
-3.770690453410722e-13
-6.531810333670617e-13
-1.233876062617203e-13
2.626016603901822e-13
1.533355158110626e-13
2.648808486965841e-14
-3.497307137462377e-14
-9.0161979249382e-14
-1.233210117949451e-13
-1.424042482499347e-13
-1.61676379343169e-13
-1.609899631472711e-13
-1.65330202979971e-13
-1.714847650372577e-13
-1.796450423052565e-13
-1.806511046408417e-13
-1.848212406843559e-13
-1.877568896221731e-13
-1.847192925423575e-13
-1.876000894447788e-13
-1.945917806027265e-13
-1.825041535468667e-13
-1.869551652221009e-13
-1.809995209676771e-13
-1.810486459439139e-13
-1.707628490130466e-13
-1.689768197241313e-13
-1.578189654381793e-13
-1.574807710129669e-13
-1.49835350847756e-13
-1.685063379954108e-13
-1.600225850723038e-13
-1.746969851303036e-13
-1.481601995117289e-13
-1.63467106347646e-13
-1.476863703671978e-13
-1.637734490202163e-13
-1.535252943554182e-13
-1.963575390269455e-13
-1.879928260062422e-13
-2.182826861756271e-13
-1.951116085414815e-13
-2.422973762810973e-13
-2.756206684365829e-13
-3.732934580378678e-13
)
;

boundaryField
{
    inlet
    {
        type            cyclic;
    }
    outlet
    {
        type            cyclic;
    }
    bottomWall
    {
        type            zeroGradient;
    }
    topWall
    {
        type            zeroGradient;
    }
    left
    {
        type            cyclic;
    }
    right
    {
        type            cyclic;
    }
}


// ************************************************************************* //
