/*--------------------------------*- C++ -*----------------------------------*\
| =========                 |                                                 |
| \\      /  F ield         | OpenFOAM: The Open Source CFD Toolbox           |
|  \\    /   O peration     | Version:  v1812                                 |
|   \\  /    A nd           | Web:      www.OpenFOAM.com                      |
|    \\/     M anipulation  |                                                 |
\*---------------------------------------------------------------------------*/
FoamFile
{
    version     2.0;
    format      ascii;
    class       surfaceScalarField;
    location    "3000";
    object      phi;
}
// * * * * * * * * * * * * * * * * * * * * * * * * * * * * * * * * * * * * * //

dimensions      [0 3 -1 0 0 0 0];
oriented        oriented;


internalField   nonuniform List<scalar> 
1783
(
0.0007968347962817152
-4.298154396727367e-15
0.0007968347962842447
-2.535138260051637e-15
0.0007968347962824094
1.830858223396433e-15
0.0007968347962811001
1.302935774063153e-15
0.0007968347962805613
5.558601354264547e-16
0.0007968347962802281
3.533459466360355e-16
0.0007968347962801017
1.06882177064528e-16
0.0007968347962800631
2.706057407165817e-17
0.0007968347962800168
4.777457843211599e-17
0.000796834796280103
-9.015758011758319e-17
0.0007968347962801846
-8.508973594648706e-17
0.0007968347962801458
3.427026814937257e-17
0.0007968347962801417
2.579047930780316e-18
0.0007968347962801944
-5.350431197848343e-17
0.0007968347962800729
1.190158073592681e-16
0.0007968347962800604
3.859779933611893e-18
0.0007968347962799432
1.309839164653872e-16
0.0007968347962797969
1.608381359566531e-16
0.0007968347962798027
-1.722135517869239e-17
0.0007968347962799745
-1.729208609530913e-16
0.0007968347962798271
1.448966449276494e-16
0.0007968347962798745
-5.738709999142454e-17
0.0007968347962798866
-2.333538114266694e-18
0.0007968347962799356
-4.895563409231705e-17
0.0007968347962799715
-3.432593674493969e-17
0.0007968347962801748
-2.026293198734304e-16
0.0007968347962801598
1.903700352061534e-17
0.000796834796280352
-1.871389591621849e-16
0.0007968347962803316
1.738395376928719e-17
0.0007968347962804199
-8.990551343972731e-17
0.0007968347962803815
3.700544974762594e-17
0.0007968347962806942
-3.166657017205249e-16
0.0007968347962804133
2.898246814273485e-16
0.0007968347962806924
-2.689983780812081e-16
0.0007968347962805051
1.869576343803919e-16
0.0007968347962805255
-1.672371755415853e-17
0.0007968347962802142
3.160196511442126e-16
0.0007968347962803812
-1.574592639561775e-16
0.0007968347962798122
5.682110736016802e-16
0.0007968347962798886
-6.646508208920699e-17
0.0007968347962796893
1.945025900703908e-16
0.0007968347962790885
6.007348502656067e-16
0.0007968347962792091
-1.239239049360159e-16
1.777957654064031e-15
0.002011163715990621
-8.885380434192258e-15
0.002011163715993756
-5.67442787600088e-15
0.002011163715992678
2.906711261470188e-15
0.002011163715991418
2.560444107098993e-15
0.002011163715990437
1.544800606629515e-15
0.002011163715989787
1.014538018978317e-15
0.002011163715989547
3.37914558202658e-16
0.002011163715989357
2.104916394280003e-16
0.002011163715989388
1.666048231962911e-17
0.002011163715989376
-8.032037614226245e-17
0.002011163715989376
-8.667309559433181e-17
0.002011163715989439
-3.191469171264715e-17
0.002011163715989439
2.143281790513327e-18
0.002011163715989274
1.109479695891289e-16
0.002011163715989271
1.206406666223621e-16
0.002011163715989114
1.575782449793724e-16
0.002011163715988884
3.668223291090049e-16
0.002011163715988781
2.712520070026988e-16
0.002011163715988792
-3.324336547473494e-17
0.002011163715988803
-1.845976309553782e-16
0.002011163715988815
1.317030372575089e-16
0.002011163715988924
-1.722997806006598e-16
0.002011163715989076
-1.499488296261289e-16
0.002011163715989235
-2.073986155108007e-16
0.002011163715989285
-8.461783646314909e-17
0.002011163715989399
-3.15662835411282e-16
0.002011163715989662
-2.429016400943991e-16
0.002011163715989864
-3.873861901398947e-16
0.002011163715989918
-3.803661437966901e-17
0.002011163715990083
-2.562307582240072e-16
0.002011163715990149
-2.952536756159373e-17
0.002011163715990379
-5.495265713983759e-16
0.002011163715990407
2.66826092426269e-16
0.002011163715990576
-4.336327744348024e-16
0.002011163715990283
4.800617006310888e-16
0.002011163715990364
-9.494302807636338e-17
0.002011163715990021
6.619334688447416e-16
0.002011163715989989
-1.20685915725483e-16
0.002011163715989232
1.325188551715742e-15
0.002011163715989484
-3.135200034372053e-16
0.002011163715988864
8.119445084303774e-16
0.002011163715988683
7.823326224183619e-16
0.002011163715987969
5.886601871867183e-16
3.710737085084217e-15
0.002611387194443749
-1.057320198319055e-14
0.002611387194445599
-7.526333318229867e-15
0.00261138719444561
2.894172487732612e-15
0.0026113871944453
2.868359240256068e-15
0.002611387194444949
1.900694910818076e-15
0.002611387194444495
1.47448889958013e-15
0.0026113871944442
6.274580851008889e-16
0.002611387194443933
4.744477775280126e-16
0.002611387194443831
1.18229099261245e-16
0.002611387194443742
8.138283460450399e-18
0.002611387194443667
-1.210373133934926e-17
0.002611387194443637
-3.930382351631043e-18
0.002611387194443698
-5.998776945865734e-17
0.002611387194443563
2.463165299406248e-16
0.002611387194443501
1.817749833852265e-16
0.002611387194443432
2.244695370702706e-16
0.00261138719444337
4.311121147777399e-16
0.002611387194443356
2.898820078517076e-16
0.002611387194443347
-2.780201247676988e-17
0.002611387194443301
-1.387786106683591e-16
0.002611387194443387
4.482517179040703e-17
0.002611387194443454
-2.419903331884555e-16
0.002611387194443537
-2.300619480869295e-16
0.002611387194443674
-3.443235262932141e-16
0.002611387194443816
-2.259098520857553e-16
0.002611387194443936
-4.353878170211937e-16
0.002611387194444131
-4.367660483662606e-16
0.002611387194444362
-6.160844139337735e-16
0.002611387194444484
-1.608140882804461e-16
0.002611387194444684
-4.559167999302317e-16
0.002611387194444799
-1.452534070638778e-16
0.002611387194444896
-6.476392935155782e-16
0.002611387194444878
2.875175896518593e-16
0.00261138719444508
-6.324233867557903e-16
0.002611387194444901
6.581703762256987e-16
0.002611387194444952
-1.443670307725287e-16
0.002611387194444768
8.479286487889718e-16
0.002611387194444813
-1.631146640640349e-16
0.002611387194444361
1.777095085463983e-15
0.002611387194444333
-2.833116172944466e-16
0.002611387194443843
1.301010291169391e-15
0.0026113871944435
1.125728313061181e-15
0.002611387194443269
8.183741810254367e-16
4.917871202308994e-15
0.003099774552444181
-1.054552733089384e-14
0.003099774552445319
-8.664810749279421e-15
0.003099774552445711
2.500165717833828e-15
0.003099774552445788
2.790329096463101e-15
0.003099774552445866
1.824458268700543e-15
0.003099774552445644
1.701463979934939e-15
0.003099774552445387
8.81005779404753e-16
0.003099774552445156
7.046533340408476e-16
0.003099774552445009
2.64714568290197e-16
0.003099774552444905
1.11982393774154e-16
0.003099774552444829
6.320394897857782e-17
0.003099774552444775
4.921100570578512e-17
0.003099774552444842
-1.278339240321304e-16
0.003099774552444757
3.316219779325713e-16
0.003099774552444714
2.243856369946392e-16
0.003099774552444699
2.369227525175773e-16
0.003099774552444718
4.125140664026345e-16
0.003099774552444751
2.60649202120387e-16
0.003099774552444798
-7.618425112822043e-17
0.003099774552444777
-1.189132275264535e-16
0.003099774552444869
-4.688011246959229e-17
0.003099774552444916
-2.903509109259186e-16
0.003099774552444969
-2.81013232494768e-16
0.003099774552445069
-4.442996831708282e-16
0.003099774552445233
-3.894320538316514e-16
0.003099774552445362
-5.64028109670547e-16
0.003099774552445503
-5.755548628919096e-16
0.00309977455244571
-8.216421967384753e-16
0.003099774552445837
-2.876491428523709e-16
0.003099774552446021
-6.386070462243498e-16
0.003099774552446154
-2.791460996401184e-16
0.003099774552446227
-7.209970847590287e-16
0.003099774552446217
2.991130584454346e-16
0.0030997745524464
-8.137288658135148e-16
0.003099774552446287
7.714879761588179e-16
0.003099774552446353
-2.100503824314791e-16
0.003099774552446248
9.545879409859668e-16
0.003099774552446305
-2.186064377152356e-16
0.00309977455244616
1.921471781466239e-15
0.003099774552445977
-9.889369932960972e-17
0.003099774552445643
1.634561406101941e-15
0.003099774552445215
1.553308245545803e-15
0.003099774552445155
8.792531155364106e-16
5.863809219378748e-15
0.004250553998347163
-9.416945784811687e-15
0.004250553998347637
-9.140765875410632e-15
0.004250553998348026
2.109833146565549e-15
0.00425055399834812
2.696201206168004e-15
0.004250553998348351
1.596209462527175e-15
0.004250553998348343
1.712097192603381e-15
0.004250553998348176
1.047132984487223e-15
0.004250553998348006
8.718018855532259e-16
0.004250553998347899
3.718249219579396e-16
0.004250553998347828
1.827872706608434e-16
0.004250553998347811
7.878567937845534e-17
0.004250553998347788
7.119051623150361e-17
0.004250553998347857
-1.983927653771582e-16
0.004250553998347823
3.661031933409242e-16
0.004250553998347836
2.101810405498387e-16
0.004250553998347865
2.066605377120348e-16
0.004250553998347941
3.366282085458961e-16
0.004250553998348002
2.034497259398827e-16
0.004250553998348118
-1.932783313054634e-16
0.00425055399834816
-1.627795275060531e-16
0.004250553998348265
-1.521818994216173e-16
0.004250553998348325
-3.510956998834893e-16
0.004250553998348403
-3.57603345884621e-16
0.004250553998348485
-5.2624434924787e-16
0.004250553998348656
-5.585612934443636e-16
0.004250553998348817
-7.250963495041597e-16
0.004250553998348928
-6.845796100686828e-16
0.004250553998349109
-1.000456139950484e-15
0.004250553998349251
-4.301887386836754e-16
0.004250553998349436
-8.227672280543606e-16
0.004250553998349597
-4.415724029900347e-16
0.004250553998349713
-8.365540443338859e-16
0.004250553998349748
2.649094740497346e-16
0.004250553998349902
-9.657791695928533e-16
0.00425055399834984
8.342368354023218e-16
0.004250553998349935
-3.038449856142132e-16
0.004250553998349904
9.855476146535043e-16
0.004250553998349898
-2.108521245683397e-16
0.004250553998349962
1.858977568890074e-15
0.004250553998349766
9.696485067895257e-17
0.004250553998349586
1.813003954077922e-15
0.004250553998349096
2.043152213541608e-15
0.004250553998349026
9.502000062735346e-16
6.598435846385939e-15
0.007170375697835499
-6.934403539366167e-15
0.007170375697834387
-8.030049835390033e-15
0.007170375697834491
2.005326263570139e-15
0.007170375697834411
2.776488223031245e-15
0.007170375697834449
1.560132027720657e-15
0.00717037569783454
1.624936650801882e-15
0.007170375697834543
1.04225380056692e-15
0.007170375697834513
8.999805265981797e-16
0.007170375697834541
3.418821412688544e-16
0.007170375697834565
1.58392501511824e-16
0.007170375697834687
-4.385427982066286e-17
0.007170375697834754
2.757436647090331e-18
0.007170375697834876
-3.222847734806898e-16
0.007170375697834966
2.747099442969305e-16
0.007170375697835091
8.456522780233613e-17
0.007170375697835189
1.07748777812817e-16
0.007170375697835441
8.413863141738843e-17
0.007170375697835567
8.181069362185604e-17
0.007170375697835753
-3.798694641921206e-16
0.007170375697835897
-3.098956087909106e-16
0.007170375697836071
-3.266682456716685e-16
0.007170375697836153
-4.351247853191204e-16
0.007170375697836348
-5.49759619724377e-16
0.007170375697836451
-6.278860897167839e-16
0.007170375697836665
-7.710776731682641e-16
0.007170375697836922
-9.81692196994874e-16
0.007170375697836987
-7.477945487268924e-16
0.007170375697837189
-1.200434186393586e-15
0.007170375697837419
-6.60317460235075e-16
0.007170375697837662
-1.063710363902865e-15
0.007170375697837881
-6.611772958731422e-16
0.007170375697838037
-9.930392682992819e-16
0.007170375697838184
1.19757047474568e-16
0.007170375697838289
-1.069474600112375e-15
0.007170375697838361
7.627724548521714e-16
0.007170375697838479
-4.192639679377465e-16
0.00717037569783858
8.859623138864338e-16
0.007170375697838532
-1.616591092307782e-16
0.007170375697838709
1.681963608752203e-15
0.007170375697838519
2.871087990750566e-16
0.007170375697838574
1.756390929133481e-15
0.007170375697838191
2.428096196717114e-15
0.007170375697838073
1.068467863259734e-15
6.68939960764441e-15
0.01199217590008282
-2.884392690910602e-15
0.01199217590007899
-4.203924484093742e-15
0.01199217590007852
2.477113195395376e-15
0.01199217590007816
3.130760857655115e-15
0.01199217590007775
1.974175610144018e-15
0.01199217590007759
1.791888609769032e-15
0.01199217590007752
1.106921479715157e-15
0.0119921759000777
7.231061902265512e-16
0.01199217590007783
2.075392690031705e-16
0.01199217590007798
1.059637129836706e-17
0.01199217590007834
-4.05282060784793e-16
0.0119921759000785
-1.573772597291525e-16
0.01199217590007878
-6.08183950900727e-16
0.01199217590007918
-1.2082858183456e-16
0.01199217590007947
-2.045866966935428e-16
0.01199217590007984
-2.631773596276927e-16
0.01199217590008054
-6.17640818622211e-16
0.01199217590008079
-1.667667255066021e-16
0.01199217590008108
-6.733007770426333e-16
0.01199217590008128
-5.102570540294094e-16
0.01199217590008152
-5.712553579524299e-16
0.01199217590008177
-6.769249280543598e-16
0.01199217590008215
-9.291627682881204e-16
0.0119921759000824
-8.752186268949622e-16
0.01199217590008271
-1.081871542512903e-15
0.01199217590008303
-1.307871409258009e-15
0.01199217590008337
-1.083805444354487e-15
0.01199217590008364
-1.46634458095456e-15
0.0119921759000841
-1.117719048255572e-15
0.01199217590008417
-1.131272254093655e-15
0.01199217590008428
-7.722179770342693e-16
0.01199217590008445
-1.16000359092318e-15
0.01199217590008467
-1.026369259443223e-16
0.01199217590008468
-1.076302987504402e-15
0.01199217590008515
2.97253056540695e-16
0.01199217590008532
-5.898313088169406e-16
0.01199217590008545
7.524501701553287e-16
0.01199217590008565
-3.550208885671977e-16
0.01199217590008589
1.439266555701684e-15
0.01199217590008561
5.679775619231814e-16
0.01199217590008592
1.448121622425623e-15
0.011992175900086
2.345467026653989e-15
0.01199217590008574
1.335199334068165e-15
5.560414032624554e-15
0.01678671462007636
2.119434174712262e-15
0.01678671462007009
2.064369924690578e-15
0.01678671462006867
3.895248284463334e-15
0.01678671462006804
3.755543263189308e-15
0.01678671462006753
2.479977377567027e-15
0.0167867146200674
1.929516022509421e-15
0.01678671462006752
9.878616249709326e-16
0.01678671462006772
5.284365596272545e-16
0.01678671462006806
-1.376573841535863e-16
0.01678671462006835
-2.77184562114317e-16
0.01678671462006881
-8.572307711701514e-16
0.0167867146200693
-6.492329982913333e-16
0.01678671462006966
-9.680953647876735e-16
0.01678671462007023
-6.931977526655469e-16
0.01678671462007106
-1.037514681250523e-15
0.01678671462007152
-7.191449234711988e-16
0.0167867146200722
-1.313279182716816e-15
0.01678671462007268
-6.465504830780215e-16
0.01678671462007315
-1.137162108102365e-15
0.01678671462007361
-9.715940813664502e-16
0.01678671462007416
-1.119708430530724e-15
0.01678671462007447
-9.859520026029328e-16
0.01678671462007491
-1.369056606633002e-15
0.01678671462007521
-1.174369999566793e-15
0.0167867146200756
-1.47614835706609e-15
0.01678671462007588
-1.585269559328009e-15
0.01678671462007639
-1.598575224413948e-15
0.01678671462007646
-1.527565703618455e-15
0.01678671462007678
-1.432664529963317e-15
0.01678671462007692
-1.265148498083075e-15
0.01678671462007709
-9.42459003589699e-16
0.01678671462007715
-1.223649239451131e-15
0.01678671462007743
-3.785434475007386e-16
0.01678671462007735
-9.95464250456135e-16
0.01678671462007774
-9.405224370587946e-17
0.01678671462007776
-6.079568842030342e-16
0.01678671462007807
4.348591007367303e-16
0.01678671462007813
-4.060471473432549e-16
0.01678671462007857
9.978505518369625e-16
0.0167867146200787
4.405166182902427e-16
0.01678671462007888
1.269812958122613e-15
0.0167867146200796
1.627814888540755e-15
0.0167867146200792
1.729262973971207e-15
3.407224556850793e-15
0.01971921591658491
6.974545833487811e-15
0.0197192159165779
9.083037937340784e-15
0.01971921591657655
5.244619951670887e-15
0.01971921591657621
4.085851170167215e-15
0.01971921591657618
2.515721983417369e-15
0.0197192159165764
1.703793949040421e-15
0.01971921591657687
5.297893415727536e-16
0.01971921591657727
1.301723859570997e-16
0.01971921591657768
-5.613337307521484e-16
0.01971921591657802
-6.152388686886057e-16
0.01971921591657844
-1.283944637015138e-15
0.01971921591657873
-9.444595819113893e-16
0.01971921591657923
-1.469787045861553e-15
0.0197192159165796
-1.06343295734819e-15
0.01971921591658011
-1.548264408729086e-15
0.01971921591658047
-1.086226102658519e-15
0.01971921591658079
-1.642871099582501e-15
0.01971921591658127
-1.13155602368606e-15
0.01971921591658177
-1.628486361020561e-15
0.01971921591658211
-1.313029500228627e-15
0.01971921591658257
-1.579320628150709e-15
0.01971921591658275
-1.163334533812565e-15
0.0197192159165832
-1.819753040033886e-15
0.01971921591658336
-1.332127695527458e-15
0.01971921591658367
-1.789901246005976e-15
0.01971921591658359
-1.504436177262767e-15
0.0197192159165839
-1.900036155953233e-15
0.01971921591658391
-1.541816949979275e-15
0.01971921591658411
-1.618627757693295e-15
0.01971921591658417
-1.328355400105868e-15
0.01971921591658449
-1.260735029907117e-15
0.0197192159165844
-1.122242214379702e-15
0.01971921591658463
-6.083159010716857e-16
0.01971921591658446
-8.248265267204475e-16
0.01971921591658462
-2.581362428090783e-16
0.01971921591658456
-5.412687955939489e-16
0.01971921591658488
1.192495145367076e-16
0.01971921591658479
-3.189152691539324e-16
0.01971921591658519
6.067967840735585e-16
0.01971921591658575
-1.098666950484683e-16
0.01971921591658597
1.052641599829847e-15
0.01971921591658728
3.173641916751529e-16
0.01971921591658696
2.050185575488879e-15
6.195283855236667e-16
0.02093661409802128
1.025101620296548e-14
0.02093661409801586
1.449826400490243e-14
0.02093661409801539
5.714935080900329e-15
0.02093661409801558
3.89805776803325e-15
0.02093661409801566
2.441125855920491e-15
0.02093661409801579
1.579976033362065e-15
0.02093661409801599
3.300536175049551e-16
0.02093661409801595
1.73027632935764e-16
0.02093661409801598
-5.943955895589764e-16
0.02093661409801589
-5.184353387329422e-16
0.02093661409801579
-1.173016499232314e-15
0.02093661409801545
-5.961882688085303e-16
0.02093661409801524
-1.243597757982454e-15
0.0209366140980149
-7.264482035935769e-16
0.02093661409801472
-1.36803378525185e-15
0.02093661409801468
-1.040640726368049e-15
0.02093661409801466
-1.624108035175623e-15
0.0209366140980146
-1.079541507125668e-15
0.02093661409801478
-1.810429674305942e-15
0.02093661409801489
-1.416932896544989e-15
0.02093661409801521
-1.89970131905083e-15
0.02093661409801533
-1.282138335060362e-15
0.02093661409801564
-2.122077040600543e-15
0.02093661409801573
-1.430996097668894e-15
0.02093661409801601
-2.0684101988953e-15
0.02093661409801599
-1.479631980955143e-15
0.02093661409801613
-2.031171379553533e-15
0.02093661409801606
-1.466305141778658e-15
0.02093661409801625
-1.81170003101437e-15
0.02093661409801628
-1.352155853549695e-15
0.02093661409801656
-1.540176387484105e-15
0.02093661409801655
-1.107655689608956e-15
0.02093661409801688
-9.47059768738168e-16
0.02093661409801688
-8.258188027218837e-16
0.02093661409801729
-6.723683859096603e-16
0.02093661409801748
-7.273461510442479e-16
0.02093661409801791
-3.168232357004373e-16
0.02093661409801828
-6.886242233399903e-16
0.0209366140980187
1.73383350890103e-16
0.02093661409801943
-8.309174536189323e-16
0.02093661409801985
6.338167180121285e-16
0.02093661409802142
-1.25689138249328e-15
0.02093661409802159
1.877422193403394e-15
-2.3523845767614e-15
0.02125037887770143
1.229963099032837e-14
0.02125037887769776
1.816786200320925e-14
0.02125037887769626
7.20735257488795e-15
0.02125037887769579
4.368530434765696e-15
0.02125037887769555
2.674261927857296e-15
0.02125037887769532
1.812996455081615e-15
0.02125037887769513
5.190632012617665e-16
0.02125037887769484
4.616065347522961e-16
0.02125037887769464
-3.995005311815268e-16
0.02125037887769416
-2.877075663498614e-17
0.02125037887769403
-1.044640297129274e-15
0.02125037887769401
-5.710055331369426e-16
0.02125037887769403
-1.256847416900898e-15
0.02125037887769395
-6.389774936839055e-16
0.02125037887769378
-1.20167163365828e-15
0.02125037887769377
-1.035791149082895e-15
0.02125037887769387
-1.725102751222339e-15
0.02125037887769395
-1.172012598474543e-15
0.02125037887769412
-1.979231057620223e-15
0.02125037887769424
-1.542112303587174e-15
0.0212503788776945
-2.15056444966251e-15
0.0212503788776946
-1.383398696600348e-15
0.02125037887769487
-2.383755767082115e-15
0.02125037887769494
-1.506387164797504e-15
0.02125037887769516
-2.290500377819301e-15
0.02125037887769528
-1.59658525940355e-15
0.02125037887769548
-2.226403931638002e-15
0.02125037887769552
-1.504255071255649e-15
0.02125037887769575
-2.041744419531377e-15
0.02125037887769581
-1.392980586274759e-15
0.02125037887769602
-1.747912361981246e-15
0.02125037887769606
-1.151867888017038e-15
0.02125037887769649
-1.382881842864762e-15
0.02125037887769671
-1.049701538464376e-15
0.02125037887769726
-1.213348631199026e-15
0.02125037887769774
-1.212833873835681e-15
0.02125037887769832
-8.906208919215116e-16
0.021250378877699
-1.374422670161734e-15
0.02125037887769965
-4.695782976963723e-16
0.02125037887770039
-1.569161754320116e-15
0.02125037887770096
6.956672102330929e-17
0.02125037887770224
-2.53294672866652e-15
0.02125037887770259
1.527033669612007e-15
-3.231378448806767e-15
0.02093661411750691
1.014227198158307e-14
0.02093661411751008
1.500690826077041e-14
0.02093661411751118
6.115713737161617e-15
0.02093661411751199
3.567838975488872e-15
0.02093661411751265
2.014532424975883e-15
0.02093661411751313
1.340169665284368e-15
0.02093661411751339
2.619146851264773e-16
0.02093661411751335
5.142020820728053e-16
0.02093661411751331
-3.60306083774972e-16
0.02093661411751309
1.946508471281414e-16
0.02093661411751269
-6.453593109205659e-16
0.02093661411751216
-4.331416267347122e-17
0.02093661411751163
-7.271252293344093e-16
0.02093661411751118
-1.960102612685546e-16
0.02093661411751085
-8.668212594128949e-16
0.02093661411751029
-4.684886275134138e-16
0.02093661411750979
-1.238126112317917e-15
0.02093661411750941
-7.875048748366168e-16
0.02093661411750901
-1.582229667826524e-15
0.02093661411750856
-1.093900453191936e-15
0.02093661411750818
-1.763778162039074e-15
0.0209366141175079
-1.114344079532435e-15
0.02093661411750734
-1.822206180073698e-15
0.02093661411750694
-1.099430479305623e-15
0.02093661411750653
-1.875105731762424e-15
0.02093661411750621
-1.284233918569803e-15
0.0209366141175059
-1.909038628861904e-15
0.02093661411750561
-1.219863527227485e-15
0.02093661411750535
-1.784515733617709e-15
0.02093661411750511
-1.152065019908893e-15
0.02093661411750491
-1.551751023618248e-15
0.02093661411750472
-9.550688624137021e-16
0.02093661411750461
-1.272121801322538e-15
0.02093661411750464
-1.073806506178096e-15
0.02093661411750459
-1.160624233339949e-15
0.02093661411750478
-1.403068973231374e-15
0.02093661411750486
-9.750364758497215e-16
0.02093661411750511
-1.63626374652612e-15
0.02093661411750533
-6.932205954560006e-16
0.02093661411750564
-1.882534300412071e-15
0.02093661411750563
8.851392657183323e-17
0.02093661411750559
-2.500392340315902e-15
0.0209366141175056
1.503716598898498e-15
-2.397077386098221e-15
0.01971921594707305
7.0615944518438e-15
0.01971921594707791
1.014476811016118e-14
0.01971921594707897
5.063437744111831e-15
0.01971921594707985
2.693529667782693e-15
0.01971921594708073
1.130536561524508e-15
0.01971921594708146
6.068746890142135e-16
0.01971921594708207
-3.424265793983413e-16
0.01971921594708262
-2.981029113518041e-17
0.01971921594708281
-5.520836578063695e-16
0.01971921594708321
-1.98560964328462e-16
0.01971921594708325
-6.919670805513445e-16
0.01971921594708336
-1.519566184407336e-16
0.01971921594708333
-7.031329317837223e-16
0.0197192159470833
-1.599356288440737e-16
0.01971921594708317
-7.443377852237523e-16
0.01971921594708308
-3.751259234870405e-16
0.01971921594708279
-9.597863900127687e-16
0.01971921594708251
-5.007291235059511e-16
0.01971921594708212
-1.187047605290511e-15
0.01971921594708166
-6.411018484755871e-16
0.01971921594708111
-1.206402594848807e-15
0.01971921594708063
-6.442596997534006e-16
0.01971921594708004
-1.234753029127471e-15
0.01971921594707959
-6.492375449884999e-16
0.01971921594707893
-1.209475253590625e-15
0.01971921594707833
-6.807312096369389e-16
0.0197192159470777
-1.27394909608131e-15
0.01971921594707723
-7.566698747644961e-16
0.01971921594707673
-1.2842137597288e-15
0.01971921594707634
-7.487211475486583e-16
0.01971921594707586
-1.080642317105301e-15
0.01971921594707556
-6.531971523390943e-16
0.01971921594707517
-8.795630210302258e-16
0.01971921594707497
-8.649504598750711e-16
0.01971921594707451
-7.066163511668786e-16
0.01971921594707435
-1.236183104194533e-15
0.01971921594707406
-6.901262813402744e-16
0.01971921594707393
-1.502970519797496e-15
0.01971921594707374
-5.075329846250127e-16
0.01971921594707348
-1.611838213398956e-15
0.01971921594707316
4.050077282322398e-16
0.01971921594707236
-1.696115519710218e-15
0.01971921594707211
1.746739171638749e-15
-2.628373391585584e-16
0.01678671465118127
3.911322448175789e-15
0.01678671465118575
5.680173244286055e-15
0.01678671465118626
4.556918012765902e-15
0.0167867146511868
2.157023646628386e-15
0.01678671465118738
5.535684099689967e-16
0.01678671465118791
7.246944866453567e-17
0.01678671465118827
-7.003122046110337e-16
0.01678671465118854
-3.018993362927189e-16
0.01678671465118874
-7.505550781606174e-16
0.016786714651189
-4.614623709084587e-16
0.0167867146511891
-7.976346743181568e-16
0.0167867146511893
-3.483553732709946e-16
0.01678671465118955
-9.544927873883657e-16
0.01678671465118973
-3.436830683712375e-16
0.01678671465118978
-7.862487994862178e-16
0.01678671465118989
-4.907317158966893e-16
0.01678671465118979
-8.560680062329386e-16
0.01678671465118966
-3.717096926329483e-16
0.01678671465118954
-1.071831229318094e-15
0.01678671465118925
-3.424731039621109e-16
0.01678671465118891
-8.687273872284206e-16
0.01678671465118863
-3.628577263850814e-16
0.01678671465118814
-7.426677759739596e-16
0.01678671465118776
-2.747278606955319e-16
0.01678671465118714
-5.854334254646099e-16
0.01678671465118676
-3.039765663264265e-16
0.01678671465118626
-7.675019925381791e-16
0.0167867146511858
-3.025038578629152e-16
0.01678671465118537
-8.588544455646466e-16
0.01678671465118506
-4.391976187444415e-16
0.01678671465118466
-6.759157331080018e-16
0.01678671465118437
-3.659017715597569e-16
0.01678671465118386
-3.604531235670553e-16
0.01678671465118352
-5.195332696709576e-16
0.01678671465118302
-2.102851133859035e-16
0.01678671465118283
-1.045294244752962e-15
0.01678671465118242
-2.849010993236173e-16
0.0167867146511821
-1.185049393388268e-15
0.01678671465118185
-2.651102120570049e-16
0.01678671465118145
-1.217357566801729e-15
0.01678671465118119
6.50821159084638e-16
0.01678671465118039
-9.000246208136058e-16
0.01678671465118023
1.899389220481392e-15
1.83222128209276e-15
0.01199217592331174
1.202776028892494e-15
0.01199217592331466
2.760678410000473e-15
0.01199217592331473
4.49053934739027e-15
0.0119921759233152
1.691099611017612e-15
0.01199217592331559
1.603486455921603e-16
0.0119921759233161
-4.411844919529774e-16
0.01199217592331642
-1.007597649157329e-15
0.01199217592331652
-4.067235565107211e-16
0.01199217592331668
-9.109947272815092e-16
0.01199217592331668
-4.689058661096506e-16
0.01199217592331665
-7.694362245351706e-16
0.01199217592331698
-6.732306433570826e-16
0.01199217592331688
-8.58490384879095e-16
0.01199217592331703
-4.989623564676263e-16
0.01199217592331705
-7.996832566843514e-16
0.01199217592331701
-4.559393355818363e-16
0.01199217592331687
-7.174569195120686e-16
0.01199217592331692
-4.158154096334218e-16
0.01199217592331659
-7.404918847685987e-16
0.01199217592331647
-2.249491119666222e-16
0.01199217592331612
-5.237095338202369e-16
0.01199217592331588
-1.169382021382362e-16
0.01199217592331551
-3.737419233711921e-16
0.01199217592331533
-9.348567698257861e-17
0.01199217592331484
-9.450893151545702e-17
0.01199217592331455
-2.22277186658254e-17
0.01199217592331413
-3.446382333790466e-16
0.01199217592331382
1.639377194589309e-17
0.01199217592331363
-6.737943604043175e-16
0.01199217592331344
-2.473631198305036e-16
0.01199217592331318
-4.226400671642786e-16
0.01199217592331285
-2.529443129637948e-17
0.01199217592331244
4.43560117913618e-17
0.01199217592331222
-2.931908066670738e-16
0.01199217592331199
2.083806709517935e-17
0.01199217592331169
-7.397021561091874e-16
0.01199217592331144
-3.673269190955989e-17
0.01199217592331117
-9.14973950175947e-16
0.01199217592331103
-1.290008751565031e-16
0.01199217592331073
-9.281645576176861e-16
0.01199217592331069
6.918535622480488e-16
0.01199217592331019
-4.084276166849436e-16
0.01199217592331025
1.832530568122039e-15
3.054637835833119e-15
0.007170375711539776
-9.383282055320476e-16
0.007170375711540676
1.865372498028784e-15
0.007170375711540639
4.533164924711815e-15
0.007170375711541097
1.233494625414651e-15
0.007170375711541507
-2.507589567536307e-16
0.007170375711541752
-6.866348530302106e-16
0.007170375711541888
-1.14265840397891e-15
0.007170375711542124
-6.463797828931891e-16
0.007170375711542118
-9.077362689506633e-16
0.00717037571154211
-4.601565422946939e-16
0.007170375711542008
-6.691405775586886e-16
0.007170375711541931
-5.973103940247328e-16
0.007170375711541862
-7.880683564769975e-16
0.007170375711541823
-4.599001659316903e-16
0.007170375711541613
-5.891673941093687e-16
0.007170375711541644
-4.856320740649072e-16
0.007170375711541411
-4.848900721141265e-16
0.007170375711541178
-1.840787175718033e-16
0.007170375711540998
-5.582198195036063e-16
0.007170375711540767
4.234214480958961e-18
0.007170375711540578
-3.345399904453526e-16
0.007170375711540481
-2.150896156065587e-17
0.007170375711540273
-1.646357189684086e-16
0.007170375711540102
7.913584084829433e-17
0.007170375711539888
1.192919439845294e-16