/*--------------------------------*- C++ -*----------------------------------*\
| =========                 |                                                 |
| \\      /  F ield         | OpenFOAM: The Open Source CFD Toolbox           |
|  \\    /   O peration     | Version:  v1812                                 |
|   \\  /    A nd           | Web:      www.OpenFOAM.com                      |
|    \\/     M anipulation  |                                                 |
\*---------------------------------------------------------------------------*/
FoamFile
{
    version     2.0;
    format      ascii;
    class       volScalarField;
    location    "10000";
    object      nut;
}
// * * * * * * * * * * * * * * * * * * * * * * * * * * * * * * * * * * * * * //

dimensions      [0 2 -1 0 0 0 0];


internalField   nonuniform List<scalar> 
2838
(
8.211729468379074e-05
8.211729468379073e-05
8.211729468379074e-05
8.21172946837908e-05
8.211729468379073e-05
8.211729468379081e-05
8.211729468379089e-05
8.21172946837907e-05
8.211729468379066e-05
8.211729468379086e-05
8.21172946837907e-05
8.211729468379091e-05
8.211729468379062e-05
8.211729468379074e-05
8.211729468379088e-05
8.211729468379043e-05
8.211729468379091e-05
8.211729468379078e-05
8.211729468379084e-05
8.211729468379054e-05
8.211729468379069e-05
8.211729468379073e-05
8.211729468379095e-05
8.211729468379086e-05
8.211729468379055e-05
8.211729468379096e-05
8.211729468379054e-05
8.211729468379095e-05
8.211729468379032e-05
8.211729468379111e-05
8.211729468379059e-05
8.211729468379069e-05
8.211729468379089e-05
8.211729468379072e-05
8.211729468379036e-05
8.211729468379089e-05
8.21172946837912e-05
8.211729468379074e-05
8.211729468379036e-05
8.211729468379069e-05
8.211729468379072e-05
8.211729468379085e-05
8.211729468379084e-05
8.211729468379082e-05
8.21172946837907e-05
8.211729468379073e-05
8.211729468379078e-05
8.211729468379115e-05
8.211729468379039e-05
8.211729468379085e-05
8.211729468379073e-05
8.211729468379115e-05
8.211729468379085e-05
8.21172946837907e-05
8.211729468379035e-05
8.211729468379115e-05
8.211729468379046e-05
8.211729468379032e-05
8.211729468379119e-05
8.211729468379078e-05
8.21172946837907e-05
8.211729468379077e-05
8.211729468379085e-05
8.21172946837907e-05
8.21172946837907e-05
8.211729468379111e-05
4.337860735008538e-05
4.337860735008214e-05
4.337860735008034e-05
4.337860735008094e-05
4.337860735008113e-05
4.337860735008194e-05
4.3378607350081e-05
4.337860735008101e-05
4.337860735008199e-05
4.337860735008071e-05
4.337860735008091e-05
4.337860735008061e-05
4.337860735007873e-05
4.337860735007724e-05
4.337860735007787e-05
4.337860735007769e-05
4.337860735007901e-05
4.337860735007796e-05
4.337860735007806e-05
4.337860735007937e-05
4.337860735007852e-05
4.337860735007857e-05
4.337860735008023e-05
4.337860735007905e-05
4.337860735007914e-05
4.337860735008027e-05
4.337860735007909e-05
4.337860735007907e-05
4.337860735007919e-05
4.337860735007989e-05
4.33786073500793e-05
4.337860735008052e-05
4.337860735008063e-05
4.337860735008143e-05
4.337860735008111e-05
4.337860735008119e-05
4.337860735008175e-05
4.337860735008157e-05
4.33786073500815e-05
4.33786073500827e-05
4.337860735008197e-05
4.337860735008154e-05
4.337860735008272e-05
4.337860735008256e-05
4.337860735008366e-05
4.337860735008311e-05
4.337860735008436e-05
4.337860735008212e-05
4.337860735008185e-05
4.337860735008248e-05
4.337860735008308e-05
4.337860735008247e-05
4.337860735008262e-05
4.337860735008246e-05
4.337860735008453e-05
4.337860735008208e-05
4.337860735008113e-05
4.337860735008143e-05
4.337860735008258e-05
4.337860735008056e-05
4.337860735007976e-05
4.337860735008001e-05
4.337860735008147e-05
4.337860735007988e-05
4.337860735007976e-05
4.337860735007775e-05
0.0003193600297087664
0.0003193600297087457
0.0003193600297087347
0.0003193600297087374
0.0003193600297087389
0.0003193600297087429
0.0003193600297087355
0.0003193600297087365
0.0003193600297087436
0.0003193600297087338
0.0003193600297087347
0.0003193600297087306
0.0003193600297087178
0.000319360029708708
0.0003193600297087153
0.000319360029708713
0.0003193600297087219
0.0003193600297087148
0.0003193600297087142
0.0003193600297087243
0.0003193600297087186
0.0003193600297087184
0.000319360029708729
0.0003193600297087224
0.0003193600297087225
0.0003193600297087302
0.0003193600297087242
0.0003193600297087246
0.0003193600297087273
0.0003193600297087298
0.0003193600297087272
0.0003193600297087364
0.0003193600297087361
0.0003193600297087348
0.0003193600297087373
0.0003193600297087349
0.0003193600297087371
0.0003193600297087441
0.0003193600297087436
0.0003193600297087499
0.0003193600297087429
0.0003193600297087423
0.0003193600297087511
0.00031936002970875
0.0003193600297087581
0.0003193600297087523
0.0003193600297087614
0.0003193600297087481
0.0003193600297087483
0.0003193600297087505
0.0003193600297087538
0.0003193600297087533
0.0003193600297087571
0.0003193600297087536
0.0003193600297087664
0.0003193600297087482
0.0003193600297087413
0.0003193600297087437
0.0003193600297087488
0.0003193600297087347
0.0003193600297087308
0.0003193600297087319
0.0003193600297087396
0.0003193600297087241
0.0003193600297087227
0.0003193600297087094
0.0006792764832212785
0.0006792764832212646
0.0006792764832212527
0.0006792764832212508
0.000679276483221255
0.000679276483221254
0.0006792764832212419
0.0006792764832212413
0.0006792764832212556
0.000679276483221242
0.000679276483221236
0.0006792764832212275
0.000679276483221212
0.000679276483221202
0.0006792764832212123
0.0006792764832212057
0.0006792764832212182
0.0006792764832212085
0.0006792764832211998
0.000679276483221218
0.0006792764832212108
0.0006792764832212069
0.0006792764832212255
0.0006792764832212181
0.0006792764832212104
0.0006792764832212292
0.0006792764832212234
0.000679276483221219
0.0006792764832212257
0.0006792764832212289
0.0006792764832212291
0.0006792764832212421
0.0006792764832212428
0.0006792764832212463
0.0006792764832212442
0.0006792764832212426
0.0006792764832212459
0.0006792764832212557
0.0006792764832212564
0.0006792764832212699
0.000679276483221261
0.0006792764832212529
0.0006792764832212652
0.000679276483221263
0.0006792764832212782
0.0006792764832212734
0.0006792764832212829
0.0006792764832212677
0.0006792764832212695
0.0006792764832212822
0.0006792764832212795
0.0006792764832212878
0.000679276483221289
0.0006792764832212827
0.0006792764832212961
0.0006792764832212791
0.0006792764832212624
0.0006792764832212706
0.0006792764832212626
0.0006792764832212438
0.0006792764832212434
0.000679276483221251
0.0006792764832212395
0.0006792764832212296
0.0006792764832212199
0.0006792764832211957
0.001081945843988296
0.001081945843988299
0.001081945843988294
0.001081945843988275
0.001081945843988284
0.001081945843988278
0.001081945843988254
0.001081945843988257
0.001081945843988269
0.001081945843988264
0.001081945843988262
0.001081945843988258
0.001081945843988236
0.001081945843988212
0.001081945843988229
0.001081945843988215
0.001081945843988228
0.001081945843988223
0.001081945843988198
0.001081945843988223
0.001081945843988223
0.001081945843988209
0.001081945843988232
0.001081945843988231
0.001081945843988211
0.001081945843988238
0.001081945843988241
0.001081945843988227
0.001081945843988247
0.001081945843988251
0.001081945843988243
0.001081945843988256
0.001081945843988257
0.001081945843988275
0.001081945843988277
0.001081945843988262
0.001081945843988275
0.001081945843988273
0.001081945843988272
0.001081945843988297
0.001081945843988298
0.001081945843988278
0.001081945843988296
0.001081945843988285
0.001081945843988303
0.001081945843988301
0.001081945843988312
0.001081945843988306
0.001081945843988307
0.00108194584398832
0.001081945843988318
0.001081945843988334
0.001081945843988327
0.001081945843988319
0.001081945843988337
0.001081945843988327
0.001081945843988301
0.001081945843988316
0.001081945843988303
0.001081945843988276
0.001081945843988261
0.001081945843988278
0.001081945843988262
0.001081945843988253
0.001081945843988244
0.001081945843988197
0.00158405717404965
0.001584057174049663
0.001584057174049653
0.001584057174049629
0.001584057174049636
0.001584057174049636
0.001584057174049606
0.001584057174049588
0.001584057174049594
0.001584057174049597
0.001584057174049585
0.001584057174049607
0.001584057174049611
0.001584057174049542
0.001584057174049559
0.001584057174049542
0.00158405717404956
0.001584057174049566
0.001584057174049507
0.001584057174049555
0.001584057174049544
0.001584057174049532
0.001584057174049573
0.001584057174049565
0.001584057174049533
0.001584057174049579
0.001584057174049579
0.001584057174049554
0.001584057174049598
0.001584057174049599
0.001584057174049574
0.001584057174049607
0.001584057174049575
0.001584057174049636
0.001584057174049636
0.001584057174049609
0.001584057174049638
0.001584057174049623
0.00158405717404962
0.001584057174049665
0.001584057174049663
0.001584057174049636
0.001584057174049665
0.001584057174049629
0.001584057174049656
0.00158405717404966
0.001584057174049659
0.001584057174049664
0.001584057174049689
0.001584057174049705
0.001584057174049669
0.001584057174049709
0.001584057174049709
0.001584057174049681
0.001584057174049715
0.001584057174049725
0.001584057174049676
0.001584057174049694
0.001584057174049677
0.001584057174049646
0.001584057174049617
0.00158405717404961
0.001584057174049598
0.001584057174049601
0.001584057174049598
0.001584057174049513
0.00223116060726063
0.002231160607260608
0.002231160607260558
0.002231160607260555
0.002231160607260536
0.002231160607260567
0.002231160607260485
0.002231160607260556
0.002231160607260458
0.002231160607260506
0.002231160607260469
0.00223116060726054
0.002231160607260483
0.002231160607260454
0.002231160607260454
0.002231160607260411
0.002231160607260478
0.002231160607260438
0.00223116060726038
0.002231160607260466
0.002231160607260451
0.002231160607260403
0.002231160607260457
0.002231160607260515
0.002231160607260399
0.002231160607260469
0.002231160607260532
0.002231160607260431
0.002231160607260504
0.002231160607260568
0.002231160607260464
0.002231160607260552
0.002231160607260453
0.002231160607260554
0.002231160607260627
0.002231160607260513
0.002231160607260572
0.002231160607260631
0.002231160607260525
0.002231160607260604
0.002231160607260669
0.002231160607260563
0.002231160607260623
0.002231160607260581
0.002231160607260558
0.002231160607260637
0.002231160607260588
0.002231160607260602
0.002231160607260683
0.002231160607260645
0.002231160607260627
0.002231160607260659
0.002231160607260703
0.002231160607260634
0.002231160607260698
0.00223116060726067
0.002231160607260671
0.002231160607260692
0.002231160607260676
0.002231160607260531
0.002231160607260499
0.002231160607260534
0.002231160607260521
0.002231160607260556
0.002231160607260484
0.002231160607260399
0.002962685782763516
0.002962685782763604
0.002962685782763404
0.002962685782763444
0.002962685782763391
0.002962685782763365
0.0029626857827633
0.002962685782763369
0.002962685782763306
0.002962685782763293
0.002962685782763303
0.002962685782763323
0.002962685782763276
0.00296268578276333
0.002962685782763397
0.002962685782763162
0.002962685782763257
0.002962685782763346
0.002962685782763152
0.002962685782763263
0.002962685782763391
0.00296268578276319
0.002962685782763349
0.002962685782763318
0.002962685782763239
0.002962685782763388
0.002962685782763359
0.002962685782763287
0.00296268578276344
0.002962685782763413
0.002962685782763344
0.002962685782763486
0.002962685782763307
0.002962685782763444
0.002962685782763593
0.002962685782763388
0.002962685782763479
0.002962685782763519
0.002962685782763439
0.002962685782763598
0.002962685782763567
0.002962685782763495
0.002962685782763557
0.00296268578276348
0.002962685782763604
0.002962685782763638
0.002962685782763522
0.002962685782763524
0.002962685782763662
0.002962685782763621
0.00296268578276357
0.002962685782763593
0.002962685782763588
0.002962685782763731
0.002962685782763535
0.002962685782763735
0.002962685782763653
0.002962685782763788
0.002962685782763618
0.002962685782763518
0.002962685782763331
0.0029626857827634
0.002962685782763486
0.002962685782763323
0.002962685782763343
0.002962685782763197
0.003658323991153697
0.003658323991153753
0.003658323991153472
0.003658323991153435
0.003658323991153445
0.003658323991153554
0.003658323991153307
0.003658323991153405
0.003658323991153392
0.003658323991153237
0.003658323991153364
0.003658323991153527
0.003658323991153207
0.003658323991153429
0.003658323991153285
0.003658323991153166
0.003658323991153382
0.003658323991153241
0.003658323991153202
0.003658323991153423
0.003658323991153344
0.003658323991153231
0.003658323991153452
0.003658323991153377
0.003658323991153273
0.0036583239911534
0.003658323991153583
0.003658323991153305
0.00365832399115347
0.003658323991153661
0.003658323991153388
0.003658323991153546
0.003658323991153445
0.003658323991153675
0.003658323991153626
0.003658323991153518
0.003658323991153641
0.003658323991153834
0.00365832399115352
0.003658323991153692
0.003658323991153892
0.00365832399115358
0.003658323991153633
0.003658323991153629
0.003658323991153704
0.003658323991153733
0.003658323991153741
0.003658323991153689
0.003658323991153786
0.003658323991153931
0.003658323991153716
0.003658323991153819
0.003658323991153758
0.003658323991153983
0.003658323991153694
0.003658323991153821
0.003658323991153856
0.003658323991153889
0.003658323991153928
0.003658323991153514
0.003658323991153443
0.003658323991153549
0.003658323991153449
0.003658323991153446
0.003658323991153423
0.003658323991153115
0.004243602526661766
0.004243602526662
0.004243602526661835
0.00424360252666145
0.004243602526661477
0.004243602526661399
0.004243602526661483
0.004243602526661437
0.004243602526661504
0.004243602526661348
0.004243602526661638
0.004243602526661428
0.004243602526661327
0.004243602526661351
0.004243602526661474
0.004243602526661187
0.004243602526661321
0.004243602526661277
0.004243602526661431
0.004243602526661503
0.004243602526661637
0.004243602526661262
0.004243602526661488
0.004243602526661742
0.004243602526661348
0.004243602526661699
0.004243602526661555
0.004243602526661518
0.00424360252666184
0.004243602526661678
0.00424360252666163
0.004243602526661751
0.004243602526661677
0.004243602526661798
0.004243602526662032
0.004243602526661649
0.00424360252666186
0.004243602526662163
0.004243602526661731
0.004243602526661942
0.004243602526662229
0.004243602526661783
0.004243602526661874
0.00424360252666186
0.00424360252666213
0.00424360252666218
0.004243602526661906
0.004243602526661893
0.004243602526662196
0.004243602526661889
0.004243602526662025
0.004243602526662008
0.004243602526662188
0.004243602526662399
0.004243602526662288
0.00424360252666202
0.004243602526662357
0.004243602526661953
0.004243602526662118
0.00424360252666185
0.004243602526661699
0.00424360252666171
0.004243602526661514
0.004243602526661738
0.004243602526661434
0.004243602526661171
0.004707518661363254
0.00470751866136313
0.00470751866136285
0.004707518661362898
0.004707518661362963
0.004707518661362427
0.004707518661362669
0.004707518661363007
0.004707518661362487
0.004707518661362682
0.004707518661363024
0.004707518661362497
0.004707518661362705
0.004707518661363009
0.004707518661362491
0.004707518661362683
0.004707518661363016
0.004707518661362501
0.004707518661362781
0.004707518661363123
0.004707518661362609
0.004707518661362594
0.00470751866136306
0.004707518661362877
0.004707518661362796
0.004707518661363192
0.004707518661362709
0.004707518661363001
0.004707518661363376
0.004707518661362947
0.004707518661363401
0.004707518661362904
0.004707518661363067
0.00470751866136312
0.004707518661363134
0.004707518661363094
0.004707518661363501
0.004707518661363395
0.004707518661363213
0.004707518661363602
0.004707518661363458
0.004707518661363251
0.004707518661363284
0.004707518661363578
0.00470751866136324
0.004707518661363401
0.004707518661363738
0.004707518661363176
0.004707518661363238
0.004707518661363667
0.004707518661363553
0.004707518661363379
0.004707518661363761
0.004707518661363555
0.004707518661363513
0.004707518661363661
0.004707518661363932
0.004707518661363463
0.004707518661363526
0.004707518661363682
0.004707518661363498
0.00470751866136327
0.004707518661362682
0.004707518661362858
0.004707518661362803
0.004707518661362361
0.00506442273527938
0.005064422735279671
0.005064422735278836
0.005064422735279238
0.005064422735278871
0.005064422735278631
0.005064422735278817
0.005064422735279245
0.005064422735278535
0.005064422735278831
0.005064422735279267
0.005064422735278603
0.005064422735278917
0.005064422735279371
0.005064422735278699
0.005064422735279004
0.005064422735279447
0.00506442273527878
0.005064422735279114
0.005064422735279552
0.005064422735278895
0.00506442273527938
0.005064422735279258
0.005064422735279114
0.005064422735279318
0.00506442273527975
0.005064422735279122
0.005064422735279672
0.005064422735279484
0.005064422735279401
0.005064422735279861
0.005064422735279298
0.005064422735279381
0.005064422735279801
0.005064422735279316
0.005064422735279367
0.005064422735279905
0.005064422735279615
0.00506442273527948
0.005064422735280021
0.005064422735279713
0.005064422735279558
0.005064422735279632
0.005064422735279636
0.005064422735280051
0.005064422735279904
0.005064422735280403
0.005064422735279711
0.005064422735279526
0.005064422735279815
0.005064422735280203
0.005064422735279532
0.005064422735279679
0.005064422735279663
0.005064422735279916
0.005064422735279868
0.005064422735279966
0.005064422735280071
0.005064422735280064
0.005064422735280136
0.005064422735280243
0.005064422735279587
0.005064422735278768
0.005064422735279158
0.005064422735278862
0.005064422735278518
0.005330610815547829
0.005330610815547429
0.005330610815546912
0.005330610815547307
0.005330610815546987
0.005330610815546645
0.00533061081554715
0.005330610815546957
0.005330610815546686
0.005330610815547266
0.005330610815547055
0.005330610815546832
0.005330610815547442
0.00533061081554734
0.005330610815547069
0.00533061081554738
0.005330610815547885
0.005330610815547109
0.005330610815547508
0.005330610815548067
0.005330610815547272
0.005330610815547927
0.005330610815547717
0.005330610815547503
0.005330610815548089
0.005330610815547897
0.005330610815547657
0.005330610815547743
0.005330610815547739
0.005330610815547998
0.005330610815548338
0.005330610815547653
0.005330610815547793
0.005330610815547815
0.005330610815547853
0.005330610815547759
0.00533061081554795
0.005330610815547727
0.005330610815547864
0.00533061081554803
0.00533061081554785
0.005330610815548298
0.005330610815548085
0.005330610815547887
0.005330610815548477
0.005330610815548264
0.005330610815548792
0.005330610815547998
0.005330610815547817
0.005330610815548336
0.005330610815547955
0.005330610815547725
0.005330610815547917
0.005330610815547712
0.00533061081554809
0.005330610815547911
0.005330610815548285
0.00533061081554824
0.005330610815548452
0.00533061081554883
0.005330610815548127
0.005330610815547864
0.005330610815546854
0.005330610815546854
0.005330610815546841
0.005330610815546586
0.005519556831326398
0.005519556831325888
0.005519556831325321
0.005519556831325808
0.005519556831325496
0.005519556831325153
0.005519556831325476
0.005519556831325882
0.005519556831325266
0.005519556831325782
0.00551955683132565
0.005519556831325585
0.00551955683132609
0.005519556831326675
0.005519556831325871
0.00551955683132637
0.005519556831327023
0.005519556831326122
0.005519556831326893
0.005519556831326757
0.005519556831326445
0.005519556831326761
0.00551955683132721
0.005519556831326485
0.00551955683132748
0.00551955683132688
0.005519556831326719
0.005519556831326802
0.005519556831326677
0.0055195568313267
0.005519556831326718
0.005519556831327272
0.005519556831326851
0.005519556831326686
0.005519556831327219
0.005519556831326604
0.005519556831326531
0.005519556831326566
0.005519556831326539
0.00551955683132682
0.005519556831326601
0.005519556831327153
0.00551955683132688
0.005519556831326688
0.005519556831327075
0.005519556831327524
0.005519556831326676
0.00551955683132697
0.005519556831327335
0.005519556831327242
0.005519556831327092
0.005519556831326151
0.005519556831326304
0.005519556831326264
0.00551955683132654
0.005519556831326538
0.00551955683132749
0.00551955683132692
0.0055195568313269
0.005519556831327109
0.00551955683132735
0.005519556831326913
0.005519556831325473
0.005519556831325653
0.005519556831325975
0.005519556831324763
0.005642414440150361
0.005642414440149768
0.005642414440149175
0.005642414440149859
0.005642414440149526
0.00564241444014927
0.005642414440149995
0.005642414440149229
0.005642414440149939
0.005642414440150671
0.005642414440149948
0.005642414440150004
0.005642414440150669
0.005642414440151485
0.005642414440150551
0.005642414440151127
0.005642414440151911
0.005642414440150873
0.005642414440151753
0.00564241444015135
0.005642414440151158
0.005642414440151262
0.005642414440151247
0.005642414440151915
0.005642414440151655
0.005642414440151336
0.005642414440151632
0.005642414440152233
0.005642414440151088
0.005642414440151062
0.005642414440151013
0.005642414440151232
0.00564241444015118
0.005642414440151202
0.005642414440151084
0.005642414440151076
0.005642414440150892
0.005642414440151028
0.005642414440150924
0.005642414440150763
0.005642414440150999
0.005642414440150794
0.005642414440150942
0.005642414440151016
0.005642414440151375
0.005642414440151689
0.005642414440150553
0.005642414440151509
0.005642414440151126
0.005642414440151969
0.005642414440151006
0.00564241444015027
0.005642414440150373
0.005642414440150258
0.005642414440150502
0.005642414440150593
0.005642414440150885
0.00564241444015089
0.005642414440151169
0.00564241444015161
0.005642414440150658
0.00564241444015001
0.005642414440149898
0.005642414440149614
0.005642414440149625
0.005642414440148325
0.005708901393823256
0.005708901393823596
0.005708901393822427
0.005708901393823575
0.005708901393823863
0.00570890139382385
0.0057089013938242
0.005708901393823072
0.005708901393824709
0.005708901393824173
0.005708901393824749
0.005708901393824529
0.005708901393825665
0.005708901393825322
0.0057089013938252
0.005708901393825717
0.005708901393826525
0.00570890139382549
0.005708901393825669
0.005708901393825529
0.005708901393825802
0.005708901393826462
0.005708901393825174
0.005708901393825704
0.005708901393826289
0.005708901393825216
0.005708901393825686
0.005708901393826444
0.005708901393826044
0.005708901393824682
0.0057089013938247
0.005708901393824957
0.00570890139382496
0.005708901393825021
0.005708901393824758
0.00570890139382477
0.005708901393824596
0.005708901393825518
0.005708901393825032
0.00570890139382456
0.00570890139382452
0.005708901393824398
0.00570890139382526
0.005708901393825702
0.005708901393824927
0.005708901393825301
0.005708901393823931
0.005708901393825128
0.005708901393824273
0.005708901393825504
0.005708901393824815
0.00570890139382399
0.005708901393823841
0.005708901393823736
0.005708901393824083
0.005708901393824798
0.005708901393823907
0.005708901393824779
0.005708901393824958
0.005708901393824256
0.005708901393824298
0.00570890139382333
0.005708901393823325
0.00570890139382331
0.005708901393821817
0.00570890139382146
0.005727997049639375
0.005727997049639316
0.005727997049640548
0.005727997049641232
0.005727997049641975
0.005727997049641164
0.005727997049642046
0.005727997049641884
0.00572799704964335
0.005727997049642444
0.005727997049643684
0.005727997049642736
0.005727997049643513
0.005727997049644594
0.005727997049643462
0.005727997049643935
0.005727997049643993
0.00572799704964502
0.005727997049644051
0.005727997049643415
0.005727997049643692
0.005727997049644518
0.005727997049642811
0.005727997049642899
0.005727997049642782
0.005727997049643676
0.005727997049642548
0.005727997049642892
0.005727997049643591
0.00572799704964245
0.005727997049642059
0.005727997049642056
0.005727997049642073
0.005727997049642178
0.005727997049641761
0.00572799704964207
0.005727997049641495
0.005727997049642666
0.005727997049642278
0.005727997049641618
0.005727997049641412
0.005727997049641262
0.005727997049642276
0.005727997049642108
0.005727997049641556
0.005727997049642239
0.005727997049640978
0.005727997049641259
0.005727997049641179
0.005727997049642338
0.005727997049641793
0.005727997049640978
0.005727997049640345
0.005727997049640696
0.005727997049640406
0.005727997049641888
0.005727997049640947
0.005727997049641737
0.005727997049640778
0.005727997049641204
0.005727997049641984
0.005727997049639812
0.005727997049639597
0.005727997049639883
0.005727997049639295
0.005727997049637642
0.005708547936540498
0.005708547936540539
0.005708547936542431
0.005708547936544811
0.005708547936545188
0.005708547936545531
0.005708547936545911
0.00570854793654608
0.005708547936546865
0.00570854793654666
0.005708547936547701
0.005708547936547737
0.00570854793654619
0.005708547936547272
0.005708547936548035
0.005708547936546553
0.005708547936546853
0.005708547936546857
0.005708547936546809
0.005708547936546239
0.005708547936546132
0.005708547936546989
0.005708547936546251
0.00570854793654592
0.005708547936544065
0.005708547936545481
0.005708547936544934
0.005708547936544456
0.005708547936544357
0.005708547936544477
0.005708547936545291
0.005708547936543237
0.005708547936544473
0.005708547936543826
0.005708547936543123
0.005708547936543503
0.005708547936542967
0.005708547936544166
0.005708547936543633
0.00570854793654299
0.005708547936542773
0.005708547936542577
0.005708547936543741
0.005708547936542498
0.005708547936543375
0.005708547936544192
0.005708547936543712
0.005708547936543434
0.005708547936542031
0.005708547936542481
0.005708547936542753
0.005708547936543466
0.005708547936541293
0.005708547936541898
0.005708547936541262
0.005708547936542623
0.005708547936542747
0.005708547936541686
0.005708547936542028
0.005708547936541612
0.00570854793654168
0.005708547936542081
0.005708547936540055
0.005708547936540711
0.005708547936540449
0.005708547936538333
0.005659907789241577
0.005659907789241514
0.00565990778924482
0.00565990778924873
0.005659907789250184
0.005659907789250914
0.00565990778925
0.005659907789250007
0.005659907789250274
0.005659907789250491
0.005659907789251406
0.005659907789251213
0.005659907789248816
0.005659907789249109
0.005659907789250293
0.005659907789248366
0.005659907789248972
0.005659907789248061
0.005659907789248003
0.005659907789247591
0.005659907789246645
0.005659907789247072
0.005659907789247886
0.005659907789246689
0.005659907789244117
0.005659907789245563
0.005659907789245167
0.005659907789244532
0.005659907789244125
0.005659907789244502
0.005659907789244886
0.005659907789243035
0.005659907789244672
0.005659907789243803
0.005659907789243074
0.005659907789242848
0.00565990778924389
0.005659907789242616
0.005659907789242847
0.005659907789242687
0.00565990778924261
0.005659907789242306
0.00565990778924258
0.005659907789242563
0.005659907789243499
0.00565990778924311
0.005659907789243502
0.005659907789242568
0.00565990778924198
0.00565990778924178
0.005659907789243035
0.005659907789241877
0.005659907789241084
0.005659907789241496
0.005659907789240519
0.005659907789241278
0.005659907789240883
0.005659907789241109
0.005659907789241835
0.005659907789240383
0.005659907789240272
0.005659907789240613
0.005659907789239429
0.005659907789239482
0.005659907789240047
0.005659907789237457
0.005592818680893081
0.005592818680898989
0.005592818680903879
0.005592818680907168
0.005592818680906762
0.005592818680907735
0.00559281868090579
0.005592818680905584
0.005592818680905288
0.005592818680906392
0.005592818680904882
0.00559281868090572
0.005592818680901742
0.005592818680901401
0.00559281868090246
0.005592818680899956
0.005592818680900355
0.005592818680900137
0.005592818680897825
0.005592818680898494
0.005592818680899294
0.005592818680897535
0.005592818680898544
0.005592818680898215
0.005592818680894097
0.00559281868089575
0.005592818680895153
0.005592818680896266
0.005592818680895136
0.005592818680895351
0.005592818680892941
0.005592818680894489
0.005592818680894983
0.005592818680893312
0.005592818680894362
0.005592818680892096
0.005592818680892725
0.005592818680893882
0.005592818680891839
0.005592818680892722
0.005592818680893763
0.005592818680891949
0.005592818680892459
0.005592818680892631
0.005592818680893846
0.005592818680891871
0.005592818680893565
0.005592818680892619
0.005592818680891478
0.005592818680892656
0.005592818680891721
0.005592818680893228
0.005592818680891054
0.005592818680891316
0.005592818680890126
0.005592818680890262
0.005592818680890147
0.005592818680890031
0.005592818680890782
0.005592818680889684
0.00559281868088991
0.005592818680889695
0.00559281868088856
0.00559281868088843
0.005592818680888301
0.005592818680887492
0.005521325648576549
0.005521325648590493
0.005521325648593946
0.005521325648591887
0.005521325648591386
0.005521325648588048
0.00552132564858805
0.005521325648584107
0.005521325648583846
0.005521325648582983
0.005521325648582884
0.005521325648582879
0.005521325648579324
0.005521325648575749
0.005521325648576152
0.005521325648574694
0.005521325648574808
0.005521325648572895
0.005521325648572168
0.005521325648571848
0.005521325648572791
0.005521325648571673
0.005521325648571783
0.00552132564856949
0.005521325648567529
0.00552132564856826
0.005521325648569535
0.005521325648567286
0.005521325648567922
0.005521325648569148
0.005521325648566012
0.005521325648568568
0.005521325648567731
0.005521325648568554
0.005521325648568279
0.005521325648565404
0.005521325648566347
0.005521325648567849
0.0055213256485655
0.005521325648566375
0.005521325648566315
0.00552132564856813
0.005521325648566407
0.005521325648566157
0.005521325648567056
0.005521325648566224
0.005521325648566355
0.005521325648566277
0.005521325648564765
0.005521325648565443
0.005521325648564924
0.005521325648565008
0.005521325648564608
0.005521325648565007
0.005521325648563455
0.005521325648563591
0.005521325648563337
0.005521325648563444
0.005521325648564915
0.00552132564856224
0.005521325648562311
0.005521325648562922