/*--------------------------------*- C++ -*----------------------------------*\
| =========                 |                                                 |
| \\      /  F ield         | OpenFOAM: The Open Source CFD Toolbox           |
|  \\    /   O peration     | Version:  v1812                                 |
|   \\  /    A nd           | Web:      www.OpenFOAM.com                      |
|    \\/     M anipulation  |                                                 |
\*---------------------------------------------------------------------------*/
FoamFile
{
    version     2.0;
    format      ascii;
    class       volScalarField;
    location    "10000";
    object      nuTilda;
}
// * * * * * * * * * * * * * * * * * * * * * * * * * * * * * * * * * * * * * //

dimensions      [0 2 -1 0 0 0 0];


internalField   nonuniform List<scalar> 
2838
(
0.0004803015740509104
0.0004803015740509104
0.0004803015740509104
0.0004803015740509104
0.0004803015740509104
0.0004803015740509105
0.0004803015740509105
0.0004803015740509102
0.0004803015740509102
0.0004803015740509104
0.0004803015740509102
0.0004803015740509106
0.0004803015740509102
0.0004803015740509104
0.0004803015740509106
0.0004803015740509099
0.0004803015740509106
0.0004803015740509104
0.0004803015740509104
0.0004803015740509101
0.0004803015740509103
0.0004803015740509104
0.0004803015740509107
0.0004803015740509104
0.00048030157405091
0.0004803015740509107
0.0004803015740509099
0.0004803015740509108
0.0004803015740509097
0.000480301574050911
0.00048030157405091
0.0004803015740509103
0.0004803015740509105
0.0004803015740509102
0.0004803015740509097
0.0004803015740509105
0.000480301574050911
0.0004803015740509104
0.0004803015740509097
0.0004803015740509103
0.0004803015740509105
0.0004803015740509105
0.0004803015740509104
0.0004803015740509103
0.0004803015740509102
0.0004803015740509104
0.0004803015740509101
0.0004803015740509109
0.0004803015740509098
0.0004803015740509105
0.0004803015740509104
0.0004803015740509112
0.0004803015740509105
0.0004803015740509104
0.0004803015740509096
0.0004803015740509109
0.0004803015740509096
0.0004803015740509094
0.0004803015740509112
0.0004803015740509104
0.0004803015740509104
0.0004803015740509102
0.0004803015740509105
0.0004803015740509102
0.0004803015740509104
0.000480301574050911
0.0004020343139054737
0.0004020343139054661
0.0004020343139054624
0.0004020343139054626
0.0004020343139054628
0.0004020343139054653
0.000402034313905464
0.0004020343139054633
0.0004020343139054658
0.0004020343139054632
0.0004020343139054635
0.0004020343139054613
0.0004020343139054567
0.0004020343139054543
0.0004020343139054566
0.0004020343139054557
0.0004020343139054584
0.0004020343139054563
0.0004020343139054562
0.000402034313905459
0.0004020343139054581
0.0004020343139054572
0.0004020343139054611
0.0004020343139054572
0.0004020343139054584
0.0004020343139054615
0.0004020343139054594
0.0004020343139054591
0.0004020343139054587
0.0004020343139054614
0.0004020343139054606
0.0004020343139054622
0.0004020343139054622
0.0004020343139054629
0.0004020343139054633
0.0004020343139054641
0.0004020343139054644
0.0004020343139054643
0.0004020343139054652
0.0004020343139054678
0.0004020343139054647
0.0004020343139054645
0.0004020343139054685
0.0004020343139054681
0.0004020343139054704
0.0004020343139054687
0.0004020343139054718
0.0004020343139054653
0.0004020343139054664
0.0004020343139054667
0.000402034313905468
0.0004020343139054678
0.0004020343139054697
0.0004020343139054685
0.0004020343139054729
0.0004020343139054667
0.0004020343139054643
0.0004020343139054637
0.0004020343139054671
0.0004020343139054621
0.0004020343139054607
0.0004020343139054613
0.0004020343139054645
0.0004020343139054588
0.0004020343139054589
0.0004020343139054546
0.0007410271384871659
0.0007410271384871485
0.0007410271384871427
0.0007410271384871393
0.0007410271384871424
0.0007410271384871457
0.0007410271384871412
0.000741027138487141
0.0007410271384871459
0.0007410271384871407
0.0007410271384871405
0.0007410271384871341
0.0007410271384871216
0.0007410271384871196
0.0007410271384871277
0.0007410271384871248
0.00074102713848713
0.0007410271384871217
0.0007410271384871212
0.0007410271384871305
0.0007410271384871274
0.0007410271384871267
0.0007410271384871342
0.0007410271384871257
0.0007410271384871277
0.0007410271384871354
0.0007410271384871319
0.0007410271384871318
0.0007410271384871295
0.000741027138487134
0.0007410271384871351
0.0007410271384871418
0.000741027138487142
0.0007410271384871381
0.0007410271384871394
0.0007410271384871392
0.0007410271384871397
0.0007410271384871468
0.0007410271384871488
0.0007410271384871527
0.0007410271384871444
0.0007410271384871441
0.0007410271384871527
0.0007410271384871525
0.0007410271384871596
0.0007410271384871544
0.0007410271384871618
0.0007410271384871478
0.0007410271384871512
0.0007410271384871524
0.0007410271384871556
0.0007410271384871574
0.0007410271384871634
0.0007410271384871584
0.0007410271384871677
0.0007410271384871518
0.000741027138487148
0.0007410271384871479
0.0007410271384871502
0.0007410271384871373
0.0007410271384871353
0.0007410271384871382
0.0007410271384871437
0.0007410271384871275
0.0007410271384871269
0.0007410271384871176
0.001021583765106867
0.001021583765106856
0.00102158376510685
0.001021583765106844
0.001021583765106849
0.001021583765106847
0.001021583765106836
0.001021583765106837
0.001021583765106848
0.001021583765106839
0.001021583765106833
0.00102158376510683
0.001021583765106815
0.001021583765106811
0.001021583765106822
0.001021583765106817
0.001021583765106824
0.001021583765106816
0.001021583765106808
0.001021583765106822
0.001021583765106815
0.001021583765106813
0.001021583765106827
0.001021583765106821
0.001021583765106814
0.00102158376510683
0.001021583765106826
0.001021583765106821
0.001021583765106825
0.001021583765106828
0.001021583765106827
0.001021583765106838
0.001021583765106841
0.001021583765106843
0.001021583765106838
0.001021583765106834
0.001021583765106838
0.001021583765106847
0.001021583765106849
0.001021583765106859
0.001021583765106854
0.001021583765106846
0.001021583765106854
0.001021583765106851
0.001021583765106864
0.001021583765106863
0.001021583765106869
0.001021583765106856
0.00102158376510686
0.001021583765106868
0.001021583765106868
0.001021583765106872
0.001021583765106873
0.001021583765106871
0.001021583765106881
0.001021583765106867
0.001021583765106857
0.001021583765106863
0.001021583765106856
0.001021583765106837
0.00102158376510684
0.001021583765106847
0.001021583765106837
0.001021583765106827
0.001021583765106819
0.001021583765106805
0.001329376328456548
0.001329376328456554
0.001329376328456547
0.001329376328456533
0.001329376328456539
0.001329376328456536
0.001329376328456512
0.001329376328456516
0.001329376328456525
0.001329376328456523
0.001329376328456518
0.001329376328456518
0.001329376328456507
0.001329376328456481
0.001329376328456496
0.001329376328456488
0.001329376328456497
0.001329376328456493
0.001329376328456473
0.001329376328456489
0.001329376328456493
0.001329376328456478
0.001329376328456497
0.001329376328456499
0.001329376328456479
0.001329376328456501
0.001329376328456507
0.001329376328456492
0.001329376328456508
0.00132937632845651
0.001329376328456506
0.001329376328456515
0.001329376328456517
0.001329376328456531
0.001329376328456535
0.001329376328456517
0.001329376328456531
0.001329376328456526
0.001329376328456526
0.001329376328456548
0.001329376328456549
0.001329376328456536
0.001329376328456549
0.001329376328456538
0.00132937632845655
0.00132937632845655
0.001329376328456559
0.001329376328456556
0.001329376328456556
0.001329376328456565
0.001329376328456563
0.001329376328456578
0.001329376328456568
0.001329376328456567
0.001329376328456581
0.001329376328456572
0.001329376328456554
0.001329376328456566
0.001329376328456554
0.001329376328456531
0.001329376328456517
0.001329376328456533
0.001329376328456522
0.001329376328456511
0.001329376328456509
0.001329376328456469
0.001744392646893387
0.001744392646893402
0.001744392646893391
0.001744392646893373
0.001744392646893373
0.001744392646893378
0.001744392646893353
0.001744392646893334
0.001744392646893338
0.001744392646893341
0.00174439264689333
0.001744392646893349
0.001744392646893361
0.001744392646893297
0.00174439264689331
0.001744392646893298
0.001744392646893311
0.001744392646893323
0.001744392646893265
0.00174439264689331
0.001744392646893297
0.001744392646893288
0.001744392646893326
0.001744392646893313
0.00174439264689329
0.001744392646893331
0.001744392646893325
0.001744392646893308
0.001744392646893347
0.001744392646893341
0.001744392646893326
0.001744392646893354
0.001744392646893318
0.001744392646893379
0.001744392646893372
0.001744392646893355
0.001744392646893385
0.001744392646893365
0.001744392646893362
0.001744392646893405
0.001744392646893396
0.001744392646893379
0.001744392646893402
0.001744392646893376
0.001744392646893395
0.001744392646893397
0.001744392646893391
0.0017443926468934
0.00174439264689342
0.001744392646893441
0.001744392646893401
0.001744392646893436
0.001744392646893443
0.001744392646893413
0.001744392646893442
0.001744392646893459
0.001744392646893413
0.00174439264689343
0.001744392646893412
0.00174439264689339
0.001744392646893358
0.001744392646893351
0.001744392646893347
0.001744392646893348
0.001744392646893352
0.00174439264689327
0.002326371206371613
0.002326371206371582
0.002326371206371544
0.00232637120637154
0.00232637120637152
0.002326371206371553
0.002326371206371467
0.002326371206371546
0.002326371206371446
0.002326371206371488
0.002326371206371461
0.002326371206371529
0.002326371206371465
0.002326371206371449
0.002326371206371447
0.002326371206371406
0.002326371206371473
0.002326371206371426
0.002326371206371379
0.002326371206371461
0.002326371206371437
0.0023263712063714
0.002326371206371445
0.002326371206371509
0.002326371206371393
0.002326371206371455
0.002326371206371523
0.002326371206371422
0.002326371206371487
0.002326371206371557
0.002326371206371452
0.002326371206371541
0.002326371206371438
0.002326371206371533
0.002326371206371611
0.002326371206371498
0.00232637120637155
0.002326371206371617
0.002326371206371509
0.00232637120637158
0.00232637120637165
0.002326371206371545
0.002326371206371599
0.002326371206371564
0.002326371206371539
0.002326371206371618
0.002326371206371565
0.002326371206371582
0.00232637120637166
0.00232637120637162
0.002326371206371607
0.002326371206371633
0.002326371206371682
0.002326371206371609
0.002326371206371673
0.002326371206371642
0.002326371206371648
0.002326371206371667
0.002326371206371662
0.002326371206371511
0.002326371206371485
0.002326371206371516
0.002326371206371508
0.002326371206371545
0.002326371206371469
0.002326371206371398
0.003020450409364886
0.00302045040936498
0.00302045040936478
0.003020450409364817
0.00302045040936477
0.003020450409364744
0.003020450409364678
0.003020450409364744
0.00302045040936469
0.003020450409364673
0.003020450409364685
0.003020450409364704
0.003020450409364658
0.003020450409364707
0.003020450409364782
0.003020450409364548
0.003020450409364637
0.003020450409364732
0.003020450409364538
0.003020450409364642
0.003020450409364775
0.003020450409364574
0.003020450409364731
0.003020450409364694
0.003020450409364626
0.003020450409364771
0.003020450409364733
0.00302045040936467
0.003020450409364821
0.003020450409364785
0.003020450409364725
0.003020450409364868
0.003020450409364685
0.003020450409364814
0.003020450409364969
0.003020450409364764
0.003020450409364854
0.003020450409364888
0.003020450409364817
0.003020450409364973
0.003020450409364933
0.003020450409364871
0.003020450409364926
0.003020450409364857
0.003020450409364979
0.003020450409365012
0.003020450409364892
0.003020450409364898
0.003020450409365034
0.003020450409364984
0.003020450409364943
0.003020450409364964
0.00302045040936496
0.003020450409365101
0.003020450409364902
0.003020450409365103
0.003020450409365017
0.003020450409365159
0.003020450409364989
0.003020450409364899
0.003020450409364708
0.003020450409364776
0.003020450409364866
0.003020450409364702
0.003020450409364721
0.003020450409364586
0.003697215029797312
0.003697215029797369
0.003697215029797085
0.003697215029797052
0.00369721502979706
0.003697215029797175
0.003697215029796925
0.003697215029797019
0.003697215029797008
0.003697215029796859
0.003697215029796979
0.003697215029797148
0.003697215029796827
0.003697215029797049
0.003697215029796901
0.003697215029796791
0.003697215029797004
0.003697215029796858
0.003697215029796826
0.003697215029797044
0.003697215029796959
0.003697215029796854
0.003697215029797073
0.003697215029796991
0.003697215029796895
0.003697215029797014
0.003697215029797201
0.003697215029796924
0.003697215029797083
0.003697215029797279
0.003697215029797005
0.003697215029797158
0.003697215029797064
0.003697215029797291
0.003697215029797234
0.003697215029797135
0.003697215029797251
0.003697215029797448
0.003697215029797134
0.003697215029797301
0.003697215029797505
0.003697215029797192
0.003697215029797245
0.003697215029797242
0.003697215029797314
0.003697215029797343
0.00369721502979735
0.003697215029797302
0.003697215029797394
0.003697215029797542
0.003697215029797325
0.003697215029797424
0.003697215029797372
0.003697215029797595
0.003697215029797302
0.003697215029797425
0.003697215029797463
0.003697215029797495
0.003697215029797545
0.003697215029797127
0.003697215029797059
0.00369721502979716
0.003697215029797067
0.003697215029797062
0.003697215029797041
0.003697215029796741
0.004272829214592344
0.004272829214592582
0.004272829214592418
0.004272829214592033
0.00427282921459206
0.004272829214591984
0.004272829214592065
0.004272829214592022
0.004272829214592084
0.004272829214591936
0.004272829214592223
0.004272829214592008
0.004272829214591915
0.004272829214591937
0.004272829214592062
0.004272829214591775
0.004272829214591906
0.004272829214591864
0.004272829214592013
0.004272829214592086
0.004272829214592224
0.004272829214591847
0.004272829214592069
0.004272829214592326
0.004272829214591933
0.004272829214592283
0.004272829214592133
0.004272829214592102
0.004272829214592423
0.004272829214592255
0.004272829214592213
0.004272829214592328
0.004272829214592259
0.004272829214592376
0.004272829214592612
0.004272829214592229
0.004272829214592436
0.004272829214592743
0.00427282921459231
0.004272829214592516
0.004272829214592807
0.004272829214592361
0.004272829214592449
0.004272829214592439
0.004272829214592707
0.004272829214592758
0.004272829214592481
0.00427282921459247
0.004272829214592772
0.004272829214592463
0.004272829214592598
0.004272829214592585
0.004272829214592757
0.004272829214592975
0.004272829214592865
0.004272829214592595
0.004272829214592933
0.004272829214592526
0.004272829214592689
0.004272829214592432
0.004272829214592281
0.004272829214592288
0.004272829214592099
0.004272829214592323
0.004272829214592017
0.004272829214591762
0.00473139761090043
0.0047313976109003
0.004731397610900029
0.004731397610900072
0.004731397610900144
0.004731397610899606
0.004731397610899844
0.004731397610900186
0.004731397610899666
0.004731397610899857
0.004731397610900203
0.004731397610899675
0.00473139761089988
0.004731397610900189
0.00473139761089967
0.004731397610899859
0.004731397610900195
0.00473139761089968
0.004731397610899956
0.004731397610900302
0.004731397610899785
0.004731397610899773
0.004731397610900237
0.004731397610900049
0.004731397610899974
0.004731397610900369
0.004731397610899884
0.004731397610900172
0.004731397610900552
0.004731397610900121
0.004731397610900575
0.004731397610900075
0.004731397610900238
0.004731397610900294
0.004731397610900308
0.004731397610900268
0.004731397610900673
0.004731397610900561
0.004731397610900387
0.004731397610900773
0.004731397610900624
0.004731397610900425
0.004731397610900455
0.00473139761090075
0.004731397610900412
0.004731397610900571
0.004731397610900911
0.004731397610900346
0.004731397610900409
0.004731397610900837
0.004731397610900717
0.004731397610900551
0.00473139761090093
0.00473139761090072
0.004731397610900683
0.004731397610900826
0.004731397610901102
0.004731397610900632
0.004731397610900695
0.004731397610900856
0.004731397610900673
0.004731397610900447
0.004731397610899859
0.004731397610900031
0.004731397610899978
0.004731397610899544
0.005085115522180069
0.005085115522180365
0.00508511552217953
0.005085115522179933
0.005085115522179563
0.005085115522179329
0.005085115522179509
0.005085115522179941
0.005085115522179232
0.005085115522179523
0.005085115522179963
0.005085115522179298
0.005085115522179608
0.005085115522180067
0.005085115522179395
0.005085115522179696
0.005085115522180141
0.005085115522179474
0.005085115522179805
0.005085115522180246
0.005085115522179588
0.005085115522180073
0.005085115522179947
0.005085115522179808
0.005085115522180008
0.005085115522180442
0.005085115522179814
0.005085115522180363
0.00508511552218017
0.005085115522180093
0.005085115522180553
0.005085115522179987
0.005085115522180069
0.005085115522180492
0.005085115522180005
0.005085115522180057
0.005085115522180594
0.005085115522180299
0.005085115522180171
0.00508511552218071
0.005085115522180396
0.005085115522180249
0.005085115522180321
0.005085115522180324
0.005085115522180739
0.005085115522180586
0.005085115522181089
0.005085115522180396
0.005085115522180216
0.0050851155221805
0.00508511552218089
0.00508511552218022
0.005085115522180366
0.00508511552218035
0.005085115522180599
0.005085115522180553
0.005085115522180651
0.005085115522180752
0.005085115522180749
0.00508511552218082
0.005085115522180933
0.005085115522180284
0.005085115522179463
0.005085115522179853
0.005085115522179553
0.005085115522179219
0.005349320762714647
0.005349320762714243
0.005349320762713734
0.005349320762714128
0.005349320762713802
0.005349320762713469
0.005349320762713972
0.005349320762713773
0.005349320762713509
0.005349320762714087
0.00534932076271387
0.005349320762713654
0.005349320762714261
0.005349320762714153
0.00534932076271389
0.005349320762714195
0.005349320762714703
0.005349320762713927
0.00534932076271432
0.005349320762714884
0.005349320762714089
0.005349320762714743
0.005349320762714527
0.005349320762714321
0.005349320762714904
0.005349320762714707
0.005349320762714473
0.005349320762714557
0.005349320762714553
0.005349320762714806
0.005349320762715153
0.005349320762714467
0.005349320762714605
0.005349320762714629
0.005349320762714665
0.005349320762714573
0.005349320762714761
0.005349320762714543
0.005349320762714678
0.005349320762714838
0.005349320762714664
0.005349320762715111
0.005349320762714892
0.005349320762714702
0.005349320762715289
0.005349320762715069
0.005349320762715603
0.005349320762714806
0.005349320762714631
0.005349320762715149
0.005349320762714765
0.005349320762714539
0.005349320762714727
0.005349320762714527
0.005349320762714897
0.005349320762714724
0.005349320762715092
0.005349320762715051
0.005349320762715258
0.005349320762715642
0.005349320762714938
0.005349320762714686
0.005349320762713672
0.005349320762713672
0.00534932076271366
0.005349320762713408
0.005537025752507755
0.00553702575250724
0.005537025752506683
0.005537025752507168
0.005537025752506849
0.005537025752506515
0.005537025752506831
0.005537025752507242
0.005537025752506624
0.005537025752507135
0.005537025752507008
0.005537025752506942
0.005537025752507441
0.005537025752508031
0.005537025752507225
0.005537025752507719
0.005537025752508377
0.005537025752507474
0.005537025752508245
0.005537025752508103
0.005537025752507799
0.005537025752508109
0.005537025752508562
0.005537025752507836
0.005537025752508828
0.005537025752508226
0.005537025752508071
0.005537025752508151
0.005537025752508027
0.005537025752508051
0.005537025752508068
0.005537025752508621
0.005537025752508196
0.005537025752508037
0.005537025752508569
0.005537025752507952
0.005537025752507883
0.005537025752507916
0.00553702575250789
0.005537025752508166
0.005537025752507953
0.005537025752508504
0.005537025752508223
0.005537025752508039
0.005537025752508421
0.005537025752508874
0.005537025752508026
0.005537025752508314
0.005537025752508686
0.005537025752508595
0.005537025752508445
0.005537025752507503
0.005537025752507655
0.005537025752507616
0.005537025752507889
0.005537025752507889
0.005537025752508837
0.005537025752508264
0.005537025752508249
0.005537025752508455
0.005537025752508701
0.005537025752508268
0.005537025752506831
0.005537025752507007
0.005537025752507335
0.005537025752506125
0.005659140935693559
0.005659140935692961
0.005659140935692379
0.005659140935693059
0.00565914093569272
0.005659140935692471
0.005659140935693196
0.005659140935692426
0.00565914093569313
0.005659140935693867
0.005659140935693142
0.005659140935693199
0.005659140935693857
0.005659140935694677
0.005659140935693742
0.005659140935694313
0.0056591409356951
0.005659140935694063
0.005659140935694942
0.005659140935694533
0.005659140935694348
0.00565914093569445
0.005659140935694436
0.005659140935695102
0.005659140935694837
0.005659140935694525
0.005659140935694815
0.00565914093569542
0.005659140935694276
0.00565914093569425
0.005659140935694202
0.005659140935694419
0.005659140935694368
0.005659140935694388
0.005659140935694274
0.005659140935694264
0.005659140935694083
0.005659140935694216
0.005659140935694115
0.005659140935693953
0.005659140935694184
0.005659140935693986
0.005659140935694131
0.005659140935694204
0.005659140935694558
0.005659140935694881
0.005659140935693743
0.005659140935694698
0.005659140935694309
0.005659140935695157
0.005659140935694193
0.005659140935693465
0.005659140935693564
0.005659140935693452
0.005659140935693693
0.005659140935693785
0.005659140935694073
0.005659140935694079
0.005659140935694354
0.005659140935694801
0.005659140935693848
0.00565914093569321
0.005659140935693092
0.005659140935692809
0.00565914093569283
0.005659140935691529
0.005725245519806379
0.005725245519806726
0.005725245519805557
0.005725245519806702
0.00572524551980699
0.005725245519806976
0.005725245519807327
0.005725245519806195
0.005725245519807828
0.00572524551980729
0.005725245519807861
0.005725245519807649
0.005725245519808781
0.005725245519808434
0.005725245519808316
0.005725245519808825
0.005725245519809638
0.005725245519808602
0.005725245519808781
0.005725245519808643
0.00572524551980891
0.005725245519809576
0.005725245519808286
0.005725245519808811
0.005725245519809402
0.005725245519808329
0.005725245519808793
0.005725245519809557
0.00572524551980916
0.005725245519807794
0.005725245519807815
0.005725245519808069
0.005725245519808075
0.005725245519808134
0.005725245519807876
0.005725245519807886
0.005725245519807713
0.005725245519808633
0.005725245519808142
0.005725245519807679
0.005725245519807637
0.005725245519807517
0.005725245519808377
0.005725245519808815
0.005725245519808038
0.005725245519808423
0.00572524551980705
0.005725245519808245
0.005725245519807388
0.00572524551980862
0.005725245519807927
0.005725245519807114
0.005725245519806962
0.005725245519806859
0.005725245519807199
0.00572524551980792
0.005725245519807027
0.005725245519807899
0.005725245519808077
0.005725245519807373
0.005725245519807416
0.005725245519806458
0.005725245519806448
0.005725245519806445
0.005725245519804949
0.005725245519804594
0.005744233757514702
0.005744233757514645
0.005744233757515871
0.005744233757516553
0.005744233757517293
0.005744233757516481
0.005744233757517354
0.005744233757517198
0.005744233757518659
0.005744233757517751
0.005744233757518992
0.00574423375751804
0.00574423375751881
0.005744233757519897
0.005744233757518764
0.005744233757519232
0.005744233757519294
0.005744233757520318
0.005744233757519346
0.005744233757518722
0.005744233757518992
0.005744233757519823
0.005744233757518116
0.005744233757518205
0.00574423375751809
0.005744233757518983
0.005744233757517852
0.005744233757518194
0.0057442337575189
0.005744233757517757
0.005744233757517369
0.005744233757517365
0.005744233757517383
0.005744233757517487
0.005744233757517076
0.005744233757517377
0.005744233757516812
0.005744233757517978
0.00574423375751758
0.005744233757516933
0.005744233757516727
0.005744233757516577
0.005744233757517592
0.005744233757517422
0.005744233757516867
0.005744233757517554
0.005744233757516295
0.005744233757516573
0.005744233757516493
0.005744233757517652
0.005744233757517097
0.005744233757516301
0.005744233757515664
0.00574423375751601
0.005744233757515727
0.005744233757517203
0.005744233757516257
0.005744233757517056
0.005744233757516094
0.005744233757516514
0.005744233757517303
0.005744233757515136
0.00574423375751492
0.005744233757515216
0.005744233757514629
0.005744233757512976
0.005724894060766662
0.005724894060766706
0.005724894060768588
0.005724894060770954
0.005724894060771321
0.005724894060771667
0.005724894060772043
0.005724894060772214
0.00572489406077299
0.005724894060772793
0.005724894060773835
0.005724894060773869
0.005724894060772315
0.005724894060773389
0.005724894060774165
0.005724894060772682
0.00572489406077298
0.005724894060772986
0.005724894060772936
0.005724894060772374
0.005724894060772263
0.005724894060773126
0.005724894060772393
0.005724894060772064
0.005724894060770207
0.005724894060771621
0.005724894060771065
0.0057248940607706
0.005724894060770499
0.005724894060770612
0.005724894060771433
0.005724894060769385
0.00572489406077062
0.005724894060769965
0.005724894060769276
0.005724894060769645
0.005724894060769119
0.005724894060770314
0.00572489406076977
0.005724894060769143
0.005724894060768925
0.005724894060768729
0.005724894060769895
0.005724894060768647
0.005724894060769515
0.005724894060770344
0.005724894060769868
0.00572489406076959
0.005724894060768182
0.005724894060768634
0.005724894060768898
0.00572489406076962
0.005724894060767454
0.00572489406076805
0.005724894060767424
0.005724894060768782
0.005724894060768905
0.005724894060767839
0.005724894060768176
0.005724894060767771
0.005724894060767836
0.005724894060768248
0.005724894060766217
0.005724894060766884
0.005724894060766625
0.005724894060764508
0.005676532400499335
0.00567653240049927
0.005676532400502557
0.005676532400506445
0.005676532400507895
0.005676532400508623
0.005676532400507705
0.005676532400507707
0.005676532400507977
0.005676532400508191
0.005676532400509114
0.005676532400508924
0.005676532400506524
0.005676532400506816
0.005676532400508006
0.005676532400506074
0.005676532400506675
0.005676532400505779
0.005676532400505714
0.005676532400505304
0.005676532400504372
0.00567653240050479
0.005676532400505615
0.00567653240050442
0.005676532400501858
0.0056765324005033
0.005676532400502888
0.005676532400502273
0.005676532400501862
0.005676532400502231
0.005676532400502633
0.005676532400500777
0.005676532400502413
0.005676532400501533
0.005676532400500822
0.005676532400500593
0.005676532400501639
0.005676532400500361
0.005676532400500588
0.005676532400500434
0.005676532400500357
0.005676532400500055
0.005676532400500325
0.005676532400500309
0.005676532400501231
0.005676532400500854
0.005676532400501237
0.005676532400500322
0.005676532400499731
0.005676532400499533
0.005676532400500788
0.005676532400499626
0.005676532400498844
0.005676532400499246
0.005676532400498283
0.005676532400499026
0.005676532400498643
0.00567653240049886
0.005676532400499591
0.005676532400498141
0.00567653240049803
0.005676532400498368
0.005676532400497199
0.005676532400497245
0.005676532400497823
0.005676532400495236
0.005609839130322074
0.005609839130327946
0.005609839130332807
0.005609839130336081
0.005609839130335665
0.005609839130336652
0.005609839130334703
0.005609839130334494
0.005609839130334205
0.005609839130335311
0.005609839130333796
0.005609839130334647
0.005609839130330684
0.005609839130330335
0.005609839130331406
0.005609839130328898
0.005609839130329295
0.005609839130329101
0.005609839130326782
0.005609839130327453
0.005609839130328253
0.005609839130326487
0.005609839130327505
0.005609839130327188
0.005609839130323081
0.005609839130324731
0.005609839130324117
0.005609839130325245
0.005609839130324114
0.005609839130324341
0.00560983913032193
0.005609839130323477
0.005609839130323972
0.005609839130322295
0.005609839130323356
0.005609839130321087
0.005609839130321713
0.005609839130322879
0.005609839130320833
0.005609839130321707
0.005609839130322759
0.005609839130320943
0.005609839130321453
0.005609839130321614
0.005609839130322846
0.005609839130320866
0.005609839130322559
0.005609839130321601
0.005609839130320483
0.005609839130321658
0.005609839130320711
0.005609839130322226
0.00560983913032005
0.005609839130320313
0.005609839130319138
0.005609839130319267
0.005609839130319153
0.005609839130319036
0.005609839130319779
0.005609839130318699
0.005609839130318922
0.005609839130318698
0.005609839130317583
0.005609839130317448
0.005609839130317319
0.005609839130316521
0.005538783536095863
0.005538783536109719
0.005538783536113162
0.005538783536111092
0.005538783536110621
0.005538783536107272
0.005538783536107288
0.005538783536103373
0.0055387835361031
0.00553878353610225
0.00553878353610214
0.005538783536102153
0.005538783536098642
0.005538783536095057
0.005538783536095453
0.005538783536094015
0.005538783536094122
0.005538783536092235
0.005538783536091501
0.005538783536091181
0.005538783536092142
0.005538783536091025
0.005538783536091135
0.005538783536088838
0.005538783536086901
0.005538783536087614
0.005538783536088897
0.005538783536086653
0.005538783536087278
0.00553878353608852
0.005538783536085384
0.005538783536087934
0.005538783536087083
0.005538783536087926
0.005538783536087657
0.005538783536084781
0.005538783536085709
0.005538783536087226
0.005538783536084876
0.00553878353608574
0.005538783536085687
0.005538783536087499
0.005538783536085769
0.005538783536085532
0.005538783536086419
0.005538783536085606
0.005538783536085733
0.005538783536085642
0.005538783536084156
0.005538783536084817
0.005538783536084311
0.00553878353608439
0.005538783536083996
0.005538783536084385
0.005538783536082855
0.005538783536082978
0.005538783536082731
0.005538783536082829
0.00553878353608431
0.005538783536081637
0.005538783536081707
0.005538783536082309
0.005538783536080978
0.00553878353608091