/*--------------------------------*- C++ -*----------------------------------*\
| =========                 |                                                 |
| \\      /  F ield         | OpenFOAM: The Open Source CFD Toolbox           |
|  \\    /   O peration     | Version:  v1812                                 |
|   \\  /    A nd           | Web:      www.OpenFOAM.com                      |
|    \\/     M anipulation  |                                                 |
\*---------------------------------------------------------------------------*/
FoamFile
{
    version     2.0;
    format      ascii;
    class       volScalarField;
    location    "10000";
    object      nuTilda_0;
}
// * * * * * * * * * * * * * * * * * * * * * * * * * * * * * * * * * * * * * //

dimensions      [0 2 -1 0 0 0 0];


internalField   nonuniform List<scalar> 
2838
(
0.0004803015740509108
0.0004803015740509108
0.0004803015740509109
0.000480301574050911
0.0004803015740509108
0.000480301574050911
0.0004803015740509112
0.0004803015740509109
0.0004803015740509108
0.0004803015740509111
0.0004803015740509109
0.0004803015740509111
0.0004803015740509106
0.0004803015740509108
0.0004803015740509111
0.0004803015740509104
0.0004803015740509111
0.000480301574050911
0.000480301574050911
0.0004803015740509105
0.0004803015740509107
0.0004803015740509109
0.0004803015740509113
0.0004803015740509111
0.0004803015740509105
0.0004803015740509113
0.0004803015740509105
0.0004803015740509112
0.0004803015740509101
0.0004803015740509114
0.0004803015740509106
0.0004803015740509107
0.0004803015740509111
0.0004803015740509108
0.0004803015740509102
0.0004803015740509112
0.0004803015740509117
0.0004803015740509109
0.0004803015740509102
0.0004803015740509107
0.0004803015740509108
0.000480301574050911
0.000480301574050911
0.0004803015740509111
0.0004803015740509109
0.0004803015740509108
0.000480301574050911
0.0004803015740509116
0.0004803015740509102
0.0004803015740509111
0.0004803015740509108
0.0004803015740509115
0.000480301574050911
0.0004803015740509108
0.0004803015740509102
0.0004803015740509116
0.0004803015740509104
0.0004803015740509102
0.0004803015740509116
0.000480301574050911
0.0004803015740509108
0.000480301574050911
0.0004803015740509111
0.0004803015740509109
0.0004803015740509108
0.0004803015740509115
0.0004020343139055196
0.0004020343139055113
0.0004020343139055064
0.0004020343139055084
0.000402034313905509
0.0004020343139055109
0.0004020343139055081
0.0004020343139055084
0.0004020343139055109
0.0004020343139055074
0.000402034313905508
0.0004020343139055078
0.000402034313905503
0.0004020343139054987
0.0004020343139055
0.0004020343139054997
0.0004020343139055033
0.0004020343139055004
0.0004020343139055008
0.0004020343139055044
0.0004020343139055017
0.0004020343139055022
0.0004020343139055065
0.0004020343139055039
0.0004020343139055038
0.0004020343139055065
0.0004020343139055032
0.0004020343139055032
0.0004020343139055039
0.0004020343139055053
0.0004020343139055035
0.0004020343139055071
0.0004020343139055075
0.00040203431390551
0.0004020343139055087
0.0004020343139055087
0.0004020343139055105
0.0004020343139055099
0.0004020343139055094
0.0004020343139055125
0.0004020343139055112
0.0004020343139055098
0.0004020343139055124
0.000402034313905512
0.0004020343139055149
0.0004020343139055137
0.0004020343139055168
0.0004020343139055115
0.0004020343139055102
0.0004020343139055122
0.0004020343139055138
0.0004020343139055118
0.0004020343139055116
0.0004020343139055115
0.000402034313905517
0.0004020343139055109
0.0004020343139055085
0.0004020343139055097
0.0004020343139055124
0.0004020343139055073
0.0004020343139055051
0.0004020343139055057
0.0004020343139055096
0.0004020343139055062
0.0004020343139055057
0.0004020343139055004
0.0007410271384872784
0.0007410271384872605
0.0007410271384872489
0.0007410271384872547
0.0007410271384872549
0.0007410271384872583
0.0007410271384872509
0.0007410271384872524
0.0007410271384872592
0.0007410271384872488
0.0007410271384872502
0.0007410271384872484
0.0007410271384872383
0.0007410271384872261
0.0007410271384872315
0.0007410271384872298
0.0007410271384872389
0.0007410271384872342
0.0007410271384872337
0.000741027138487242
0.0007410271384872361
0.0007410271384872361
0.0007410271384872462
0.0007410271384872422
0.0007410271384872411
0.0007410271384872472
0.000741027138487241
0.0007410271384872416
0.0007410271384872466
0.0007410271384872473
0.0007410271384872433
0.0007410271384872517
0.0007410271384872513
0.0007410271384872518
0.0007410271384872543
0.0007410271384872512
0.0007410271384872539
0.0007410271384872594
0.0007410271384872576
0.0007410271384872638
0.0007410271384872591
0.0007410271384872586
0.0007410271384872654
0.0007410271384872639
0.0007410271384872708
0.000741027138487266
0.000741027138487274
0.0007410271384872642
0.0007410271384872625
0.0007410271384872647
0.0007410271384872673
0.0007410271384872656
0.0007410271384872672
0.0007410271384872654
0.0007410271384872774
0.0007410271384872619
0.0007410271384872549
0.0007410271384872582
0.0007410271384872638
0.0007410271384872521
0.0007410271384872479
0.0007410271384872478
0.000741027138487255
0.0007410271384872436
0.0007410271384872419
0.0007410271384872293
0.001021583765107029
0.001021583765107019
0.001021583765107007
0.001021583765107011
0.001021583765107012
0.001021583765107012
0.001021583765107005
0.001021583765107003
0.001021583765107014
0.001021583765107002
0.001021583765106999
0.00102158376510699
0.001021583765106981
0.00102158376510697
0.001021583765106975
0.001021583765106969
0.001021583765106981
0.001021583765106975
0.00102158376510697
0.001021583765106983
0.001021583765106979
0.001021583765106976
0.001021583765106989
0.001021583765106984
0.001021583765106979
0.001021583765106992
0.001021583765106987
0.001021583765106986
0.001021583765106992
0.001021583765106993
0.001021583765106995
0.001021583765107004
0.001021583765107001
0.001021583765107005
0.001021583765107006
0.001021583765107008
0.001021583765107009
0.001021583765107015
0.001021583765107014
0.001021583765107024
0.001021583765107015
0.001021583765107012
0.001021583765107022
0.001021583765107022
0.001021583765107031
0.001021583765107026
0.001021583765107033
0.001021583765107023
0.001021583765107023
0.001021583765107033
0.00102158376510703
0.001021583765107038
0.001021583765107038
0.001021583765107031
0.001021583765107041
0.00102158376510703
0.001021583765107015
0.001021583765107021
0.001021583765107017
0.001021583765107007
0.001021583765107004
0.001021583765107008
0.001021583765107
0.001021583765106996
0.001021583765106989
0.001021583765106966
0.00132937632845678
0.001329376328456779
0.001329376328456779
0.001329376328456763
0.001329376328456771
0.001329376328456764
0.001329376328456753
0.001329376328456755
0.001329376328456765
0.001329376328456757
0.001329376328456759
0.001329376328456752
0.001329376328456725
0.001329376328456717
0.001329376328456726
0.001329376328456711
0.001329376328456722
0.001329376328456721
0.001329376328456701
0.001329376328456725
0.00132937632845672
0.001329376328456716
0.001329376328456733
0.001329376328456728
0.001329376328456718
0.001329376328456737
0.001329376328456734
0.001329376328456731
0.001329376328456744
0.00132937632845675
0.00132937632845674
0.001329376328456753
0.001329376328456753
0.001329376328456767
0.001329376328456763
0.001329376328456762
0.001329376328456767
0.001329376328456769
0.001329376328456769
0.001329376328456785
0.001329376328456784
0.001329376328456765
0.001329376328456779
0.001329376328456776
0.001329376328456793
0.001329376328456789
0.001329376328456797
0.001329376328456791
0.001329376328456791
0.001329376328456803
0.001329376328456803
0.001329376328456813
0.001329376328456814
0.001329376328456798
0.001329376328456813
0.001329376328456806
0.001329376328456783
0.001329376328456794
0.001329376328456786
0.001329376328456767
0.001329376328456759
0.001329376328456769
0.001329376328456752
0.001329376328456752
0.001329376328456736
0.001329376328456706
0.001744392646893739
0.001744392646893732
0.001744392646893737
0.001744392646893702
0.001744392646893731
0.001744392646893717
0.001744392646893689
0.001744392646893686
0.001744392646893693
0.001744392646893692
0.001744392646893685
0.001744392646893705
0.001744392646893678
0.001744392646893633
0.001744392646893652
0.001744392646893628
0.001744392646893654
0.001744392646893635
0.001744392646893611
0.001744392646893641
0.001744392646893641
0.001744392646893623
0.00174439264689365
0.001744392646893669
0.001744392646893622
0.001744392646893658
0.001744392646893682
0.001744392646893641
0.001744392646893674
0.001744392646893702
0.001744392646893658
0.001744392646893686
0.001744392646893687
0.001744392646893713
0.001744392646893735
0.00174439264689369
0.0017443926468937
0.001744392646893712
0.001744392646893709
0.001744392646893733
0.001744392646893758
0.00174439264689371
0.001744392646893743
0.001744392646893696
0.001744392646893732
0.001744392646893742
0.001744392646893757
0.001744392646893743
0.001744392646893774
0.001744392646893761
0.00174439264689376
0.001744392646893797
0.001744392646893771
0.001744392646893769
0.001744392646893799
0.001744392646893779
0.001744392646893749
0.001744392646893758
0.001744392646893754
0.001744392646893713
0.001744392646893711
0.00174439264689371
0.001744392646893677
0.001744392646893685
0.001744392646893658
0.001744392646893616
0.002326371206372087
0.002326371206372151
0.002326371206372033
0.002326371206372038
0.002326371206372038
0.002326371206372035
0.002326371206372035
0.002326371206372004
0.002326371206371988
0.002326371206372051
0.002326371206371956
0.002326371206372007
0.002326371206372044
0.002326371206371925
0.002326371206371945
0.002326371206371909
0.002326371206371936
0.002326371206371983
0.002326371206371866
0.002326371206371929
0.002326371206372001
0.002326371206371887
0.002326371206371985
0.002326371206371954
0.002326371206371918
0.002326371206372002
0.002326371206371985
0.002326371206371948
0.002326371206372034
0.002326371206372012
0.002326371206371981
0.002326371206372003
0.002326371206372011
0.002326371206372094
0.002326371206372073
0.002326371206372033
0.002326371206372106
0.002326371206372068
0.00232637120637204
0.002326371206372132
0.002326371206372106
0.002326371206372072
0.002326371206372137
0.002326371206372063
0.00232637120637207
0.002326371206372104
0.00232637120637212
0.002326371206372101
0.002326371206372145
0.002326371206372158
0.00232637120637211
0.002326371206372163
0.002326371206372148
0.002326371206372146
0.002326371206372165
0.002326371206372183
0.002326371206372142
0.002326371206372172
0.002326371206372081
0.002326371206372072
0.002326371206372014
0.002326371206372051
0.002326371206372011
0.002326371206372013
0.002326371206372016
0.002326371206371875
0.003020450409365711
0.003020450409365649
0.003020450409365584
0.003020450409365646
0.00302045040936551
0.003020450409365511
0.003020450409365526
0.003020450409365594
0.003020450409365408
0.003020450409365472
0.003020450409365444
0.003020450409365465
0.003020450409365429
0.003020450409365538
0.003020450409365416
0.003020450409365333
0.003020450409365465
0.00302045040936538
0.003020450409365323
0.003020450409365475
0.003020450409365437
0.003020450409365364
0.003020450409365439
0.003020450409365545
0.003020450409365347
0.003020450409365458
0.003020450409365596
0.003020450409365404
0.003020450409365513
0.003020450409365649
0.003020450409365462
0.003020450409365507
0.003020450409365513
0.003020450409365687
0.003020450409365632
0.003020450409365564
0.00302045040936561
0.003020450409365742
0.003020450409365548
0.003020450409365667
0.003020450409365802
0.003020450409365608
0.003020450409365759
0.003020450409365569
0.003020450409365655
0.003020450409365695
0.003020450409365721
0.003020450409365662
0.003020450409365728
0.003020450409365866
0.003020450409365685
0.003020450409365724
0.00302045040936572
0.00302045040936578
0.003020450409365793
0.003020450409365847
0.003020450409365875
0.003020450409365801
0.003020450409365734
0.003020450409365527
0.003020450409365522
0.003020450409365569
0.003020450409365522
0.00302045040936549
0.003020450409365519
0.003020450409365283
0.003697215029798283
0.003697215029798285
0.003697215029798287
0.003697215029798152
0.003697215029798212
0.003697215029798101
0.003697215029798089
0.003697215029798219
0.003697215029798175
0.003697215029797912
0.00369721502979819
0.003697215029798068
0.003697215029797956
0.003697215029798031
0.003697215029798128
0.003697215029797824
0.003697215029797976
0.00369721502979808
0.003697215029797855
0.003697215029798007
0.003697215029798199
0.003697215029797894
0.003697215029798031
0.003697215029798238
0.003697215029797927
0.003697215029798195
0.003697215029798128
0.003697215029798047
0.00369721502979828
0.00369721502979821
0.003697215029798138
0.003697215029798332
0.003697215029798086
0.003697215029798273
0.003697215029798486
0.003697215029798181
0.003697215029798432
0.003697215029798367
0.003697215029798271
0.003697215029798495
0.003697215029798435
0.003697215029798339
0.003697215029798371
0.003697215029798338
0.003697215029798466
0.00369721502979846
0.003697215029798511
0.003697215029798362
0.003697215029798563
0.003697215029798509
0.003697215029798483
0.003697215029798627
0.003697215029798376
0.003697215029798492
0.003697215029798532
0.003697215029798699
0.00369721502979862
0.003697215029798648
0.003697215029798324
0.0036972150297983
0.003697215029798191
0.003697215029798353
0.003697215029798124
0.003697215029798168
0.003697215029798077
0.003697215029797759
0.004272829214593904
0.004272829214593784
0.004272829214593649
0.00427282921459354
0.00427282921459359
0.004272829214593429
0.004272829214593636
0.004272829214593456
0.004272829214593703
0.004272829214593273
0.004272829214593511
0.004272829214593675
0.004272829214593288
0.004272829214593354
0.004272829214593318
0.00427282921459324
0.00427282921459341
0.0042728292145933
0.004272829214593586
0.004272829214593585
0.004272829214593432
0.004272829214593376
0.004272829214593666
0.004272829214593558
0.004272829214593432
0.004272829214593602
0.004272829214593809
0.004272829214593499
0.004272829214593709
0.004272829214593905
0.004272829214593619
0.004272829214593941
0.004272829214593658
0.004272829214593936
0.004272829214593861
0.004272829214593748
0.004272829214594063
0.004272829214593959
0.004272829214593829
0.004272829214594145
0.004272829214594017
0.004272829214593887
0.004272829214594017
0.00427282921459388
0.004272829214594023
0.004272829214594039
0.004272829214594057
0.004272829214593957
0.004272829214594087
0.004272829214594103
0.004272829214594224
0.004272829214594055
0.004272829214594435
0.00427282921459421
0.004272829214594146
0.004272829214594141
0.004272829214594192
0.004272829214594213
0.004272829214594339
0.004272829214593691
0.004272829214593704
0.004272829214593851
0.004272829214593469
0.004272829214593549
0.004272829214593564
0.004272829214593061
0.004731397610902008
0.004731397610902364
0.00473139761090172
0.004731397610902057
0.004731397610901552
0.004731397610901508
0.004731397610901873
0.004731397610901753
0.0047313976109016
0.004731397610901868
0.004731397610901739
0.004731397610901606
0.004731397610901892
0.004731397610901719
0.004731397610901546
0.004731397610901853
0.004731397610901747
0.00473139761090158
0.004731397610901976
0.00473139761090183
0.004731397610901798
0.004731397610901653
0.004731397610901869
0.004731397610902114
0.004731397610901716
0.004731397610901879
0.004731397610901915
0.004731397610902271
0.004731397610902108
0.004731397610902031
0.0047313976109022
0.004731397610902219
0.004731397610902318
0.004731397610902143
0.004731397610902146
0.004731397610902122
0.004731397610902356
0.004731397610902679
0.004731397610902158
0.004731397610902437
0.004731397610902713
0.004731397610902177
0.004731397610902344
0.004731397610902333
0.004731397610902315
0.004731397610902441
0.004731397610902423
0.004731397610902413
0.004731397610902352
0.004731397610902543
0.00473139761090289
0.004731397610902335
0.004731397610902612
0.004731397610902842
0.004731397610902446
0.004731397610902893
0.004731397610902664
0.004731397610902519
0.004731397610902546
0.004731397610902256
0.004731397610902152
0.004731397610901928
0.004731397610901819
0.004731397610902016
0.004731397610901882
0.004731397610901245
0.005085115522182403
0.00508511552218217
0.005085115522181832
0.005085115522181896
0.005085115522181986
0.005085115522181496
0.005085115522181958
0.00508511552218182
0.00508511552218157
0.005085115522182014
0.00508511552218184
0.005085115522181635
0.005085115522182097
0.005085115522181933
0.005085115522181705
0.005085115522182141
0.005085115522182001
0.005085115522181802
0.005085115522182267
0.005085115522182073
0.005085115522181927
0.005085115522182103
0.005085115522182442
0.005085115522181929
0.005085115522182419
0.005085115522182289
0.005085115522182162
0.005085115522182427
0.005085115522182715
0.005085115522182234
0.00508511552218241
0.005085115522182438
0.005085115522182547
0.005085115522182425
0.005085115522182419
0.005085115522182358
0.005085115522182588
0.00508511552218291
0.005085115522182374
0.005085115522182699
0.005085115522182995
0.005085115522182375
0.005085115522182581
0.005085115522182555
0.005085115522182789
0.0050851155221832
0.005085115522183005
0.005085115522182956
0.00508511552218244
0.00508511552218299
0.005085115522182841
0.005085115522182592
0.005085115522182673
0.005085115522182647
0.005085115522183101
0.005085115522182894
0.00508511552218299
0.005085115522183391
0.00508511552218305
0.005085115522183158
0.005085115522182639
0.005085115522181917
0.005085115522181806
0.005085115522181894
0.005085115522182084
0.005085115522181235
0.005349320762716919
0.005349320762717159
0.005349320762716172
0.005349320762716442
0.005349320762716883
0.00534932076271598
0.00534932076271634
0.005349320762716811
0.005349320762716056
0.005349320762716461
0.005349320762716912
0.005349320762716229
0.005349320762716654
0.005349320762717176
0.005349320762716433
0.005349320762717082
0.005349320762716884
0.005349320762716706
0.005349320762717285
0.005349320762717082
0.005349320762716845
0.005349320762717119
0.005349320762717589
0.005349320762716856
0.005349320762717249
0.005349320762717708
0.005349320762717027
0.005349320762717233
0.005349320762717231
0.005349320762717839
0.005349320762717357
0.005349320762717244
0.005349320762717383
0.005349320762717283
0.00534932076271747
0.005349320762717218
0.005349320762717633
0.005349320762717077
0.005349320762717285
0.005349320762717888
0.005349320762717255
0.005349320762717532
0.005349320762718037
0.005349320762717291
0.005349320762717668
0.005349320762718204
0.005349320762717936
0.005349320762717834
0.005349320762717301
0.0053493207627175
0.005349320762717727
0.005349320762717209
0.005349320762717708
0.00534932076271713
0.005349320762717979
0.005349320762717331
0.005349320762718103
0.005349320762717764
0.005349320762718273
0.005349320762717869
0.00534932076271762
0.005349320762716555
0.005349320762716485
0.005349320762716489
0.005349320762716518
0.005349320762716037
0.005537025752510429
0.005537025752510775
0.005537025752509517
0.00553702575250987
0.005537025752510466
0.005537025752509456
0.005537025752510223
0.005537025752509945
0.005537025752509841
0.005537025752510577
0.005537025752510062
0.005537025752510074
0.005537025752510878
0.005537025752510636
0.00553702575251048
0.005537025752511168
0.005537025752510956
0.005537025752510737
0.005537025752511112
0.005537025752511651
0.005537025752510759
0.005537025752511503
0.00553702575251123
0.005537025752511078
0.005537025752511702
0.00553702575251175
0.005537025752511038
0.005537025752511314
0.005537025752511151
0.005537025752511226
0.005537025752511176
0.005537025752511448
0.005537025752511859
0.00553702575251108
0.005537025752511324
0.005537025752511434
0.005537025752510973
0.005537025752511113
0.005537025752511041
0.005537025752511704
0.005537025752510949
0.005537025752511309
0.005537025752511979
0.005537025752511099
0.005537025752511837
0.005537025752511562
0.00553702575251127
0.00553702575251185
0.005537025752511372
0.005537025752511119
0.00553702575251103
0.005537025752510852
0.005537025752510951
0.005537025752510839
0.005537025752511338
0.005537025752511111
0.00553702575251184
0.005537025752511869
0.005537025752511368
0.005537025752511727
0.005537025752511263
0.005537025752510795
0.005537025752509888
0.00553702575251048
0.005537025752509945
0.005537025752509351
0.005659140935696679
0.005659140935697072
0.005659140935695699
0.00565914093569619
0.005659140935696902
0.005659140935695897
0.005659140935696266
0.005659140935696327
0.005659140935697388
0.005659140935697038
0.005659140935697026
0.005659140935696859
0.005659140935697915
0.005659140935697768
0.005659140935697522
0.005659140935698311
0.005659140935698106
0.005659140935697833
0.005659140935698169
0.005659140935698727
0.00565914093569779
0.005659140935698064
0.005659140935698041
0.005659140935698367
0.005659140935698971
0.005659140935698041
0.005659140935698813
0.005659140935698485
0.005659140935698034
0.005659140935698042
0.005659140935697914
0.005659140935698252
0.005659140935698069
0.00565914093569822
0.005659140935697844
0.00565914093569811
0.005659140935697728
0.005659140935698028
0.005659140935697679
0.00565914093569775
0.005659140935698336
0.005659140935697473
0.005659140935697942
0.005659140935697911
0.005659140935698595
0.005659140935697719
0.005659140935697645
0.005659140935698088
0.005659140935698559
0.005659140935698334
0.005659140935698112
0.005659140935696998
0.005659140935697456
0.005659140935697087
0.005659140935697598
0.005659140935697552
0.005659140935698023
0.005659140935697845
0.005659140935698448
0.005659140935697852
0.005659140935697711
0.005659140935696473
0.005659140935696874
0.005659140935696711
0.005659140935695653
0.005659140935695257
0.005725245519810886
0.005725245519810112
0.005725245519809723
0.00572524551981042
0.005725245519810553
0.005725245519810604
0.005725245519810684
0.005725245519810847
0.00572524551981176
0.00572524551981179
0.005725245519812591
0.005725245519811699
0.00572524551981253
0.005725245519812859
0.005725245519812462
0.005725245519813402
0.005725245519813139
0.005725245519812878
0.005725245519812897
0.005725245519812781
0.00572524551981344
0.005725245519813081
0.005725245519812674
0.00572524551981352
0.00572524551981298
0.005725245519812704
0.005725245519813581
0.005725245519813125
0.005725245519812588
0.005725245519812543
0.005725245519812253
0.005725245519812606
0.005725245519812412
0.005725245519812519
0.005725245519812026
0.005725245519812153
0.00572524551981198
0.005725245519812505
0.005725245519813004
0.005725245519811714
0.005725245519811973
0.005725245519811793
0.005725245519812252
0.005725245519812823
0.005725245519812852
0.005725245519811635
0.005725245519811469
0.00572524551981207
0.005725245519812083
0.005725245519812471
0.005725245519812692
0.005725245519810886
0.005725245519811351
0.005725245519811011
0.00572524551981196
0.005725245519811522
0.005725245519811481
0.005725245519811606
0.005725245519811828
0.005725245519811842
0.005725245519811773
0.005725245519810256
0.005725245519810888
0.005725245519809502
0.00572524551980942
0.005725245519808971
0.005744233757519457
0.005744233757519202
0.005744233757520405
0.005744233757520755
0.005744233757521269
0.005744233757521327
0.005744233757522597
0.005744233757521793
0.005744233757522806
0.005744233757522811
0.005744233757523124
0.005744233757523158
0.005744233757524315
0.005744233757524066
0.005744233757523734
0.005744233757524563
0.005744233757524089
0.005744233757524737
0.005744233757524825
0.005744233757523094
0.00574423375752417
0.005744233757523713
0.005744233757523099
0.005744233757523188
0.005744233757522933
0.005744233757523267
0.005744233757523297
0.005744233757523531
0.005744233757522926
0.005744233757522802
0.005744233757522348
0.005744233757522519
0.005744233757522366
0.005744233757522544
0.005744233757521786
0.00574423375752269
0.005744233757521408
0.005744233757522424
0.005744233757523371
0.005744233757521521
0.005744233757521608
0.00574423375752149
0.005744233757521774
0.005744233757521867
0.005744233757522082
0.00574423375752183
0.005744233757521189
0.005744233757521688
0.005744233757521605
0.005744233757522159
0.005744233757522909
0.005744233757520561
0.005744233757520682
0.005744233757521524
0.005744233757520523
0.005744233757521723
0.005744233757521948
0.005744233757521277
0.005744233757521255
0.005744233757522117
0.005744233757521368
0.005744233757519858
0.005744233757519913
0.00574423375751889
0.005744233757518574
0.005744233757518051
0.005724894060772294
0.005724894060771936
0.005724894060773787
0.005724894060776216
0.005724894060777462
0.005724894060777266
0.005724894060777762
0.005724894060777661
0.005724894060778897
0.005724894060778076
0.005724894060778265
0.0057248940607785
0.005724894060778717
0.005724894060779949
0.005724894060778798
0.005724894060778464
0.005724894060778693
0.005724894060778517
0.005724894060778687
0.005724894060777633
0.005724894060778003
0.005724894060777568
0.005724894060776787
0.005724894060776544
0.005724894060776099
0.00572489406077671
0.00572489406077771
0.005724894060775992
0.005724894060776167
0.005724894060776961
0.005724894060776356
0.00572489406077504
0.00572489406077567
0.005724894060776404
0.005724894060774462
0.005724894060775813
0.005724894060774436
0.005724894060775406
0.005724894060776502
0.005724894060774446
0.005724894060774531
0.005724894060774333
0.005724894060774615
0.00572489406077468
0.005724894060775994
0.005724894060774993
0.005724894060774388
0.005724894060774225
0.005724894060774174
0.005724894060774388
0.00572489406077521
0.005724894060774506
0.005724894060772881
0.005724894060774241
0.005724894060772761
0.005724894060773618
0.00572489406077382
0.005724894060773971
0.005724894060774649
0.005724894060773256
0.005724894060773553
0.005724894060772558
0.005724894060772357
0.005724894060771316
0.005724894060770926
0.00572489406077027
0.005676532400505203
0.005676532400505366
0.00567653240050863
0.005676532400512455
0.005676532400513409
0.005676532400513849
0.005676532400514022
0.005676532400514609
0.005676532400514361
0.00567653240051475
0.005676532400514104
0.005676532400513672
0.005676532400513359
0.005676532400513584
0.005676532400513259
0.005676532400513161
0.005676532400513973
0.005676532400511861
0.005676532400512677
0.005676532400512376
0.005676532400510476
0.005676532400511606
0.005676532400510702
0.005676532400509996
0.005676532400507943
0.005676532400509063
0.005676532400510597
0.005676532400508226
0.005676532400508316
0.005676532400509394
0.00567653240050759
0.005676532400507512
0.005676532400508143
0.005676532400509145
0.005676532400506851
0.005676532400507079
0.005676532400507062
0.005676532400507055
0.005676532400507523
0.005676532400506797
0.005676532400506848
0.005676532400506472
0.005676532400507027
0.005676532400506897
0.005676532400508802
0.005676532400507358
0.0056765324005084
0.00567653240050594
0.005676532400506141
0.005676532400505829
0.005676532400506295
0.005676532400506328
0.005676532400504804
0.005676532400506079
0.00567653240050414
0.005676532400506156
0.00567653240050472
0.005676532400505822
0.005676532400505509
0.005676532400504643
0.005676532400504676
0.005676532400505148
0.005676532400503064
0.005676532400503823
0.005676532400502591
0.00567653240050148
0.005609839130328906
0.005609839130334839
0.005609839130339742
0.005609839130342536
0.005609839130343485
0.005609839130342274
0.005609839130342083
0.005609839130342255
0.005609839130341572
0.005609839130341623
0.005609839130341723
0.005609839130340515
0.005609839130337554
0.00560983913033822
0.005609839130337276
0.005609839130336907
0.005609839130337217
0.005609839130334595
0.005609839130334439
0.005609839130334548
0.005609839130334865
0.00560983913033504
0.005609839130334427
0.005609839130332858
0.005609839130330236
0.005609839130331232
0.00560983913033284
0.005609839130331688
0.005609839130331283
0.005609839130330126
0.005609839130329334
0.005609839130330022
0.005609839130330066
0.005609839130330151
0.005609839130329311
0.005609839130328912
0.005609839130329473
0.005609839130328845
0.005609839130328447
0.005609839130329866
0.005609839130328845
0.005609839130328428
0.005609839130328765
0.00560983913032999
0.005609839130328581
0.005609839130328311
0.005609839130329004
0.005609839130330146
0.005609839130327146
0.005609839130327858
0.005609839130328894
0.005609839130328547
0.005609839130327966
0.005609839130327994
0.005609839130325821
0.005609839130326755
0.00560983913032659
0.005609839130326717
0.005609839130327938
0.005609839130325547
0.005609839130325849
0.005609839130326769
0.005609839130324232
0.005609839130324768
0.005609839130324709
0.005609839130323247
0.00553878353610372
0.005538783536117586
0.005538783536119853
0.005538783536120402
0.00553878353611715
0.005538783536117076
0.005538783536115624
0.005538783536111296
0.005538783536112576
0.005538783536110869
0.00553878353611189
0.005538783536110162
0.00553878353610425
0.005538783536104089
0.005538783536104935
0.005538783536102343
0.005538783536103162
0.005538783536099704
0.005538783536100216
0.005538783536100106
0.0055387835360986
0.005538783536098171
0.005538783536098047
0.005538783536097865
0.005538783536094639
0.005538783536096774
0.005538783536096264
0.005538783536095098
0.005538783536096367
0.005538783536095094
0.005538783536094122
0.005538783536095608
0.005538783536096803
0.005538783536094946
0.005538783536094075
0.005538783536093351
0.005538783536095273
0.005538783536094176
0.005538783536093444
0.005538783536094876
0.005538783536094116
0.005538783536095058
0.005538783536095276
0.005538783536093774
0.005538783536095288
0.005538783536093084
0.005538783536093482
0.005538783536094882
0.005538783536091633
0.00553878353609365
0.005538783536092172
0.005538783536092634
0.005538783536091912
0.005538783536093135
0.005538783536090349
0.005538783536091643
0.00553878353609089
0.005538783536091759
0.005538783536091219
0.005538783536090203
0.005538783536090288
0.005538783536091415
0.005538783536088651
0.005538783536089318
0.005538783536088541