/*--------------------------------*- C++ -*----------------------------------*\
| =========                 |                                                 |
| \\      /  F ield         | OpenFOAM: The Open Source CFD Toolbox           |
|  \\    /   O peration     | Version:  v1812                                 |
|   \\  /    A nd           | Web:      www.OpenFOAM.com                      |
|    \\/     M anipulation  |                                                 |
\*---------------------------------------------------------------------------*/
FoamFile
{
    version     2.0;
    format      ascii;
    class       volScalarField;
    location    "10000";
    object      p;
}
// * * * * * * * * * * * * * * * * * * * * * * * * * * * * * * * * * * * * * //

dimensions      [0 2 -2 0 0 0 0];


internalField   nonuniform List<scalar> 
2838
(
2.600292141351137e-17
4.90637010498258e-15
4.369726009909422e-15
2.93085594756226e-15
2.568247585599079e-15
2.296083711458349e-15
1.990551137091027e-15
1.575307067649855e-15
1.334091043915774e-15
1.132822358440936e-15
8.72011346652122e-16
8.669121872521098e-16
7.200603278746857e-16
4.520669899621289e-16
3.790086612846503e-16
1.777037018556552e-16
1.314408680182179e-16
3.437180630568714e-16
1.826936859339847e-16
2.442551090960869e-16
3.878643247537272e-16
3.914139258610726e-16
5.502422048796853e-16
7.571703690784649e-16
8.678610004931726e-16
1.038990037087121e-15
1.228985789894783e-15
1.23689531105498e-15
1.353806560622201e-15
1.69441330292966e-15
1.885828532869626e-15
1.958595063919941e-15
2.233268441347951e-15
2.388628131767277e-15
2.688921527676686e-15
2.915999555680212e-15
3.07687545750203e-15
3.345361199969022e-15
3.460170100703544e-15
3.561015082081568e-15
3.935533546945633e-15
3.878081316982988e-15
3.924650246547507e-15
3.888681358351276e-15
3.891026964956671e-15
4.151966263714871e-15
4.283981036727421e-15
4.390854770845581e-15
4.353176399918676e-15
4.325646285987478e-15
4.505656649051099e-15
4.29513499345784e-15
4.103276338540662e-15
3.866030050665589e-15
3.847393779535791e-15
3.740421421019078e-15
3.634233236617061e-15
3.33320802904126e-15
3.675407090793872e-15
3.239924330724242e-15
3.081711203568837e-15
2.55867480418893e-15
2.78132152109685e-15
2.047723573708313e-15
2.138683041634601e-15
3.193460780812609e-16
1.380591712726515e-17
4.906293362450112e-15
4.375116155237322e-15
2.934144665501673e-15
2.570094979527245e-15
2.294728307331857e-15
1.99009418510428e-15
1.57593886906208e-15
1.333869599325816e-15
1.134709078845767e-15
8.741089812203591e-16
8.670144959994782e-16
7.210797094366913e-16
4.537555946821212e-16
3.79273722329963e-16
1.779471797847728e-16
1.320781519307132e-16
3.449032249107063e-16
1.825457822032811e-16
2.436774433724279e-16
3.894566903916107e-16
3.919702224861379e-16
5.484631965268854e-16
7.563650422112793e-16
8.683647746197499e-16
1.037166090561388e-15
1.228341261104537e-15
1.235476917594245e-15
1.352915123109288e-15
1.694474912872618e-15
1.883948940001097e-15
1.958093129143047e-15
2.23225123446116e-15
2.385844885033101e-15
2.688944434905406e-15
2.917526013701484e-15
3.075065133072978e-15
3.342917514333965e-15
3.460058833970208e-15
3.560725832228154e-15
3.933273177961678e-15
3.876835394389004e-15
3.925675460344686e-15
3.888675734848817e-15
3.890137637089162e-15
4.153005422667151e-15
4.285035293556882e-15
4.387854406313647e-15
4.351618914128537e-15
4.326173472664387e-15
4.506414166889468e-15
4.29642059864514e-15
4.105346175213348e-15
3.866830694249121e-15
3.848351300636615e-15
3.74016206784759e-15
3.635164241019811e-15
3.334968678594707e-15
3.675599953407701e-15
3.238648331867497e-15
3.083187764120113e-15
2.560142640867424e-15
2.783896954280498e-15
2.047610143017299e-15
2.143960989170934e-15
3.195047628176106e-16
-9.550965527648063e-18
4.903064458591316e-15
4.380886711257307e-15
2.941028293163241e-15
2.577158773252553e-15
2.290863316356809e-15
1.984905986763974e-15
1.581466190070503e-15
1.333248195824971e-15
1.133437105937498e-15
8.805753278144153e-16
8.670293400565904e-16
7.186392683514252e-16
4.549555690754016e-16
3.805775523803296e-16
1.806339779961282e-16
1.329398229745463e-16
3.455845652259702e-16
1.860913929531895e-16
2.452243506199471e-16
3.900567068509046e-16
3.952803997042522e-16
5.447733205265297e-16
7.508495762977597e-16
8.718833592798905e-16
1.036350789816856e-15
1.223927873905659e-15
1.233202203765956e-15
1.350240524216727e-15
1.692685196874539e-15
1.882646928303145e-15
1.956770928783024e-15
2.232263358426741e-15
2.383763927224184e-15
2.687097387525375e-15
2.915997492884602e-15
3.071438920204651e-15
3.339092996856021e-15
3.461619370789874e-15
3.560169116708832e-15
3.925690757927744e-15
3.86990521255263e-15
3.928277351854589e-15
3.89261662594873e-15
3.889817119619778e-15
4.155621171096039e-15
4.286739768870877e-15
4.379470372848174e-15
4.349759366758116e-15
4.330331823408799e-15
4.506059872013763e-15
4.295706718155957e-15
4.110391073672854e-15
3.87425360331592e-15
3.849128534160108e-15
3.732855848777877e-15
3.639082452312342e-15
3.340903136524903e-15
3.672051500224535e-15
3.231279873901312e-15
3.085558252938187e-15
2.568691226991482e-15
2.790217157895888e-15
2.046894567167013e-15
2.145125972841027e-15
3.244866515725622e-16
-4.458227842043772e-17
4.899919810530742e-15
4.396994753832788e-15
2.952291423806278e-15
2.58785559341972e-15
2.283399116579233e-15
1.976416659888724e-15
1.590119034931994e-15
1.333359764462829e-15
1.132255231898129e-15
8.883633357503261e-16
8.663502079315307e-16
7.128516293944862e-16
4.543782760352487e-16
3.809419698383204e-16
1.84728896846699e-16
1.370841452119946e-16
3.459132418136037e-16
1.923118865115204e-16
2.488091313108734e-16
3.913551829339438e-16
3.99586949761406e-16
5.398624437541538e-16
7.422775929483608e-16
8.755515389719661e-16
1.036508131766691e-15
1.217306500341969e-15
1.229504064629549e-15
1.346007027216788e-15
1.690711500374119e-15
1.881457810177121e-15
1.954196201511454e-15
2.23059113528889e-15
2.381196298965812e-15
2.684423842453725e-15
2.911131789695605e-15
3.067910507467422e-15
3.336369965761938e-15
3.461087452664414e-15
3.558892646180844e-15
3.914196841069248e-15
3.861138196779474e-15
3.931515821182456e-15
3.899004947428184e-15
3.888743476887448e-15
4.160719452624194e-15
4.290213779180058e-15
4.365437562772649e-15
4.346812664510526e-15
4.336706896931906e-15
4.508005091458809e-15
4.298359524938703e-15
4.116069560145542e-15
3.885408958284659e-15
3.851574957579822e-15
3.721209702716475e-15
3.645121003416131e-15
3.347188369655666e-15
3.663663940374944e-15
3.220623762500697e-15
3.091092651352051e-15
2.581255178551609e-15
2.798095039605672e-15
2.046127280522418e-15
2.142664949834011e-15
3.329593714857328e-16
-9.287494850066822e-17
4.891825562353201e-15
4.431063760738662e-15
2.968682926140945e-15
2.597313094179018e-15
2.272887005002444e-15
1.963872752154662e-15
1.597800435990402e-15
1.336522670977604e-15
1.130808815506425e-15
8.93399950504452e-16
8.644136985970699e-16
7.083638713186836e-16
4.52764000863644e-16
3.795195517598505e-16
1.85376830769749e-16
1.459692697050286e-16
3.47926882176963e-16
1.990482103391117e-16
2.534418161419953e-16
3.935222448398921e-16
4.028112583594934e-16
5.364624822770128e-16
7.323545047372503e-16
8.769567232026798e-16
1.036884970071774e-15
1.209842684228062e-15
1.224209190251413e-15
1.344099244152344e-15
1.689745161298053e-15
1.880587221506931e-15
1.951988682177791e-15
2.224808640367529e-15
2.37914094170878e-15
2.681236048625725e-15
2.905504681526223e-15
3.064755829894355e-15
3.334723257656621e-15
3.456634894323463e-15
3.555976017146484e-15
3.902370111949151e-15
3.854255300712994e-15
3.934437293167373e-15
3.905091833185348e-15
3.888387756665825e-15
4.164249458413983e-15
4.294582034142238e-15
4.348916467450803e-15
4.345023774393876e-15
4.343351503009237e-15
4.512671993997109e-15
4.307587296849894e-15
4.11870395953156e-15
3.894387543685612e-15
3.859210165645438e-15
3.708872009811211e-15
3.650363904809672e-15
3.350445600710748e-15
3.650697038223633e-15
3.211366039260853e-15
3.100363816389822e-15
2.592359246806624e-15
2.804418023175125e-15
2.048536270229945e-15
2.141851239279776e-15
3.459352746924844e-16
-1.611648803675446e-16
4.843436035935548e-15
4.47662492260275e-15
2.987843925869213e-15
2.611764489149081e-15
2.262521556911395e-15
1.947934004822908e-15
1.60430708596763e-15
1.335507974625173e-15
1.134323349505621e-15
8.973504229535361e-16
8.637950173842178e-16
7.067279053459765e-16
4.515206198817907e-16
3.728014428784919e-16
1.866200579752348e-16
1.599893219142458e-16
3.505963060576712e-16
2.02943610230006e-16
2.61436815864883e-16
3.9463074264483e-16
4.106344181522957e-16
5.315221264533776e-16
7.198640760577345e-16
8.793950321093729e-16
1.040040859611963e-15
1.202628095764557e-15
1.216228759276178e-15
1.347322193737573e-15
1.688447752165764e-15
1.878327888816767e-15
1.952949714752098e-15
2.220163668629678e-15
2.371412703055358e-15
2.676925559729565e-15
2.894675727887834e-15
3.06213089631852e-15
3.336685688371036e-15
3.448038430974417e-15
3.550466710296376e-15
3.892954409258051e-15
3.847395464583844e-15
3.93509150421672e-15
3.909660144263507e-15
3.887265174853478e-15
4.163897849313247e-15
4.297770971152356e-15
4.336383213713154e-15
4.346303247598826e-15
4.345318700775769e-15
4.521841225957343e-15
4.32032098276216e-15
4.116240800674517e-15
3.899253209381504e-15
3.870250543934588e-15
3.695133812659189e-15
3.659666888863489e-15
3.358251372407838e-15
3.628586523276572e-15
3.202471398199772e-15
3.106902273072302e-15
2.605880989915237e-15
2.807858310718143e-15
2.058612227359373e-15
2.15612100963838e-15
3.840202137163987e-16
-2.293569880067475e-16
4.700688775956628e-15
4.507343704493392e-15
3.003197135013248e-15
2.629490124793821e-15
2.274544214270478e-15
1.924306946585428e-15
1.609406432580815e-15
1.336311592648744e-15
1.128367409373559e-15
9.078561978224014e-16
8.689927514673672e-16
7.053475713042043e-16
4.520324987078983e-16
3.591399199091475e-16
1.845146397173186e-16
1.86968881364131e-16
3.520600234315269e-16
2.052564275730294e-16
2.752625489227968e-16
3.959790220607221e-16
4.163518259299648e-16
5.445906854769672e-16
7.000756359278141e-16
8.815186344680561e-16
1.050932784584543e-15
1.193201859587119e-15
1.208286827956854e-15
1.357474973791309e-15
1.684110061472808e-15
1.874512117378392e-15
1.95887279110644e-15
2.22060505000197e-15
2.368964099868166e-15
2.659920550764625e-15
2.877982140870228e-15
3.065989817854654e-15
3.334038631337123e-15
3.436224513432107e-15
3.541491729349371e-15
3.880368839974743e-15
3.843299602784057e-15
3.936880214176714e-15
3.910150103702869e-15
3.877200267305306e-15
4.163220063497764e-15
4.309864429367018e-15
4.32636129463802e-15
4.351350075481192e-15
4.339481951193301e-15
4.515643549393575e-15
4.350930379092138e-15
4.114207507438565e-15
3.892424712776402e-15
3.880069237152091e-15
3.677753243180535e-15
3.675632658355621e-15
3.381967897895484e-15
3.593409476224656e-15
3.188106841125318e-15
3.10137187823975e-15
2.620857130346146e-15
2.820159906785761e-15
2.087801502826061e-15
2.184013906039063e-15
4.811511593107442e-16
-2.12180271227461e-16
4.444318539221511e-15
4.464287401436984e-15
2.988778398338462e-15
2.646903157848963e-15
2.296282272551435e-15
1.900672387998916e-15
1.612732916204749e-15
1.341999622310588e-15
1.104300866811723e-15
9.282480526833076e-16
8.746667786438286e-16
6.86851120155932e-16
4.622040578894102e-16
3.514693567445789e-16
1.730204357294392e-16
2.397600764348358e-16
3.45541464283829e-16
1.946319465739524e-16
3.097530740349834e-16
3.938686381754805e-16
4.222673261669573e-16
5.795719710944828e-16
6.598537637952612e-16
8.834923707827741e-16
1.084001772036895e-15
1.180573219758299e-15
1.204992053780645e-15
1.377945357021138e-15
1.66361149453307e-15
1.866593733902343e-15
1.978509076982125e-15
2.230602978839823e-15
2.363467222354545e-15
2.64840055941188e-15
2.845390251146079e-15
3.073241801699723e-15
3.325309991889608e-15
3.436309800710261e-15
3.545294443207362e-15
3.870759110168434e-15
3.831219548318325e-15
3.940306272026631e-15
3.903677710252392e-15
3.837337190725402e-15
4.163446100472371e-15
4.32796580966177e-15
4.323013185383499e-15
4.37368735880321e-15
4.32286997332931e-15
4.490736180204249e-15
4.395732594049977e-15
4.12160751081857e-15
3.879142385807136e-15
3.88566264016237e-15
3.668673880610069e-15
3.680336962826549e-15
3.401540307810728e-15
3.568906580102537e-15
3.170518479328462e-15
3.096348464047352e-15
2.62590879861661e-15
2.799648441602778e-15
2.142384024624332e-15
2.206615078894501e-15
6.627149998977683e-16
-4.728306904789715e-17
4.124333090861066e-15
4.271255990790924e-15
2.916958941632602e-15
2.658752094058774e-15
2.314895147720422e-15
1.896701415444063e-15
1.612933154857469e-15
1.303069831265972e-15
1.084832406880201e-15
9.757559334624001e-16
8.805864425479615e-16
6.547657908464761e-16
5.125622260010891e-16
3.258991617953936e-16
1.461773581980602e-16
3.197608895818536e-16
3.356682695670727e-16
1.717116364570181e-16
3.683893533503452e-16
3.804539515512439e-16
4.248557957616826e-16
6.351917154588921e-16
6.355985792530941e-16
8.772096864504646e-16
1.126114106778464e-15
1.149303160346001e-15
1.19699752043175e-15
1.431331575601884e-15
1.654973142745558e-15
1.842500641696944e-15
1.976791992838497e-15
2.251452877276185e-15
2.396781447716702e-15
2.610277308431443e-15
2.81747841378611e-15
3.075155121631452e-15
3.305683922904314e-15
3.458942604555128e-15
3.577429346350047e-15
3.849934696473114e-15
3.836484735966364e-15
3.921138399013686e-15
3.891644853580829e-15
3.826144639435234e-15
4.14130972078369e-15
4.319516289016583e-15
4.32596604961632e-15
4.418657613320729e-15
4.308504926958115e-15
4.485666322337465e-15
4.400370582380139e-15
4.137344598970101e-15
3.883646677217799e-15
3.875799082561813e-15
3.671871635891885e-15
3.668445949183959e-15
3.389366055938723e-15
3.538022865210437e-15
3.155055063065445e-15
3.082494086584944e-15
2.656213864324405e-15
2.743792342322738e-15
2.194934855717005e-15
2.269740538788867e-15
9.018250193340073e-16
2.588814374977435e-16
3.779214160819975e-15
3.930444569520616e-15
2.837230780249727e-15
2.660333634699631e-15
2.297290051032928e-15
1.899391368454474e-15
1.650313230782612e-15
1.273623032574478e-15
1.062788097765152e-15
1.069045541024862e-15
8.605949791751234e-16
5.985630976831933e-16
5.418786675932623e-16
3.024949454956445e-16
1.482456683942896e-16
3.636698057859525e-16
3.529405999442223e-16
1.820572375858812e-16
4.111751296000428e-16
3.592482441100329e-16
4.195618007022465e-16
6.92014258017548e-16
5.973454157524847e-16
8.63976157590701e-16
1.198942486393036e-15
1.114652037303757e-15
1.193161477800748e-15
1.490121047955316e-15
1.629334076718478e-15
1.8429194249957e-15
1.994452524745334e-15
2.266934508154053e-15
2.447540300396629e-15
2.56699621200918e-15
2.795664314840788e-15
3.103227891780212e-15
3.282571774715506e-15
3.447830809194037e-15
3.611501749045494e-15
3.8272285096862e-15
3.86003618348934e-15
3.913922840932059e-15
3.892023959538313e-15
3.863737112038936e-15
4.115868043482156e-15
4.273634398496063e-15
4.3385972239042e-15
4.465436344875401e-15
4.294868017529438e-15
4.480463491993151e-15
4.386625622254958e-15
4.15102341483893e-15
3.911227768489018e-15
3.830525219615253e-15
3.693569089650736e-15
3.69190900218273e-15
3.356884383687699e-15
3.461759704365642e-15
3.113796497590517e-15
3.07125741484681e-15
2.707551497854468e-15
2.695306195117629e-15
2.252212545650548e-15
2.333498476185548e-15
1.163267090999427e-15
6.898074700421448e-16
3.405798987839078e-15
3.533566109023768e-15
2.699912203784186e-15
2.598483059999304e-15
2.292617053918341e-15
1.933046320535043e-15
1.664237059339745e-15
1.252931414712575e-15
1.086530772097211e-15
1.096550263075841e-15
8.30839028197367e-16
5.652196705874685e-16
5.477079966944376e-16
3.187937721361139e-16
1.79470601542128e-16
3.619335471506527e-16
3.612166814910499e-16
1.879826150642587e-16
4.203756910243972e-16
3.460840047707947e-16
4.231986793709575e-16
7.174313583272338e-16
5.936694073906379e-16
8.57694672790119e-16
1.248744316678878e-15
1.136339196671926e-15
1.217271068619338e-15
1.496546146716413e-15
1.609476199591615e-15
1.881175661153961e-15
2.029247698071701e-15
2.264427994464789e-15
2.452545981642963e-15
2.545644665271506e-15
2.805715379946735e-15
3.152108956283423e-15
3.245257603804035e-15
3.42878562211532e-15
3.666221342116487e-15
3.824138764319597e-15
3.855173472228845e-15
3.919170763878892e-15
3.901796268643664e-15
3.887333851175808e-15
4.093096662514437e-15
4.21766643675204e-15
4.307224037277549e-15
4.508131596249746e-15
4.362059571586643e-15
4.479953424069822e-15
4.356527523348322e-15
4.189423309057694e-15
3.914320875834242e-15
3.777316086120749e-15
3.739229793923475e-15
3.686014859568825e-15
3.327767484974118e-15
3.361664069973157e-15
3.074509944178655e-15
3.062473280337807e-15
2.70063302464082e-15
2.667002804708125e-15
2.336389544954187e-15
2.379341771688166e-15
1.459865539807599e-15
1.223981031555399e-15
3.029227020320268e-15
3.069591061022965e-15
2.490066627412304e-15
2.510369348464378e-15
2.318576007908245e-15
1.987375821608477e-15
1.69975988460408e-15
1.245419556167174e-15
1.099215884403476e-15
1.063014820855215e-15
7.967614493922116e-16
6.222712513098554e-16
5.749660713524955e-16
3.457733152930088e-16
2.267125022161079e-16
3.314368950325725e-16
3.407765735520982e-16
1.582555091701735e-16
4.260827162926357e-16
3.643382990424857e-16
4.533786380210306e-16
7.320762684822456e-16
5.820881391275122e-16
8.915984046823299e-16
1.222265118367507e-15
1.160869151323768e-15
1.301822992359174e-15
1.468804615615175e-15
1.619610242069268e-15
1.933724748849955e-15
2.051472919448774e-15
2.2492339202728e-15
2.41219938678826e-15
2.547497370408143e-15
2.81578932957733e-15
3.206136245978589e-15
3.208988675355977e-15
3.394345598266613e-15
3.693431821035966e-15
3.833909408812137e-15
3.845141156265771e-15
3.964621209466338e-15
3.919547108453189e-15
3.867467801529987e-15
4.07264983510798e-15
4.216513452251295e-15
4.259179894683484e-15
4.526711414845293e-15
4.44401605202849e-15
4.475718487534076e-15
4.338025526889465e-15
4.197632023735988e-15
3.907112540872673e-15
3.782380588850822e-15
3.80444037712885e-15
3.629160426737945e-15
3.337900251620415e-15
3.325027019398594e-15
3.088073255002287e-15
2.991143266897085e-15
2.64904953047672e-15
2.601703641541112e-15
2.422736310072417e-15
2.409734088238568e-15
1.791566966067962e-15
1.81957081636631e-15
2.574253442606416e-15
2.512693537744832e-15
2.393825544422428e-15
2.446309356091543e-15
2.251119099831216e-15
2.034420158324835e-15
1.698364197892276e-15
1.232427139821562e-15
1.147250628382836e-15
1.056569491666019e-15
7.58878248299869e-16
6.55965338469832e-16
6.16041818541381e-16
3.805207713371361e-16
2.52147251129508e-16
3.096823341443961e-16
3.241834549884231e-16
1.774507715345473e-16
4.239162753975618e-16
3.918160053155942e-16
4.773657703515806e-16
6.810719594808945e-16
6.202398124604703e-16
9.680445254064432e-16
1.169263799050158e-15
1.154189514553427e-15
1.368530210802332e-15
1.504656217307121e-15
1.633361916945862e-15
1.912032362011761e-15
2.063236467884941e-15
2.257768466429593e-15
2.386340745369619e-15
2.522069792508192e-15
2.859880457594984e-15
3.207931730061552e-15
3.175835540476374e-15
3.422800749212884e-15
3.692211814257208e-15
3.837676680600745e-15
3.886756167712249e-15
3.992208658626787e-15
3.949768320547148e-15
3.86246296565007e-15
4.061542738703664e-15
4.190054757622882e-15
4.206870557695799e-15
4.516428672160323e-15
4.517236070808553e-15
4.459995731357271e-15
4.316476563123141e-15
4.165023003179288e-15
3.946901523033923e-15
3.849139492467966e-15
3.82419095688951e-15
3.63780736544281e-15
3.359176989128922e-15
3.29936882780387e-15
3.083003236801894e-15
2.857593771646563e-15
2.606336879688143e-15
2.546553956092165e-15
2.520917103363878e-15
2.443322253136427e-15
2.152843171522324e-15
2.454008279870248e-15
2.091115265510346e-15
1.937003895919959e-15
2.256044308100301e-15
2.3782109557919e-15
2.199849777950304e-15
2.061929878659629e-15
1.683209578463581e-15
1.266227714246618e-15
1.197413833038726e-15
1.035539245739929e-15
7.519760299550207e-16
6.763739398078908e-16
6.572251722837811e-16
4.200344014902285e-16
3.012978576777937e-16
2.929863998623269e-16
3.16839110951575e-16
2.526544511242359e-16
3.831960070326657e-16
3.930344878059952e-16
5.439319265546719e-16
6.409302621154613e-16
6.347572007713263e-16
1.045607034498153e-15
1.095628136463602e-15
1.100141336704098e-15
1.398329343523428e-15
1.54051757518151e-15
1.701293871619399e-15
1.90863779020378e-15
2.051842834955257e-15
2.265243129663427e-15
2.385871542837823e-15
2.545997892915214e-15
2.826958991866272e-15
3.130431677455799e-15
3.151529020490528e-15
3.51958614414938e-15
3.64027571714392e-15
3.843988910044362e-15
3.989318757568612e-15
4.028192665629761e-15
3.940418449409185e-15
3.90204778706099e-15
4.045817952196609e-15
4.12238051764874e-15
4.211101983404638e-15
4.452884576745915e-15
4.47810682023859e-15
4.473673786638823e-15
4.345183563978605e-15
4.144023931258021e-15
3.981967879690821e-15
3.873330516403368e-15
3.815003662747686e-15
3.685157060575159e-15
3.406018777616691e-15
3.244373422672007e-15
3.039748209885427e-15
2.744089165611304e-15
2.588781956045801e-15
2.550372071644671e-15
2.602249918085202e-15
2.477040379587233e-15
2.508219721324609e-15
3.141750210823906e-15
1.602577700642999e-15
1.341049160517946e-15
2.169262840361882e-15
2.341500716475469e-15
2.126840219246832e-15
2.026552494774875e-15
1.710864696817918e-15
1.35395340011817e-15
1.249381055300017e-15
1.032642133945918e-15
7.885564434546517e-16
6.854915313818846e-16
6.444164667135079e-16
4.644476958545992e-16
3.675435691089666e-16
3.069306960011294e-16
3.116258391005256e-16
2.934458298231545e-16
3.705069928104201e-16
3.559826712701786e-16
5.909963972938549e-16
6.467031673888187e-16
6.887811036617054e-16
1.052055332210401e-15
1.057204698491748e-15
1.105567437338297e-15
1.403574391600916e-15
1.512766662732072e-15
1.720950530269237e-15
1.921766015470369e-15
2.096234169714743e-15
2.266312651705877e-15
2.352161429659055e-15
2.560084182361597e-15
2.768619587263102e-15
3.035934677460198e-15
3.167572817255542e-15
3.573897305072086e-15
3.668947727309917e-15
3.866829052009052e-15
3.998717030148009e-15
4.06402627359656e-15
3.985826643232952e-15
3.895202836615758e-15
3.992739652383803e-15
4.112415268916887e-15
4.272176272414292e-15
4.367491613960056e-15
4.363640992444535e-15
4.519023929734215e-15
4.390224639576256e-15
4.114162223980539e-15
3.998417678205623e-15
3.87735479091649e-15
3.831759086771184e-15
3.743428237614656e-15
3.416571848609523e-15
3.182095090200921e-15
3.023926360830783e-15
2.650655677716066e-15
2.602293574922585e-15
2.521929061667916e-15
2.695995173785385e-15
2.472928373230344e-15
2.880144837967495e-15
3.874617354789666e-15
1.149957403555068e-15
7.697179216838941e-16
2.0339850424028e-15
2.276247173414844e-15
2.127941957252799e-15
1.989320804742534e-15
1.776473258685547e-15
1.485831065132481e-15
1.236101049539934e-15
1.005820445038317e-15
8.35473071881593e-16
7.597397136626489e-16
6.316257492950121e-16
4.842078722157002e-16
4.347865717792559e-16
3.3363338016811e-16
2.801091862887021e-16
3.143115305147014e-16
3.955757556114159e-16
3.562223733222792e-16
5.389896865040958e-16
6.912451632973842e-16
7.790169930825068e-16
1.000269248780211e-15
1.028255419882925e-15
1.170178329072515e-15
1.359487927230203e-15
1.475514184658375e-15
1.690064471223587e-15
1.947170957754959e-15
2.122513691426903e-15
2.290598763276826e-15
2.322339914478661e-15
2.561057648399992e-15
2.761408756938569e-15
2.956483466119746e-15
3.16332519994554e-15
3.575114980325012e-15
3.74213683407513e-15
3.835357053147328e-15
3.955829658237156e-15
4.129138950701446e-15
4.046794443861255e-15
3.849625940634996e-15
3.964202181963534e-15
4.096732452699997e-15
4.316488696600729e-15
4.348670285981257e-15
4.309008102864743e-15
4.511925994647559e-15
4.451287266917589e-15
4.10469817601853e-15
3.966475496616115e-15
3.88390835186233e-15
3.821310101976243e-15
3.692131107457719e-15
3.444421818789138e-15
3.192502002867694e-15
3.017067636206385e-15
2.55477681934196e-15
2.61928004651008e-15
2.429181145846665e-15
2.766213817666847e-15
2.461847270747017e-15
3.267526042321286e-15
4.579973712542169e-15
7.714942916495299e-16
3.621982668957154e-16
1.901090256833819e-15
2.172361637081492e-15
2.097832176765824e-15
2.023801153874958e-15
1.814697516278729e-15
1.556541632090502e-15
1.25668286134538e-15
1.061432977890599e-15
8.587420765042556e-16
8.592200371543777e-16
6.505384967767278e-16
4.930959716849212e-16
5.170351261451261e-16
3.473018024209859e-16
1.945385021950782e-16
2.593238005008384e-16
4.621844735728535e-16
4.3457423072533e-16
4.305221644034957e-16
6.584339212225223e-16
8.802771746789339e-16
9.877965501157322e-16
1.003761270363063e-15
1.188300950088358e-15
1.341094951472435e-15
1.416184204307402e-15
1.67367269148811e-15
1.960096743936029e-15
2.164561434291503e-15
2.30259460255667e-15
2.302057413613827e-15
2.527371001656133e-15
2.762148910866411e-15
2.918091125227704e-15
3.196373809793318e-15
3.531928657411561e-15
3.695339854496667e-15
3.828952856707191e-15
3.978522435204245e-15
4.20398106853316e-15
4.070693413192475e-15
3.788803594940888e-15
3.920328281858028e-15
4.08089463584489e-15
4.337112492149416e-15
4.350402887621693e-15
4.304821214852702e-15
4.491786259004149e-15
4.43551979959876e-15
4.128529313453048e-15
3.930729970637704e-15
3.875760909192956e-15
3.820274408068721e-15
3.648843223329797e-15
3.449559135799314e-15
3.204904885547586e-15
3.060559460644996e-15
2.487196158155884e-15
2.60276015812919e-15
2.311881001035761e-15
2.785025321180506e-15
2.437751184251574e-15
3.70112789670265e-15
5.235233697742795e-15
5.254615458194698e-16
5.479882071063905e-17
1.839136077380423e-15
2.112855224224828e-15
2.097345787458625e-15
2.040844278934278e-15
1.851480854453453e-15
1.614910398459273e-15
1.235152270734177e-15
1.091894487212945e-15
9.177907527731014e-16
9.152744033406038e-16
6.694592275987154e-16
5.222869616095651e-16
5.546940595114557e-16
3.643574992370307e-16
1.560480952812123e-16
1.743455929176593e-16
4.711424418187192e-16
5.191851823243775e-16
2.984058850752958e-16
5.942461397359293e-16
9.089853122605944e-16
9.761841926146559e-16
1.03641042720238e-15
1.189179912556641e-15
1.28462986396242e-15
1.439803564331498e-15
1.650032162213052e-15
1.943050724922663e-15
2.148965166582692e-15
2.332326309333982e-15
2.278769848836419e-15
2.516279125926871e-15
2.789650353942385e-15
2.890318871568034e-15
3.240103808786868e-15
3.479583974665676e-15
3.603783746934464e-15
3.815867767495617e-15
4.052816038054862e-15
4.240236938216032e-15
4.106098341914393e-15
3.779754387905435e-15
3.816083582380191e-15
4.039190849449983e-15
4.365835593917622e-15
4.380767331645702e-15
4.336418253524615e-15
4.461515284035185e-15
4.393326720438161e-15
4.119139549176145e-15
3.918380759819588e-15
3.88577355193188e-15
3.88292677542698e-15
3.590701182511585e-15
3.408677533498628e-15
3.226787442166622e-15
3.141059884156983e-15
2.42023848685181e-15
2.554560850081896e-15
2.161972814667122e-15
2.809324499794705e-15
2.446696915992542e-15
4.064893685614865e-15
5.889661200693317e-15
3.301366245922376e-16
-1.281132104067627e-16
1.909556614836134e-15
2.130731633976151e-15
2.071428079740048e-15
2.056298287159848e-15
1.850700574201657e-15
1.584301274156895e-15
1.21510172443684e-15
1.11306046611126e-15
9.748439567385415e-16
9.0935762209471e-16
7.249990655766618e-16
5.065209682152453e-16
4.872408219285438e-16
3.46753104960316e-16
1.980616441242236e-16
1.226890291243845e-16
4.041187969834114e-16
4.901476165276124e-16
2.698777072622174e-16
5.317424336727153e-16
8.991900163580135e-16
9.732510712333379e-16
1.061751223808759e-15
1.149545449226201e-15
1.283665829584993e-15
1.46116867268514e-15
1.644080207620957e-15
1.907615358856435e-15
2.120310810425502e-15
2.35251041822624e-15
2.268838095725e-15
2.544499800441465e-15
2.772293301796982e-15
2.847890542877665e-15
3.264824241193793e-15
3.462406357051755e-15
3.50964572049775e-15
3.80053745916046e-15
4.081856520102949e-15
4.271764774048271e-15
4.161292896294485e-15
3.79225330408515e-15
3.771428982821453e-15
4.004731028139222e-15
4.320212667778839e-15
4.376411372388449e-15
4.320895984814043e-15
4.442609875790957e-15
4.419986395928866e-15
4.097689589623022e-15
3.935596046895911e-15
3.859612630294692e-15
3.929491176740603e-15
3.548564432203444e-15
3.402459596531598e-15
3.222145947364523e-15
3.143646661742711e-15
2.420216545936469e-15
2.517738245143766e-15
2.042681106470852e-15
2.828645671556613e-15
2.441153641338863e-15
4.423683564257311e-15
6.558921489712589e-15
2.944239231094565e-16
-2.920399692509149e-16
1.979790944178111e-15
2.173339103882469e-15
1.994568218417173e-15
1.995522015018243e-15
1.823376870479329e-15
1.581182886589032e-15
1.27924329660941e-15
1.06969651558738e-15
9.189208052797084e-16
8.888835344635116e-16
7.190307159682193e-16
4.969271427130533e-16
4.400747088450552e-16
3.294280568872276e-16
1.190331653576131e-16
1.067324531186066e-16
3.828462623459623e-16
4.273691758096443e-16
2.958050900212987e-16
4.835451635673103e-16
8.436469457408413e-16
9.732936758114111e-16
1.058147997507223e-15
1.142538212769018e-15
1.291329263261026e-15
1.473677999025768e-15
1.60023911699593e-15
1.836897427661695e-15
2.138334692907558e-15
2.392143961111614e-15
2.308357944778073e-15
2.544285917060561e-15
2.729193800415379e-15
2.807808748746337e-15
3.257104636742378e-15
3.456500285030449e-15
3.516641095799899e-15
3.771973287856318e-15
4.07477440353938e-15
4.281547953180816e-15
4.148407093792887e-15
3.850598473305669e-15
3.81161150856644e-15
3.973057721192369e-15
4.247618615734626e-15
4.307291349337778e-15
4.305398465637771e-15
4.470855087814615e-15
4.44480299459511e-15
4.112202112205648e-15
3.892178330188816e-15
3.821141415072033e-15
3.953176690646131e-15
3.559235433862113e-15
3.441707843127847e-15
3.176874334690896e-15
3.165816287166175e-15
2.419286809110819e-15
2.496926683847698e-15
2.005167410285547e-15
2.888228738615154e-15
2.39987698568337e-15
4.755256453648525e-15
7.279987339373582e-15
4.635976939978961e-16
-4.642241747944131e-16
1.900481102664813e-15
2.171154550637454e-15
1.914092189176779e-15
1.893242998953787e-15
1.753075998632007e-15
1.554130838505564e-15
1.277605889996315e-15
1.016957664070882e-15