/*--------------------------------*- C++ -*----------------------------------*\
| =========                 |                                                 |
| \\      /  F ield         | OpenFOAM: The Open Source CFD Toolbox           |
|  \\    /   O peration     | Version:  v1812                                 |
|   \\  /    A nd           | Web:      www.OpenFOAM.com                      |
|    \\/     M anipulation  |                                                 |
\*---------------------------------------------------------------------------*/
FoamFile
{
    version     2.0;
    format      ascii;
    class       surfaceScalarField;
    location    "10000";
    object      phi;
}
// * * * * * * * * * * * * * * * * * * * * * * * * * * * * * * * * * * * * * //

dimensions      [0 3 -1 0 0 0 0];
oriented        oriented;


internalField   nonuniform List<scalar> 
5567
(
0.0002298826932133926
-3.610992624350041e-18
0.0002298826932133965
-3.799837878798221e-18
0.0002298826932133979
-1.286684419656508e-18
0.0002298826932133963
1.687955099819075e-18
0.0002298826932133961
3.081948742078183e-19
0.0002298826932133959
2.916057436951793e-19
0.0002298826932133948
1.263693028467021e-18
0.0002298826932133941
6.823701351108882e-19
0.0002298826932133939
3.489615426807733e-19
0.0002298826932133926
1.363816009469431e-18
0.0002298826932133914
1.192565063681323e-18
0.000229882693213391
2.649440445418351e-19
0.0002298826932133899
1.069102983514994e-18
0.0002298826932133885
1.294139990663108e-18
0.0002298826932133879
5.29117466678416e-19
0.0002298826932133874
5.236082761278837e-19
0.000229882693213387
4.739496498447896e-19
0.000229882693213387
-6.811630028526684e-20
0.0002298826932133866
3.95568661160659e-19
0.000229882693213387
-3.499114026972395e-19
0.000229882693213387
-6.000946678383229e-20
0.0002298826932133873
-2.130194457414918e-19
0.0002298826932133877
-3.970256457204546e-19
0.0002298826932133872
5.323949756899757e-19
0.0002298826932133879
-7.058711417394406e-19
0.0002298826932133887
-8.081864244278744e-19
0.0002298826932133891
-3.457380056544417e-19
0.000229882693213389
1.168147354887578e-19
0.0002298826932133892
-1.038539576761812e-19
0.0002298826932133901
-9.140533381886653e-19
0.0002298826932133912
-9.373153210896895e-19
0.0002298826932133915
-3.200621575196533e-19
0.0002298826932133929
-1.280190908475471e-18
0.000229882693213394
-1.000339146733284e-18
0.0002298826932133945
-5.352557673460291e-19
0.0002298826932133953
-7.601093675625965e-19
0.0002298826932133951
2.521509443174778e-19
0.0002298826932133953
-1.588597379267371e-19
0.000229882693213396
-6.32360264449552e-19
0.0002298826932133966
-4.725756887437352e-19
0.0002298826932133971
-4.165784660529433e-19
0.0002298826932133969
2.470115214741614e-19
0.0002298826932133973
-3.620790880224125e-19
0.0002298826932133983
-1.0183406742015e-18
0.0002298826932133987
-3.312330919078328e-19
0.0002298826932133989
-2.802447096989876e-19
0.0002298826932133993
-3.293221862821935e-19
0.0002298826932133994
-1.952013182125755e-19
0.0002298826932133991
3.935202278374585e-19
0.0002298826932133992
-2.080182107158611e-19
0.0002298826932134
-8.382098041169892e-19
0.0002298826932133995
3.846013295902146e-19
0.0002298826932133984
1.027048758486327e-18
0.0002298826932133983
5.872971260991906e-20
0.0002298826932133985
-2.778824019405268e-19
0.0002298826932133969
1.353082922378892e-18
0.0002298826932133957
1.187034077436355e-18
0.0002298826932133953
4.399686600088844e-19
0.0002298826932133959
-7.134493389190422e-19
0.0002298826932133946
1.315793386032334e-18
0.000229882693213394
4.929001627627651e-19
0.0002298826932133929
1.056679184246316e-18
0.0002298826932133943
-1.376364604678228e-18
0.0002298826932133935
8.241819753632171e-19
0.0002298826932133962
-2.663075431219325e-18
-6.577572048879751e-19
0.0005236479874142591
-9.046533169011341e-18
0.0005236479874142592
-3.616978370704356e-18
0.0005236479874142588
-7.189353657264069e-19
0.0005236479874142574
3.138778624191678e-18
0.0005236479874142568
8.505746871700386e-19
0.0005236479874142564
7.652087398505575e-19
0.0005236479874142543
3.54931353772852e-18
0.0005236479874142534
1.638465440524877e-18
0.0005236479874142526
1.097347498530975e-18
0.0005236479874142502
3.828281161242962e-18
0.0005236479874142485
2.918612053752893e-18
0.0005236479874142474
1.370422890358386e-18
0.0005236479874142451
3.368159864264632e-18
0.0005236479874142427
3.615845487497711e-18
0.0005236479874142414
1.675994462671903e-18
0.0005236479874142407
1.437987956013565e-18
0.0005236479874142405
7.005507471198461e-19
0.0005236479874142398
5.773631089709225e-19
0.0005236479874142397
4.611758923964779e-19
0.0005236479874142405
-1.03016622225398e-18
0.0005236479874142402
5.719365557334256e-20
0.0005236479874142407
-5.952893680573212e-19
0.000523647987414242
-1.726319683928212e-18
0.0005236479874142411
1.452575665299007e-18
0.0005236479874142423
-1.87144480694681e-18
0.0005236479874142439
-2.460575778009157e-18
0.0005236479874142439
-3.634724872152768e-19
0.0005236479874142449
-7.249829355883635e-19
0.0005236479874142463
-1.28753913130138e-18
0.0005236479874142474
-1.983226377126709e-18
0.0005236479874142491
-2.610676442374508e-18
0.0005236479874142505
-1.7074173984068e-18
0.0005236479874142527
-3.357371286881782e-18
0.0005236479874142553
-3.425728727975565e-18
0.0005236479874142561
-1.343768525296604e-18
0.0005236479874142569
-1.591656262352759e-18
0.0005236479874142574
-1.535463082765628e-19
0.0005236479874142578
-6.443543935031872e-19
0.0005236479874142589
-1.688217892612978e-18
0.0005236479874142603
-1.73847544263347e-18
0.0005236479874142607
-8.413066085495646e-19
0.0005236479874142609
1.181363051648558e-19
0.0005236479874142617
-9.767844312590986e-19
0.0005236479874142632
-2.644346197443548e-18
0.0005236479874142645
-1.569007865672704e-18
0.0005236479874142647
-5.038613536149653e-19
0.000523647987414265
-5.485890797593843e-19
0.000523647987414265
-2.363007099345328e-19
0.0005236479874142644
9.235174845020613e-19
0.0005236479874142652
-1.059536654675844e-18
0.0005236479874142655
-1.05633806108143e-18
0.0005236479874142646
1.150573182213301e-18
0.0005236479874142631
2.51322267719635e-18
0.0005236479874142627
5.081336758235182e-19
0.0005236479874142622
5.221624400547968e-20
0.0005236479874142603
3.211979289363542e-18
0.0005236479874142578
3.713123294733186e-18
0.0005236479874142578
3.327928500142571e-19
0.000523647987414257
4.240877906497899e-20
0.0005236479874142549
3.517990793404666e-18
0.0005236479874142532
1.924443163897923e-18
0.0005236479874142529
1.421995665625415e-18
0.0005236479874142527
-1.145125551870635e-18
0.0005236479874142525
1.113114197580184e-18
0.0005236479874142518
-2.074299657418033e-18
-2.119138921934229e-18
0.0007035844540154217
-1.397815253249888e-17
0.0007035844540154209
-2.858296343247742e-18
0.0007035844540154209
-8.837781254536216e-19
0.0007035844540154194
4.700438215693334e-18
0.0007035844540154185
1.789638768691996e-18
0.0007035844540154178
1.537982176740065e-18
0.0007035844540154168
4.656105981259696e-18
0.0007035844540154153
3.201723304056024e-18
0.0007035844540154141
2.20681714667586e-18
0.0007035844540154134
4.446308849211066e-18
0.0007035844540154108
5.548717700778635e-18
0.0007035844540154093
2.90792797421071e-18
0.0007035844540154084
4.245304385107754e-18
0.0007035844540154069
5.114518567243539e-18
0.0007035844540154056
2.766224537731387e-18
0.0007035844540154042
2.866114094080352e-18
0.0007035844540154039
1.228449692602303e-18
0.0007035844540154043
1.269150229920942e-19
0.0007035844540154041
7.468664491754869e-19
0.0007035844540154033
-3.463896817411645e-19
0.0007035844540154032
9.032167326245703e-20
0.0007035844540154038
-1.017289224583212e-18
0.0007035844540154041
-2.148785439610351e-18
0.000703584454015405
6.567452860369919e-19
0.0007035844540154055
-2.418895706354911e-18
0.0007035844540154055
-2.331944551139644e-18
0.0007035844540154066
-1.575650071439774e-18
0.000703584454015408
-2.249589251722373e-18
0.0007035844540154097
-2.83346396641325e-18
0.0007035844540154109
-3.322380099520921e-18
0.0007035844540154123
-3.912746523285338e-18
0.0007035844540154139
-3.289075790819476e-18
0.0007035844540154161
-5.592350433592205e-18
0.0007035844540154165
-3.591781520922121e-18
0.000703584454015418
-2.98183239346579e-18
0.0007035844540154194
-2.879750538438295e-18
0.0007035844540154197
-4.323529520224798e-19
0.0007035844540154212
-2.174901161733883e-18
0.0007035844540154219
-2.320568650901749e-18
0.0007035844540154224
-2.267632145539315e-18
0.0007035844540154243
-2.784759658394217e-18
0.0007035844540154249
-3.632834075873993e-19
0.0007035844540154256
-1.690106003673615e-18
0.0007035844540154263
-3.510237656146085e-18
0.0007035844540154264
-1.554738303382324e-18
0.000703584454015427
-1.071280019678727e-18
0.0007035844540154271
-7.489306380884874e-19
0.0007035844540154286
-1.679910013756321e-18
0.0007035844540154275
2.046000022851231e-18
0.0007035844540154276
-1.234828904224123e-18
0.0007035844540154274
-8.05757963954719e-19
0.0007035844540154275
1.043740356787355e-18
0.000703584454015426
3.948623670410032e-18
0.0007035844540154255
9.829130010548401e-19
0.0007035844540154246
8.616667321312369e-19
0.0007035844540154248
2.801409923540728e-18
0.0007035844540154223
6.332033062743518e-18
0.0007035844540154217
9.221430573657459e-19
0.0007035844540154202
1.389634745652933e-18
0.0007035844540154188
4.847552868124572e-18
0.0007035844540154178
2.987266879151984e-18
0.0007035844540154166
2.661869831668657e-18
0.0007035844540154156
-5.887754568572371e-20
0.0007035844540154162
4.037740947228038e-19
0.0007035844540154154
-1.108614067772848e-18
-3.498473387988485e-18
0.0008390009650112657
-1.744988904599841e-17
0.0008390009650112622
7.10867247470546e-19
0.0008390009650112629
-1.509984612637332e-18
0.0008390009650112641
3.659603710316825e-18
0.0008390009650112625
3.336460740228839e-18
0.0008390009650112617
2.508142564546717e-18
0.0008390009650112603
6.182876008660257e-18
0.0008390009650112584
5.069647772427406e-18
0.0008390009650112574
3.12000318791845e-18
0.0008390009650112567
5.337269162940823e-18
0.0008390009650112557
6.565248921545629e-18
0.0008390009650112541
4.568288519966246e-18
0.0008390009650112528
5.611896503664627e-18
0.0008390009650112519
5.989558253578615e-18
0.0008390009650112508
3.666363572303242e-18
0.0008390009650112493
4.410726519113383e-18
0.0008390009650112488
1.877189242448928e-18
0.0008390009650112477
1.209435586306284e-18
0.0008390009650112484
2.169773939401376e-20
0.0008390009650112489
-8.893780849124417e-19
0.000839000965011249
-9.618052430644197e-20
0.0008390009650112485
-3.705150214239258e-19
0.0008390009650112488
-2.572130734827156e-18
0.0008390009650112507
-1.196946697474768e-18
0.0008390009650112511
-2.849711989662405e-18
0.0008390009650112518
-2.891031943640741e-18
0.0008390009650112518
-1.639188302634425e-18
0.0008390009650112524
-2.813640658907794e-18
0.0008390009650112542
-4.506949224586036e-18
0.0008390009650112555
-4.746063973480198e-18
0.000839000965011257
-5.207408273625817e-18
0.0008390009650112586
-4.865081975486036e-18
0.0008390009650112587
-5.79220637111747e-18
0.000839000965011261
-5.715507625710957e-18
0.000839000965011262
-4.125046091780582e-18
0.0008390009650112638
-4.561003275353923e-18
0.0008390009650112647
-1.274674921627977e-18
0.0008390009650112659
-3.362117165889153e-18
0.0008390009650112662
-2.723604557980439e-18
0.0008390009650112675
-3.443270025782561e-18
0.000839000965011267
-2.358497951065021e-18
0.0008390009650112694
-2.508822377581471e-18
0.0008390009650112702
-2.453473285487643e-18
0.0008390009650112707
-4.1160368868808e-18
0.0008390009650112711
-1.88720526558964e-18
0.0008390009650112711
-1.144494704897838e-18
0.0008390009650112713
-1.138921185205145e-18
0.0008390009650112711
-1.378100443466227e-18
0.000839000965011272
1.16908606780892e-18
0.0008390009650112717
-1.158707119414996e-18
0.0008390009650112714
-3.609188819933846e-19
0.0008390009650112719
5.656470849404638e-19
0.0008390009650112712
4.622836816132578e-18
0.0008390009650112706
1.52397933347196e-18
0.0008390009650112702
1.240256018139409e-18
0.0008390009650112678
5.056316440253045e-18
0.0008390009650112673
6.883539432224104e-18
0.0008390009650112665
1.638936312457277e-18
0.0008390009650112649
3.005684316131613e-18
0.0008390009650112648
4.96915079948634e-18
0.0008390009650112637
3.886260494951303e-18
0.0008390009650112625
3.908001951043426e-18
0.0008390009650112614
1.204750735087344e-18
0.0008390009650112592
2.735883320708705e-18
0.0008390009650112605
-2.427315577602867e-18
-5.10557308727011e-18
0.001150706868888533
-2.055266659995111e-17
0.00115070686888853
3.682007474101383e-18
0.001150706868888531
-2.101590399629128e-18
0.001150706868888531
3.658483535187273e-18
0.00115070686888853
4.337633434755233e-18
0.001150706868888528
3.626608012136935e-18
0.001150706868888527
7.706176316097137e-18
0.001150706868888525
7.020552042711601e-18
0.001150706868888523
4.813626009714549e-18
0.001150706868888522
7.096279164217967e-18
0.001150706868888522
5.763620500941258e-18
0.00115070686888852
7.200994690131677e-18
0.001150706868888519
6.56427453975242e-18
0.001150706868888517
7.374901814274215e-18
0.001150706868888516
4.801896375363971e-18
0.001150706868888515
6.036802785327969e-18
0.001150706868888513
3.085289626009975e-18
0.001150706868888513
1.356374548487185e-18
0.001150706868888511
2.208100520703947e-18
0.001150706868888511
-3.508843001231223e-19
0.001150706868888511
-6.187114571804567e-19
0.001150706868888512
-1.463415397271133e-18
0.001150706868888512
-2.847916733692105e-18
0.001150706868888513
-1.264110448856935e-18
0.001150706868888514
-3.749089037459509e-18
0.001150706868888514
-3.648841859320872e-18
0.001150706868888515
-2.544573466917053e-18
0.001150706868888517
-4.859395644514372e-18
0.001150706868888518
-5.578109450236274e-18
0.001150706868888521
-7.339024793402251e-18
0.001150706868888521
-5.455178575359022e-18
0.001150706868888525
-8.894345804789602e-18
0.001150706868888525
-5.446364655231516e-18
0.001150706868888528
-8.866467718106224e-18
0.001150706868888528
-3.895881554122345e-18
0.001150706868888531
-8.107931570361676e-18
0.001150706868888531
-7.655410601765433e-19
0.001150706868888534
-5.975012783131204e-18
0.001150706868888534
-3.525662219449421e-18
0.001150706868888535
-4.381057276393216e-18
0.001150706868888536
-3.471519136307986e-18
0.001150706868888538
-3.920944477010266e-18
0.001150706868888539
-3.238606036531971e-18
0.001150706868888539
-4.859265018146756e-18
0.00115070686888854
-2.177955386538467e-18
0.00115070686888854
-1.107250750911791e-18
0.00115070686888854
-1.280487921063769e-18
0.001150706868888541
-2.511820784289809e-18
0.001150706868888541
1.036805401602151e-18
0.001150706868888541
-9.293736348534285e-19
0.001150706868888541
1.274384249329518e-19
0.001150706868888541
6.819288137334974e-20
0.001150706868888541
4.956271230556809e-18
0.001150706868888539
3.828104759747953e-18
0.001150706868888537
2.547013032730932e-18
0.001150706868888538
4.513946462492217e-18
0.001150706868888536
8.062818740483792e-18
0.001150706868888536
1.541951160189136e-18
0.001150706868888535
5.173838293852867e-18
0.001150706868888534
5.489687006346739e-18
0.001150706868888532
5.364281211721392e-18
0.00115070686888853
5.800514965951282e-18
0.001150706868888529
2.34295107137582e-18
0.001150706868888528
4.410085887397935e-18
0.001150706868888528
-3.357750479237708e-18
-6.064525192475086e-18
0.001939359311336146
-2.465668578864771e-17
0.001939359311336145
4.883728268670688e-18
0.001939359311336143
-7.655009969122765e-19
0.001939359311336144
2.765925711336299e-18
0.001939359311336143
5.277805636896164e-18
0.00193935931133614
6.646290570723788e-18
0.001939359311336138
1.013260792785814e-17
0.001939359311336137
8.141780593210344e-18
0.001939359311336133
8.878108894964094e-18
0.001939359311336134
5.507597683144777e-18
0.001939359311336131
9.008495267478716e-18
0.001939359311336128
1.018867259984663e-17
0.001939359311336127
7.523830654171174e-18
0.001939359311336126
8.86538739937141e-18
0.001939359311336123
7.301510387469108e-18
0.001939359311336121
8.054173924044278e-18
0.001939359311336121
3.875212522090425e-18
0.001939359311336118
3.989577575164666e-18
0.001939359311336119
1.353402485282085e-18
0.001939359311336118
8.769514176202974e-19
0.001939359311336115
1.123974961029327e-18
0.001939359311336118
-3.307484107019355e-18
0.001939359311336117
-2.028336663523635e-18
0.001939359311336118
-2.420330470756492e-18
0.001939359311336119
-4.876103948353725e-18
0.00193935931133612
-4.708685900046535e-18
0.001939359311336124
-6.363409791485536e-18
0.001939359311336123
-4.534644937429071e-18
0.001939359311336127
-8.877503995693156e-18
0.001939359311336129
-9.678329423113409e-18
0.001939359311336134
-9.800572590478085e-18
0.001939359311336132
-7.129353353239712e-18
0.001939359311336138
-1.207122223143438e-17
0.001939359311336139
-9.394099466686664e-18
0.001939359311336141
-6.27895814055151e-18
0.001939359311336144
-1.139801738638456e-17
0.001939359311336149
-5.191988512484364e-18
0.001939359311336149
-6.517901543843805e-18
0.001939359311336149
-2.949713699640012e-18
0.001939359311336151
-5.954897845417768e-18
0.001939359311336154
-7.04136619815885e-18
0.001939359311336155
-4.691825620438945e-18
0.001939359311336157
-4.96987768491751e-18
0.00193935931133616
-8.364138909923364e-18
0.001939359311336158
1.027293390720501e-19
0.001939359311336159
-1.689109685987988e-18
0.001939359311336159
-2.210063742772113e-18
0.001939359311336161
-3.507797683544917e-18
0.001939359311336161
1.105383728201429e-18
0.001939359311336161
-1.413378055988807e-18
0.001939359311336161
-3.080501704364042e-19
0.00193935931133616
1.52709086768628e-18
0.001939359311336161
4.605384534827008e-18
0.001939359311336161
3.671208139528903e-18
0.001939359311336161
2.265676211327662e-18
0.001939359311336158
7.471683520363885e-18
0.001939359311336156
9.662315316311257e-18
0.001939359311336157
1.206008135231549e-18
0.001939359311336151
1.048591764594752e-17
0.00193935931133615
6.903047337322224e-18
0.00193935931133615
4.854690755021516e-18
0.001939359311336148
8.001965724987733e-18
0.001939359311336144
6.542199593407114e-18
0.001939359311336141
7.075419085899183e-18
0.001939359311336144
-5.899211375011339e-18
-4.315268822474295e-18
0.003240565776608201
-3.034054524788541e-17
0.003240565776608205
5.820838951060539e-19
0.003240565776608204
-4.801783597741923e-20
0.003240565776608201
5.634933388447154e-18
0.003240565776608197
9.076494889404294e-18
0.003240565776608197
7.25235698173797e-18
0.003240565776608195
1.258763811458544e-17
0.003240565776608189
1.448264824967874e-17
0.003240565776608188
9.42583868225174e-18
0.003240565776608182
1.109386339672076e-17
0.00324056577660818
1.163381936353372e-17
0.00324056577660818
1.012399945693646e-17
0.003240565776608175
1.250127372812774e-17
0.003240565776608171
1.334551661034293e-17
0.003240565776608168
8.496638118405749e-18
0.003240565776608166
1.069815193060827e-17
0.003240565776608164
6.457337442270121e-18
0.003240565776608165
2.866056998808557e-18
0.003240565776608161
5.541606558988022e-18
0.003240565776608159
2.849851034334422e-18
0.003240565776608161
-1.464439905505013e-18
0.00324056577660816
-1.648193307163887e-18
0.003240565776608162
-4.757889554484659e-18
0.003240565776608164
-3.352634015607305e-18
0.003240565776608164
-5.318045739418877e-18
0.003240565776608167
-7.019840984594496e-18
0.003240565776608168
-8.094492035764313e-18
0.003240565776608171
-8.33305646396115e-18
0.003240565776608175
-1.152473393842226e-17
0.003240565776608167
-2.798135692863714e-18
0.003240565776608179
-2.107849716878324e-17
0.003240565776608186
-1.353876487207924e-17
0.003240565776608187
-1.389585774080093e-17
0.00324056577660819
-1.224144511885364e-17
0.003240565776608196
-1.264527383524727e-17
0.003240565776608199
-1.377916313322222e-17
0.003240565776608203
-9.224477582323176e-18
0.003240565776608206
-9.727185170841377e-18
0.003240565776608211
-7.9210301173856e-18
0.003240565776608215
-9.498678861257422e-18
0.003240565776608215
-7.461514501927299e-18
0.003240565776608221
-1.015413705135502e-17
0.003240565776608223
-7.647231105642748e-18
0.003240565776608223
-8.369399596189319e-18
0.003240565776608225
-1.704593155290199e-18
0.003240565776608227
-3.543749118753601e-18
0.003240565776608227
-3.24331307747522e-18
0.003240565776608229
-4.794892833938389e-18
0.003240565776608229
9.988146129051709e-19
0.00324056577660823
-2.738374345128733e-18
0.003240565776608228
2.66556423273469e-18
0.003240565776608231
-1.238159536020385e-18
0.003240565776608231
4.421931941055048e-18
0.003240565776608231
3.896735264456213e-18
0.003240565776608226
6.511210271661245e-18
0.003240565776608227
6.013581330644314e-18
0.003240565776608225
1.264796975013048e-17
0.00324056577660822
6.618009351378517e-18
0.003240565776608219
1.148645642102038e-17
0.003240565776608215
1.027937321788658e-17
0.003240565776608212
8.200017245631902e-18
0.003240565776608209
1.116165249541107e-17
0.003240565776608207
8.311212761624254e-18
0.003240565776608202
1.189383263695761e-17
0.003240565776608198
-1.865387701869388e-18
-1.356754832183179e-18
0.004540956876748786
-3.908973093209162e-17
0.004540956876748791
-4.11050471329056e-18
0.004540956876748787
3.546416900372939e-18
0.004540956876748783
9.610053337024608e-18
0.00454095687674878
1.245615250271371e-17
0.004540956876748777
1.174281135346263e-17
0.004540956876748774
1.522748867289223e-17
0.00454095687674877
1.771237093783203e-17
0.004540956876748764
1.498965700111707e-17
0.00454095687674876
1.522569925770865e-17
0.004540956876748757
1.556394413089487e-17
0.004540956876748754
1.292361361456036e-17
0.00454095687674875
1.618432467085933e-17
0.004540956876748748
1.504793133866397e-17
0.004540956876748743
1.338891510068757e-17
0.004540956876748739
1.395420236786454e-17
0.004540956876748743
3.507439481804439e-18
0.004540956876748737
9.491438314178214e-18
0.004540956876748735
7.186679446533165e-18
0.004540956876748733
3.52709058552314e-18
0.004540956876748731
-2.488798146441166e-19
0.004540956876748733
-1.999002104815749e-18
0.004540956876748733
-5.578458340562885e-18
0.004540956876748737
-6.599234612557596e-18
0.004540956876748737
-6.219893834851218e-18
0.004540956876748739
-8.748321577845562e-18
0.00454095687674874
-9.673714953998525e-18
0.004540956876748744
-1.177984580966015e-17
0.00454095687674875
-1.5844877184131e-17
0.004540956876748762
-1.612536043446987e-17
0.004540956876748757
-1.556730036627425e-17
0.004540956876748762
-1.780170560648075e-17
0.004540956876748765
-1.814341157776524e-17
0.004540956876748773
-1.945387143313884e-17
0.004540956876748776
-1.644045199505253e-17
0.004540956876748782
-1.906202341150533e-17
0.004540956876748787
-1.419848493947207e-17
0.004540956876748792
-1.469986738740147e-17
0.004540956876748796
-1.202924977650327e-17
0.004540956876748801
-1.385953592069776e-17
0.004540956876748803
-9.801899541052084e-18
0.004540956876748809
-1.518409425644323e-17
0.004540956876748811
-1.034457839680681e-17
0.004540956876748812
-1.034275688404534e-17
0.004540956876748816
-5.334321544899834e-18
0.004540956876748818
-5.900213018375702e-18
0.004540956876748819
-3.900248141674888e-18
0.004540956876748821
-6.134370199475309e-18
0.004540956876748822
-7.965097988909283e-19
0.004540956876748822
-3.482055313250782e-18
0.004540956876748824
2.035935268527213e-18
0.004540956876748824
-1.022474435106362e-18
0.004540956876748822
5.507199648436299e-18
0.004540956876748823
3.663293700868041e-18
0.004540956876748822
7.78153557515905e-18
0.00454095687674882
8.236026291627244e-18
0.004540956876748818
1.479454428683477e-17
0.004540956876748813
1.240283052362187e-17
0.004540956876748809
1.56834845821903e-17
0.004540956876748804
1.432319402523085e-17
0.004540956876748801
1.123259725266111e-17
0.004540956876748796
1.533316800563896e-17
0.004540956876748793
1.181894315965917e-17
0.004540956876748786
1.830544243959279e-17
0.004540956876748785
-8.410965792183747e-19
5.731198960609891e-18
0.005364760084745909
-3.341732193435472e-17
0.005364760084745922
-1.776275358856152e-17
0.005364760084745918
6.188655875658619e-18
0.005364760084745916
1.251159387521098e-17
0.005364760084745913
1.42639303030262e-17
0.00536476008474591
1.575497646287071e-17
0.005364760084745905
2.012457898020103e-17
0.005364760084745909
1.454137882571296e-17
0.005364760084745904
1.945356261336701e-17
0.005364760084745893
2.523375330209279e-17
0.00536476008474589
1.899446254301219e-17
0.005364760084745886
1.73363515177157e-17
0.005364760084745887
1.507688013169251e-17
0.005364760084745878
2.321541492218318e-17
0.005364760084745872
1.881603186572328e-17
0.005364760084745871
1.520585464269732e-17
0.005364760084745865
1.023311058383939e-17
0.005364760084745868
6.94112883785449e-18
0.005364760084745865
9.204467588981031e-18
0.00536476008474587
-3.477767062203607e-19
0.005364760084745864
4.633467872166784e-18
0.005364760084745866
-3.496245005984583e-18
0.005364760084745871
-1.064531800908993e-17
0.005364760084745872
-7.389528431761264e-18
0.005364760084745869
-3.236987536786205e-18
0.005364760084745873
-1.22417893479055e-17
0.005364760084745874
-1.227463328738539e-17
0.005364760084745884
-2.141521537313467e-17
0.005364760084745883
-1.420887044744673e-17
0.005364760084745886
-1.979305737960188e-17
0.005364760084745899
-2.816861287670087e-17
0.0053647600847459
-1.92204463618189e-17
0.005364760084745904
-2.251332670063612e-17
0.00536476008474591
-2.469347433376768e-17
0.005364760084745918
-2.603589552504237e-17
0.00536476008474592
-1.979191218321103e-17
0.005364760084745926
-2.06934638290359e-17
0.005364760084745931
-2.0489218799511e-17
0.005364760084745935
-1.536025612129169e-17
0.005364760084745938
-1.715609551807553e-17
0.005364760084745941
-1.330818389477219e-17
0.005364760084745951
-2.455338782778956e-17
0.005364760084745956
-1.524121359411001e-17
0.005364760084745954
-9.418449457666992e-18
0.005364760084745963
-1.373080403011882e-17
0.005364760084745966
-8.414996275544676e-18
0.005364760084745966
-4.399495084630029e-18
0.005364760084745963
-3.231453364087143e-18
0.005364760084745963
-7.273114641460997e-19
0.005364760084745963
-3.454823737932231e-18
0.005364760084745964
1.159729868431951e-18
0.005364760084745964
-1.187763350474013e-18
0.005364760084745967
2.769390324678265e-18
0.005364760084745963
7.195124818296108e-18
0.005364760084745962
9.52318532024938e-18
0.005364760084745957
1.174221834615614e-17
0.005364760084745963
1.063717089230129e-17
0.005364760084745959
1.559880854896118e-17
0.005364760084745949
2.607556984421017e-17
0.005364760084745943
1.955922043946301e-17
0.005364760084745944
9.803499604106548e-18
0.005364760084745938
2.063770154691027e-17
0.00536476008474593
2.135287515345496e-17
0.005364760084745923
2.459763397431267e-17
0.005364760084745921
1.4395149513679e-18
1.352835130367385e-17
0.005771247425681569
-3.447756272115554e-17
0.005771247425681579
-2.78347633684656e-17
0.005771247425681573
1.213143892301126e-17
0.005771247425681569
1.515869236563864e-17
0.005771247425681574
8.989594399466889e-18
0.00577124742568156
3.02738952719468e-17
0.005771247425681557
2.412009931170674e-17
0.005771247425681554
1.808435626765276e-17
0.005771247425681544
2.866718092585442e-17
0.005771247425681546
2.352208142259658e-17
0.005771247425681552
1.286712640367583e-17
0.005771247425681538
3.220486887357914e-17
0.005771247425681528
2.431635631087578e-17
0.005771247425681532
2.037346245898936e-17
0.005771247425681529
2.054702969026469e-17
0.005771247425681529
1.554369727040635e-17
0.005771247425681528
1.20576545625985e-17
0.005771247425681526
9.718434514803975e-18
0.005771247425681524
1.052158814006498e-17
0.005771247425681517
6.672975729757024e-18
0.005771247425681527
-5.740504110655353e-18
0.005771247425681524
-1.008876486040553e-19
0.005771247425681519
-5.926664395159416e-18
0.005771247425681521
-9.405192355468211e-18
0.00577124742568153
-1.14936711188429e-17
0.005771247425681534
-1.60012734494847e-17
0.005771247425681536
-1.620867729982705e-17
0.005771247425681536
-2.122544625592169e-17
0.005771247425681546
-2.356158669271416e-17
0.005771247425681549
-2.425909419589596e-17
0.005771247425681549
-2.718174046946045e-17
0.00577124742568156
-3.006550743654876e-17
0.005771247425681566
-2.941252432357613e-17
0.005771247425681568
-2.718231513742331e-17
0.005771247425681567
-2.460081119142431e-17
0.005771247425681578
-3.029906795907549e-17
0.005771247425681585
-2.723873887872434e-17
0.005771247425681589
-2.52875202992843e-17
0.005771247425681593
-1.932319590482683e-17
0.005771247425681598
-2.128040587962907e-17
0.005771247425681603
-1.85446611134233e-17
0.0057712474256816
-2.167760125097574e-17
0.005771247425681603
-1.726691665995195e-17
0.005771247425681613
-2.004142364119463e-17
0.005771247425681611
-1.110394542185324e-17
0.005771247425681613
-1.001921460239322e-17
0.005771247425681613
-5.034852790609623e-18
0.005771247425681618
-8.1476658159487e-18
0.005771247425681616
7.877060820339061e-19
0.005771247425681617
-4.87918211836045e-18
0.005771247425681619
-5.557415232830108e-19
0.00577124742568162
-2.139404061018976e-18
0.005771247425681613
9.402855690009334e-18
0.005771247425681617
4.320300650415188e-18
0.005771247425681614
1.255813388528465e-17
0.005771247425681613
1.174019405457844e-17
0.005771247425681606
1.902152153483771e-17
0.005771247425681613
8.085868499571986e-18
0.005771247425681603
3.550988090234194e-17
0.005771247425681599
2.343588859953037e-17
0.0057712474256816
8.276601639827657e-18
0.005771247425681582
3.798107898743221e-17
0.005771247425681584
2.069121832377117e-17
0.005771247425681588
2.044384754054891e-17
0.005771247425681573
1.676621394181008e-17
1.90639660646311e-17
0.00600210441689021
-3.476185102073066e-17
0.006002104416890208
-2.694277640664355e-17
0.006002104416890212
8.537302033366475e-18
0.006002104416890201
2.538347279329835e-17
0.006002104416890194
1.68400575733753e-17
0.006002104416890201
2.299826546459782e-17
0.006002104416890193
3.28879229501009e-17
0.00600210441689019
2.057558328536878e-17
0.006002104416890191
2.698708642791439e-17
0.006002104416890188
2.674361197747798e-17
0.006002104416890174
2.721652091939975e-17