/*--------------------------------*- C++ -*----------------------------------*\
| =========                 |                                                 |
| \\      /  F ield         | OpenFOAM: The Open Source CFD Toolbox           |
|  \\    /   O peration     | Version:  v1812                                 |
|   \\  /    A nd           | Web:      www.OpenFOAM.com                      |
|    \\/     M anipulation  |                                                 |
\*---------------------------------------------------------------------------*/
FoamFile
{
    version     2.0;
    format      ascii;
    class       volVectorField;
    location    "10000";
    object      U;
}
// * * * * * * * * * * * * * * * * * * * * * * * * * * * * * * * * * * * * * //

dimensions      [0 1 -1 0 0 0 0];


internalField   nonuniform List<vector> 
2838
(
(0.1913119834207493 -1.012875883959636e-17 3.305063321005959e-06)
(0.1913119834207438 -4.044182621475103e-17 3.305111157032841e-06)
(0.1913119834207477 -1.375176286268043e-17 3.305126038802662e-06)
(0.1913119834207481 9.725807401789476e-18 3.305122002176357e-06)
(0.1913119834207465 -4.516781938749387e-17 3.305124534894209e-06)
(0.1913119834207467 -1.665993083600828e-17 3.305115991101255e-06)
(0.1913119834207461 1.26109825975341e-17 3.305118075870723e-06)
(0.1913119834207448 -1.378500975705732e-18 3.305108202392022e-06)
(0.1913119834207455 1.766532020973864e-17 3.305111148115662e-06)
(0.1913119834207442 3.541122134270481e-17 3.305100288165892e-06)
(0.191311983420743 1.906029041760541e-17 3.305104477916861e-06)
(0.1913119834207428 9.317603523472382e-19 3.305092564188195e-06)
(0.1913119834207422 1.022562918396805e-17 3.305098228545731e-06)
(0.1913119834207405 2.071432063115557e-17 3.305085078927184e-06)
(0.1913119834207401 -1.328847298114746e-17 3.305092433295665e-06)
(0.1913119834207391 1.419837480102917e-17 3.305077811316092e-06)
(0.1913119834207396 2.48126120240862e-17 3.305087092814087e-06)
(0.1913119834207391 -9.523824954932973e-18 3.30507071976522e-06)
(0.1913119834207385 7.9893338641574e-18 3.305082200679543e-06)
(0.1913119834207392 -7.805951860522977e-18 3.305063754710165e-06)
(0.1913119834207392 2.931263890234173e-18 3.305077749964488e-06)
(0.1913119834207387 -8.185320540617723e-18 3.305056861109231e-06)
(0.19131198342074 -1.592804931161399e-18 3.305073734576379e-06)
(0.1913119834207395 3.41424108495407e-18 3.305049978276841e-06)
(0.191311983420739 -1.060765776026685e-17 3.305070149391762e-06)
(0.1913119834207405 -1.891862432188958e-18 3.305043039291063e-06)
(0.1913119834207403 5.641069736542309e-18 3.305066990397266e-06)
(0.1913119834207406 1.623240094607115e-17 3.305035970614183e-06)
(0.1913119834207408 1.720248990598157e-17 3.305064255135878e-06)
(0.1913119834207415 -8.357231055856319e-18 3.305028692092349e-06)
(0.1913119834207419 -2.710578219483277e-17 3.305061943493562e-06)
(0.1913119834207428 6.290126879433958e-18 3.30502111732644e-06)
(0.1913119834207432 -2.518656049561051e-17 3.30506005872992e-06)
(0.1913119834207448 -1.262184555822051e-17 3.305013154372821e-06)
(0.1913119834207451 9.834868926898007e-18 3.305058608677318e-06)
(0.1913119834207457 1.395901976688112e-18 3.305004706728199e-06)
(0.191311983420746 1.144214161211691e-17 3.305057606956321e-06)
(0.1913119834207459 -1.965616420786362e-17 3.304995674553223e-06)
(0.1913119834207463 -2.98313617825133e-17 3.305057074113526e-06)
(0.1913119834207467 6.165574839650014e-19 3.304985956121144e-06)
(0.1913119834207478 3.886480961467279e-18 3.305057038536857e-06)
(0.1913119834207467 4.240162845174481e-17 3.304975449468612e-06)
(0.1913119834207481 8.883198802572594e-18 3.305057537033204e-06)
(0.1913119834207476 -1.843933535341173e-17 3.304964054262952e-06)
(0.1913119834207493 2.296811227851296e-18 3.305058614947439e-06)
(0.1913119834207484 -1.911403414400954e-17 3.30495167388697e-06)
(0.1913119834207499 -2.019792108493516e-17 3.305060325706876e-06)
(0.191311983420749 -2.955446744395135e-17 3.304938217775123e-06)
(0.1913119834207498 7.003756522997055e-18 3.305062729681377e-06)
(0.1913119834207482 1.719857197601005e-17 3.304923604031771e-06)
(0.1913119834207508 -1.666619899689678e-17 3.305065892219017e-06)
(0.191311983420749 1.477165323783003e-17 3.304907762521917e-06)
(0.1913119834207501 7.743182242687434e-18 3.305069880461567e-06)
(0.191311983420747 -1.778006968550074e-17 3.304890639134423e-06)
(0.1913119834207501 -9.005108755575248e-18 3.305074757503609e-06)
(0.1913119834207468 2.794451807875876e-17 3.304872204022367e-06)
(0.1913119834207483 -2.557361569132169e-17 3.305080568376295e-06)
(0.1913119834207437 3.510662926651131e-17 3.304852474714804e-06)
(0.1913119834207489 -2.135778276562701e-17 3.305087296305335e-06)
(0.1913119834207436 3.151174299481336e-17 3.304831597471788e-06)
(0.1913119834207471 6.378188434916232e-18 3.305094701983601e-06)
(0.1913119834207416 3.737699864342987e-17 3.304810174885423e-06)
(0.1913119834207476 -7.341529534297134e-17 3.305101688063168e-06)
(0.1913119834207415 1.79383140597233e-17 3.304790895960231e-06)
(0.1913119834207493 -8.47535165878769e-17 3.305104174707152e-06)
(0.191311983420742 -9.24201407745108e-17 3.304790303292881e-06)
(0.4355674314906918 -3.242665960060007e-16 7.574207673136447e-06)
(0.4355674314906878 -1.74304878135905e-17 7.574478956021169e-06)
(0.4355674314906877 6.835121571051419e-18 7.574489466816869e-06)
(0.4355674314906879 1.017372671568162e-16 7.57447503670463e-06)
(0.4355674314906864 -2.777725719893024e-17 7.574479056767387e-06)
(0.4355674314906864 -2.673469342474957e-17 7.574459177970338e-06)
(0.4355674314906856 1.084446049684125e-16 7.574463486467196e-06)
(0.4355674314906831 5.865396279415422e-17 7.574441075759774e-06)
(0.4355674314906842 4.373410352216969e-17 7.574447509054061e-06)
(0.4355674314906818 1.812688954246342e-16 7.574422970558879e-06)
(0.43556743149068 1.15680728877443e-16 7.574432241754355e-06)
(0.4355674314906793 3.076996080763389e-17 7.574405356694219e-06)
(0.4355674314906781 1.221208610608674e-16 7.574417951637969e-06)
(0.4355674314906751 1.214580028986105e-16 7.574388294250456e-06)
(0.4355674314906743 5.141626617494721e-17 7.574404689514956e-06)
(0.4355674314906726 5.54165438612582e-17 7.574371724177104e-06)
(0.4355674314906733 4.276604132077439e-17 7.574392451771974e-06)
(0.4355674314906727 3.491573902198575e-17 7.574355551022427e-06)
(0.4355674314906715 3.324527773494564e-17 7.574381223906801e-06)
(0.4355674314906729 -3.597315788776567e-17 7.574339663765285e-06)
(0.4355674314906728 2.722268763706663e-17 7.574370991330683e-06)
(0.4355674314906719 -5.312426992559999e-17 7.574323939273743e-06)
(0.4355674314906742 -7.081481236791957e-17 7.574361741240543e-06)
(0.4355674314906738 5.94923958786406e-17 7.57430824131012e-06)
(0.4355674314906731 -5.981463364068316e-17 7.574353462646004e-06)
(0.4355674314906756 -8.194354055604655e-17 7.574292419063264e-06)
(0.4355674314906753 -1.086812901206886e-17 7.574346146685444e-06)
(0.4355674314906758 4.227207953364032e-18 7.57427630630485e-06)
(0.4355674314906772 -4.01075931410814e-17 7.574339787720195e-06)
(0.4355674314906783 -7.79219296538549e-17 7.574259721437779e-06)
(0.4355674314906788 -9.577453283668259e-17 7.574334385219278e-06)
(0.4355674314906809 -7.595638146236726e-17 7.574242468378053e-06)
(0.4355674314906817 -1.467862418627255e-16 7.574329946208571e-06)
(0.4355674314906843 -8.691545313633243e-17 7.574224338175793e-06)
(0.4355674314906853 -2.607150877659103e-17 7.574326488096603e-06)
(0.4355674314906863 -7.325903740266182e-17 7.574205111252782e-06)
(0.4355674314906866 -8.187034893631956e-18 7.574324041549346e-06)
(0.4355674314906867 -2.328285177641455e-17 7.574184560165915e-06)
(0.4355674314906879 -7.094428610550259e-17 7.574322653191302e-06)
(0.4355674314906884 -8.856646281864134e-17 7.574162452857978e-06)
(0.4355674314906904 -2.93127970113314e-17 7.574322387809882e-06)
(0.4355674314906885 5.816637135386222e-17 7.574138556345981e-06)
(0.4355674314906913 4.215642167113325e-18 7.574323329806854e-06)
(0.4355674314906899 -9.423899395354415e-17 7.574112640879172e-06)
(0.4355674314906934 -5.235956531374667e-17 7.574325583609509e-06)
(0.4355674314906917 -3.170453165223969e-17 7.574084484577902e-06)
(0.4355674314906944 -7.818718853277884e-17 7.574329272790688e-06)
(0.4355674314906921 -7.605040416499646e-17 7.574053878622407e-06)
(0.4355674314906943 6.279268759378858e-17 7.574334537635928e-06)
(0.4355674314906913 -2.380726332032178e-17 7.574020633052944e-06)
(0.4355674314906957 -7.255261839138894e-17 7.574341530898638e-06)
(0.4355674314906915 8.052814258550065e-17 7.573984583510108e-06)
(0.4355674314906944 1.481127719098996e-16 7.574350411030882e-06)
(0.4355674314906884 1.863383874864086e-17 7.573945600113923e-06)
(0.4355674314906944 -2.105843824178562e-17 7.574361330433251e-06)
(0.4355674314906876 1.091825050188594e-16 7.573903603270941e-06)
(0.4355674314906912 1.406383844822738e-16 7.574374409267375e-06)
(0.435567431490683 1.459615453973612e-17 7.573858605030976e-06)
(0.4355674314906919 -5.750439298711306e-17 7.574389658223528e-06)
(0.4355674314906811 1.463880063702907e-16 7.573810848703245e-06)
(0.4355674314906884 9.353412220859188e-17 7.574406703284216e-06)
(0.435567431490678 8.642716766557726e-17 7.573761340791901e-06)
(0.435567431490689 -9.859582933136123e-17 7.574423648341696e-06)
(0.4355674314906765 5.453487866733225e-18 7.573713789235336e-06)
(0.4355674314906901 -1.245550274965167e-16 7.57442972283556e-06)
(0.4355674314906732 -2.320142971854184e-16 7.573663740357496e-06)
(0.5809395616173245 -5.766261293997583e-16 1.013875004347884e-05)
(0.5809395616173191 5.398456077977444e-17 1.01390070357094e-05)
(0.5809395616173194 1.598583161631175e-17 1.013900623680408e-05)
(0.58093956161732 1.277669448112197e-16 1.013898175890339e-05)
(0.5809395616173189 -2.500689356172697e-18 1.013898361977513e-05)
(0.5809395616173181 -1.844077795483138e-18 1.013895689622982e-05)
(0.5809395616173176 2.044206254659744e-16 1.01389611137482e-05)
(0.5809395616173157 1.481324182384412e-16 1.013893212232402e-05)
(0.5809395616173154 1.003997668931588e-16 1.013893944209888e-05)
(0.5809395616173142 2.7864588148191e-16 1.013890799300778e-05)
(0.5809395616173133 2.191289630355464e-16 1.013891898403009e-05)
(0.5809395616173113 9.340216003771966e-17 1.013888464172707e-05)
(0.5809395616173109 1.917289845737786e-16 1.013889983619127e-05)
(0.5809395616173091 2.186107550127078e-16 1.013886202561186e-05)
(0.5809395616173084 1.210673050988898e-16 1.013888200581769e-05)
(0.5809395616173068 1.346482661323429e-16 1.013884004499354e-05)
(0.5809395616173064 6.644580180016427e-17 1.013886548010387e-05)
(0.5809395616173062 6.542025363672011e-17 1.013881857935117e-05)
(0.5809395616173056 6.447367026310047e-17 1.01388502452242e-05)
(0.5809395616173058 -5.322662162781674e-17 1.013879749420252e-05)
(0.5809395616173061 2.599353228242334e-17 1.013883628939953e-05)
(0.5809395616173059 -7.561826675124185e-17 1.013877663960772e-05)
(0.5809395616173064 -1.154039464762706e-16 1.013882360209611e-05)
(0.580939561617307 4.749435496105212e-17 1.013875584714295e-05)
(0.5809395616173072 -9.870403566591224e-17 1.013881217324611e-05)
(0.5809395616173079 -1.298401937892547e-16 1.01387349276022e-05)
(0.5809395616173083 -4.770789261804381e-17 1.013880199359527e-05)
(0.5809395616173091 -4.274565348003868e-17 1.013871366989881e-05)
(0.5809395616173103 -1.249522885888884e-16 1.013879305630715e-05)
(0.5809395616173119 -1.587655113854465e-16 1.013869184122794e-05)
(0.5809395616173124 -1.739189955550503e-16 1.013878535967591e-05)
(0.580939561617314 -1.643207604866884e-16 1.013866918829895e-05)
(0.5809395616173152 -2.559695947714719e-16 1.013877891061188e-05)
(0.5809395616173162 -1.782091278084633e-16 1.013864543951572e-05)
(0.5809395616173174 -8.775051838752051e-17 1.013877372865923e-05)
(0.5809395616173183 -1.342225276204008e-16 1.013862030790468e-05)
(0.5809395616173194 -2.165422704378262e-17 1.013876985011339e-05)
(0.5809395616173196 -8.721964184783862e-17 1.013859349468437e-05)
(0.5809395616173215 -1.265263525157316e-16 1.013876733198419e-05)
(0.5809395616173206 -1.516510680799387e-16 1.013856469342303e-05)
(0.580939561617323 -6.251973547511207e-17 1.013876625535747e-05)
(0.580939561617322 2.496671843044179e-17 1.013853359470868e-05)
(0.580939561617325 -2.930218530033418e-17 1.013876672785907e-05)
(0.5809395616173234 -1.466043252870524e-16 1.013849989137898e-05)
(0.5809395616173262 -9.3077927317397e-17 1.013876888480678e-05)
(0.5809395616173241 -4.82014179270699e-17 1.013846328432511e-05)
(0.5809395616173263 -1.03512019139237e-16 1.013877288873494e-05)
(0.5809395616173247 -1.119228798331135e-16 1.013842348896046e-05)
(0.5809395616173272 9.18522230093499e-17 1.01387789269411e-05)
(0.5809395616173243 -3.65149307342218e-17 1.013838024240124e-05)
(0.5809395616173276 -7.134538022524804e-17 1.013878720681575e-05)
(0.5809395616173236 1.090089876821945e-16 1.013833331152127e-05)
(0.5809395616173278 2.46585557149919e-16 1.013879794856041e-05)
(0.5809395616173215 5.87567510000952e-17 1.013828250238959e-05)
(0.5809395616173264 -4.27442520219847e-18 1.013881137417346e-05)
(0.5809395616173206 1.619072752356828e-16 1.01382276731599e-05)
(0.5809395616173254 2.611214932795662e-16 1.013882768855234e-05)
(0.5809395616173172 3.793511343861515e-17 1.013816875858601e-05)
(0.5809395616173249 -9.250494994930539e-18 1.013884703715851e-05)
(0.5809395616173144 2.143179659577361e-16 1.013810583567395e-05)
(0.5809395616173233 1.757910264118621e-16 1.013886938449923e-05)
(0.5809395616173124 1.578442240564843e-16 1.013803933228215e-05)
(0.5809395616173222 -7.644695370107746e-17 1.013889410514027e-05)
(0.5809395616173098 -1.441552157477418e-17 1.013797058559272e-05)
(0.5809395616173224 -1.126865323090012e-16 1.013891703657695e-05)
(0.5809395616173083 -2.884744249386319e-16 1.013788830902441e-05)
(0.653010935622182 -7.664280987031362e-16 1.141840701456342e-05)
(0.6530109356221758 2.16962723807744e-16 1.141862037652611e-05)
(0.6530109356221764 -1.711137877818792e-18 1.141861528707931e-05)
(0.6530109356221773 1.092455723538854e-16 1.141858658936738e-05)
(0.6530109356221766 2.754093323748102e-17 1.141858660354823e-05)
(0.6530109356221753 4.468347754120116e-17 1.141855709258934e-05)
(0.6530109356221752 2.774490685769523e-16 1.141856048602178e-05)
(0.6530109356221733 2.388537682615859e-16 1.141852906355788e-05)
(0.6530109356221725 1.551282745552814e-16 1.14185359791831e-05)
(0.6530109356221717 3.113668772736168e-16 1.141850208982073e-05)
(0.6530109356221716 3.039467387370182e-16 1.141851294082166e-05)
(0.6530109356221693 1.785853326692969e-16 1.141847602600179e-05)
(0.6530109356221691 2.50185275102e-16 1.141849132644029e-05)
(0.6530109356221678 3.016787592564909e-16 1.141845075487324e-05)
(0.6530109356221676 1.948966993068903e-16 1.141847111273609e-05)
(0.6530109356221661 1.98117276172031e-16 1.141842616123221e-05)
(0.6530109356221652 7.85428730754723e-17 1.141845228834521e-05)
(0.6530109356221651 7.656551302971287e-17 1.141840212472972e-05)
(0.6530109356221648 6.99670096357581e-17 1.141843484904567e-05)
(0.6530109356221647 -5.394128794399184e-17 1.141837851319999e-05)
(0.6530109356221645 1.334316930680384e-17 1.141841879324594e-05)
(0.6530109356221648 -9.017204624360162e-17 1.141835517669639e-05)
(0.6530109356221649 -1.453046783067926e-16 1.141840411878822e-05)
(0.6530109356221656 7.050514175197105e-20 1.141833194294541e-05)
(0.6530109356221664 -1.223753315630994e-16 1.141839082155269e-05)
(0.6530109356221664 -1.420055544433678e-16 1.141830861458815e-05)
(0.6530109356221667 -1.003135307151538e-16 1.141837889585182e-05)
(0.6530109356221675 -1.09491768486419e-16 1.141828496798672e-05)
(0.6530109356221685 -2.063018346249102e-16 1.141836833637827e-05)
(0.6530109356221703 -2.07659948097974e-16 1.141826075349616e-05)
(0.6530109356221707 -2.424992895829956e-16 1.141835914142717e-05)
(0.6530109356221723 -2.496416995338976e-16 1.141823569686404e-05)
(0.6530109356221733 -3.201447156007139e-16 1.141835131701414e-05)
(0.653010935622174 -2.563324504842284e-16 1.141820950166041e-05)
(0.6530109356221752 -1.560883852504737e-16 1.141834488162434e-05)
(0.6530109356221759 -2.020616227074326e-16 1.141818185247441e-05)
(0.6530109356221774 -5.097389981706243e-17 1.141833987112848e-05)
(0.6530109356221775 -1.480728051549476e-16 1.141815241878783e-05)
(0.6530109356221795 -1.59145193671386e-16 1.141833634362502e-05)
(0.653010935622178 -1.995462123071496e-16 1.141812085943286e-05)
(0.6530109356221807 -9.774703025597221e-17 1.141833438369933e-05)
(0.6530109356221797 -4.843856084720649e-17 1.141808682758057e-05)
(0.6530109356221826 -7.571858094052587e-17 1.141833410579516e-05)
(0.653010935622181 -1.780730215534936e-16 1.14180499762739e-05)
(0.6530109356221835 -1.013451694874419e-16 1.141833565623569e-05)
(0.6530109356221815 -6.869766935719722e-17 1.141800996454684e-05)
(0.6530109356221836 -1.194241700059267e-16 1.141833921351757e-05)
(0.653010935622182 -1.171666440833562e-16 1.141796646423489e-05)
(0.6530109356221845 1.063600268637789e-16 1.14183449865051e-05)
(0.6530109356221817 -3.570786864852993e-17 1.14179191674957e-05)
(0.6530109356221846 -4.931314863529097e-17 1.141835321026055e-05)
(0.653010935622181 9.706078149835632e-17 1.141786779510082e-05)
(0.6530109356221854 2.775517666698997e-16 1.141836413943459e-05)
(0.6530109356221797 9.457929376597915e-17 1.141781210534477e-05)
(0.653010935622184 4.013960534180875e-17 1.14183780393046e-05)
(0.6530109356221784 2.064377984340305e-16 1.141775190314866e-05)
(0.6530109356221836 3.288757001913312e-16 1.141839517521606e-05)
(0.6530109356221757 5.749418396961529e-17 1.141768704804282e-05)
(0.6530109356221829 8.755278263734977e-17 1.141841580336645e-05)
(0.6530109356221729 2.70927723403976e-16 1.141761745419405e-05)
(0.6530109356221822 2.370472796866161e-16 1.141844018068826e-05)
(0.6530109356221709 2.052043179043003e-16 1.141754303769535e-05)
(0.6530109356221806 -3.138392908185218e-17 1.141846870875985e-05)
(0.6530109356221685 3.46633416518005e-17 1.141746323555019e-05)
(0.6530109356221797 -1.30122755462825e-16 1.14185022941124e-05)
(0.6530109356221681 -3.9416033472861e-16 1.14173639199951e-05)
(0.7050816048457608 -9.564716063009549e-16 1.234667294340332e-05)
(0.7050816048457551 3.683311051666257e-16 1.234694291534866e-05)
(0.7050816048457552 -2.270978446996423e-17 1.234693692748503e-05)
(0.7050816048457562 1.007096798834227e-16 1.234690658018899e-05)
(0.7050816048457558 1.098497548958499e-16 1.234690514756572e-05)
(0.7050816048457546 1.029029954331487e-16 1.234687438472409e-05)
(0.7050816048457543 3.434762230716583e-16 1.234687671685036e-05)
(0.7050816048457528 3.390608324767081e-16 1.234684427162373e-05)
(0.7050816048457519 2.186206679776022e-16 1.234685026175687e-05)
(0.7050816048457508 3.284848386926936e-16 1.23468153983338e-05)
(0.705081604845751 3.995294882745192e-16 1.234682535748957e-05)
(0.7050816048457491 2.79896109257293e-16 1.234678745800068e-05)
(0.705081604845749 2.910302055984581e-16 1.234680187798152e-05)
(0.7050816048457477 3.689980385194797e-16 1.234676029794877e-05)
(0.7050816048457473 2.737952662614937e-16 1.234677979243571e-05)
(0.7050816048457464 2.796862167616612e-16 1.234673380889798e-05)
(0.7050816048457456 1.136498907936352e-16 1.234675910438055e-05)
(0.7050816048457451 7.603570047835019e-17 1.234670788718381e-05)
(0.7050816048457449 8.836162509322203e-17 1.234673982907666e-05)
(0.7050816048457443 -3.251905648748968e-17 1.234668241770659e-05)
(0.7050816048457443 -3.321595626744607e-18 1.234672198315936e-05)
(0.7050816048457448 -9.970594145258519e-17 1.234665726454956e-05)
(0.7050816048457447 -1.767743342026391e-16 1.234670557961764e-05)
(0.7050816048457451 -5.977057894848606e-17 1.234663226536458e-05)
(0.705081604845746 -1.503752471120484e-16 1.234669062601612e-05)
(0.7050816048457461 -1.52951929882561e-16 1.234660722829812e-05)
(0.7050816048457468 -1.601538111562235e-16 1.234667712494429e-05)
(0.7050816048457472 -1.761749539807834e-16 1.234658193076113e-05)
(0.7050816048457481 -2.994505981047714e-16 1.234666507626952e-05)
(0.7050816048457498 -2.760581190585801e-16 1.234655611974538e-05)
(0.7050816048457502 -3.154324736841877e-16 1.234665448073979e-05)
(0.7050816048457513 -3.303826650793238e-16 1.234652951327893e-05)
(0.7050816048457527 -3.908181531387947e-16 1.234664534460904e-05)
(0.7050816048457532 -3.355748479141238e-16 1.23465018029618e-05)
(0.7050816048457543 -2.3400195915165e-16 1.234663768498914e-05)
(0.705081604845755 -2.905017666913381e-16 1.234647265725374e-05)
(0.7050816048457565 -1.114729378468391e-16 1.234663153547867e-05)
(0.7050816048457567 -2.140123743887185e-16 1.23464417254452e-05)
(0.7050816048457584 -1.834713798031614e-16 1.234662695184088e-05)
(0.7050816048457575 -2.471831747429814e-16 1.234640864222021e-05)
(0.70508160484576 -1.524035182021526e-16 1.234662401719587e-05)
(0.7050816048457589 -1.401436066193308e-16 1.234637303271168e-05)
(0.7050816048457618 -1.371167797492001e-16 1.234662284643734e-05)
(0.70508160484576 -2.054320948812922e-16 1.234633451809107e-05)
(0.7050816048457627 -1.046530601252349e-16 1.234662358934774e-05)
(0.7050816048457602 -7.87153750620011e-17 1.234629272172159e-05)
(0.7050816048457628 -1.204676026580751e-16 1.234662643201398e-05)
(0.7050816048457609 -1.436300205007017e-16 1.234624727600023e-05)
(0.7050816048457638 9.906754996679785e-17 1.234663159612484e-05)
(0.7050816048457609 -1.428897896776748e-17 1.234619782990781e-05)
(0.7050816048457639 -6.320249563976164e-18 1.234663933582652e-05)
(0.7050816048457601 4.193043148614276e-17 1.234614405729819e-05)
(0.7050816048457645 2.771926418051614e-16 1.23466499322133e-05)
(0.7050816048457594 1.541762836683937e-16 1.234608566534701e-05)
(0.7050816048457635 1.101658849038894e-16 1.234666368635898e-05)
(0.7050816048457579 2.325900531167077e-16 1.234602240106187e-05)
(0.7050816048457632 3.917726958408295e-16 1.234668091487089e-05)
(0.705081604845756 8.755525099503856e-17 1.234595404828583e-05)
(0.7050816048457627 1.94297265399311e-16 1.234670196261478e-05)
(0.7050816048457532 2.999318855288727e-16 1.234588038614223e-05)
(0.7050816048457621 2.901958773136287e-16 1.234672729055601e-05)
(0.7050816048457512 2.92655438763194e-16 1.234580098463846e-05)
(0.7050816048457604 4.473787419352736e-17 1.234675789327314e-05)
(0.7050816048457489 9.836086101938057e-17 1.234571424984621e-05)
(0.7050816048457593 -1.607500313337218e-16 1.234679687417475e-05)
(0.7050816048457487 -4.616316512946973e-16 1.234560094135869e-05)
(0.7564503653408867 -1.213310685458618e-15 1.326672796939577e-05)
(0.7564503653408837 4.575813081079141e-16 1.326723696346887e-05)
(0.7564503653408828 2.72996131209911e-18 1.32672299090189e-05)
(0.7564503653408837 1.482255221762332e-16 1.326719953166391e-05)
(0.7564503653408834 2.49164036855219e-16 1.326719685647224e-05)
(0.7564503653408824 1.729426036376544e-16 1.326716597663151e-05)
(0.7564503653408819 4.335042765707732e-16 1.326716689966879e-05)
(0.7564503653408808 4.519080183441906e-16 1.326713438420864e-05)
(0.7564503653408797 2.998048409356052e-16 1.32671388091103e-05)
(0.7564503653408791 3.683662627424122e-16 1.326710392382488e-05)
(0.7564503653408788 4.881932823682378e-16 1.326711213467323e-05)
(0.7564503653408778 4.160948953885281e-16 1.326707427542789e-05)
(0.7564503653408775 3.767867126139086e-16 1.326708675494116e-05)
(0.7564503653408761 4.403603426518095e-16 1.326704530891017e-05)
(0.7564503653408756 3.583274087445981e-16 1.326706267000157e-05)
(0.7564503653408747 4.029512247277018e-16 1.326701695313608e-05)
(0.7564503653408742 1.819807603832983e-16 1.32670399215315e-05)
(0.7564503653408736 8.205606047247645e-17 1.326698914436619e-05)
(0.7564503653408734 1.266570707456031e-16 1.326701856121745e-05)
(0.7564503653408728 1.08900228684038e-17 1.326696180365417e-05)
(0.7564503653408726 -2.534101072087069e-17 1.326699863733051e-05)
(0.7564503653408726 -9.90263033113626e-17 1.326693482571776e-05)
(0.7564503653408728 -2.187337555066902e-16 1.326698018891686e-05)
(0.7564503653408733 -1.299216390883081e-16 1.326690807296923e-05)
(0.756450365340874 -2.034704384595278e-16 1.326696324407762e-05)
(0.7564503653408742 -1.828981293287987e-16 1.326688137235432e-05)
(0.7564503653408747 -2.520092856610183e-16 1.326694782068145e-05)
(0.7564503653408755 -2.6399358035019e-16 1.326685451423622e-05)
(0.7564503653408762 -4.090617714535981e-16 1.32669339290254e-05)
(0.7564503653408774 -3.737281316638681e-16 1.326682725270009e-05)
(0.756450365340878 -4.010040762044262e-16 1.326692157582935e-05)
(0.7564503653408789 -4.300434730412422e-16 1.326679930700883e-05)
(0.7564503653408801 -4.910906281550532e-16 1.326691076945251e-05)
(0.7564503653408808 -4.516686219261972e-16 1.326677036411701e-05)
(0.7564503653408819 -3.43328953892929e-16 1.326690152591916e-05)
(0.7564503653408825 -4.254650938463473e-16 1.326674008190366e-05)
(0.7564503653408845 -2.177265501645725e-16 1.326689387539731e-05)
(0.7564503653408844 -2.86081156469615e-16 1.326670809306635e-05)
(0.7564503653408858 -2.414662124416547e-16 1.326688786894672e-05)
(0.7564503653408853 -3.05157098904737e-16 1.326667400958105e-05)
(0.7564503653408875 -2.210059876404732e-16 1.326688358498037e-05)
(0.7564503653408865 -2.617819147304194e-16 1.326663742761574e-05)
(0.7564503653408895 -2.273839178177116e-16 1.326688113516821e-05)
(0.7564503653408881 -2.711214889490319e-16 1.326659793288136e-05)
(0.7564503653408906 -1.06982560417688e-16 1.326688066922408e-05)
(0.7564503653408879 -7.221349688467603e-17 1.326655510652026e-05)
(0.7564503653408908 -1.28241575940156e-16 1.326688237814443e-05)
(0.7564503653408887 -2.010747866023492e-16 1.326650853161946e-05)
(0.7564503653408917 7.886057267607548e-17 1.32668864953869e-05)
(0.7564503653408887 -2.945725175901639e-17 1.326645780044793e-05)
(0.7564503653408919 8.050148412356833e-17 1.326689329555757e-05)
(0.7564503653408876 -1.799264188911034e-17 1.326640252253001e-05)
(0.7564503653408925 2.28763476024336e-16 1.326690309055116e-05)
(0.7564503653408877 2.309420485566573e-16 1.326634233293181e-05)
(0.7564503653408919 2.172133910520966e-16 1.326691622421413e-05)
(0.7564503653408863 2.615129475242616e-16 1.326627689827377e-05)
(0.7564503653408916 4.773143878863613e-16 1.326693307032964e-05)
(0.7564503653408847 1.162063916503886e-16 1.326620591116906e-05)
(0.7564503653408911 3.278649029313145e-16 1.326695405121769e-05)
(0.7564503653408821 3.595442600885606e-16 1.326612904146741e-05)
(0.7564503653408901 3.447954489801382e-16 1.326697973858732e-05)
(0.7564503653408811 3.943649978531118e-16 1.32660457416934e-05)
(0.7564503653408888 1.595826877615655e-16 1.326701126229774e-05)
(0.7564503653408782 2.112890770144026e-16 1.326595435527769e-05)
(0.7564503653408877 -1.876635569322168e-16 1.326704828307682e-05)
(0.7564503653408774 -4.528519219799091e-16 1.326581158092622e-05)
(0.8121013594212498 -1.517060221304515e-15 1.427356655257781e-05)
(0.8121013594212495 3.084147632416958e-16 1.427441947552778e-05)
(0.8121013594212486 6.429157678123564e-17 1.427441373021741e-05)
(0.8121013594212491 2.671321901443668e-16 1.42743860509835e-05)
(0.8121013594212483 4.286725205644526e-16 1.427438262057926e-05)
(0.8121013594212476 3.210886480920171e-16 1.427435341010049e-05)
(0.8121013594212468 5.946396720360407e-16 1.427435252430892e-05)
(0.8121013594212461 5.915677242917794e-16 1.427432136137571e-05)
(0.8121013594212454 3.942313572269015e-16 1.427432331591623e-05)
(0.8121013594212444 4.968091018974914e-16 1.427428976790528e-05)
(0.8121013594212438 5.709537528067139e-16 1.427429497440362e-05)
(0.8121013594212433 5.833371070125754e-16 1.427425859285504e-05)
(0.8121013594212423 5.668734655550598e-16 1.427426757054783e-05)
(0.8121013594212417 5.686511973600995e-16 1.427422785503148e-05)
(0.8121013594212407 4.318687864007117e-16 1.427424121795745e-05)
(0.8121013594212396 5.539593502319946e-16 1.427419758428026e-05)
(0.8121013594212401 2.983339724460403e-16 1.427421603953671e-05)
(0.8121013594212392 1.228841224189667e-16 1.427416779498338e-05)
(0.8121013594212388 1.961694642914607e-16 1.427419215002964e-05)
(0.8121013594212385 9.881889347738137e-17 1.42741384718774e-05)
(0.8121013594212383 -4.487752895025003e-17 1.427416964792944e-05)
(0.8121013594212383 -1.03421369922047e-16 1.42741095623135e-05)
(0.8121013594212386 -2.700995749572946e-16 1.427414861222591e-05)
(0.8121013594212387 -1.964482541404053e-16 1.427408097205094e-05)
(0.8121013594212388 -2.679616600569835e-16 1.427412910210883e-05)
(0.812101359421239 -2.771486209021083e-16 1.427405256295133e-05)
(0.81210135942124 -3.787896700824229e-16 1.427411115869522e-05)
(0.8121013594212406 -3.736821808855471e-16 1.427402415234829e-05)
(0.8121013594212411 -5.54785318188855e-16 1.427409480840438e-05)
(0.8121013594212421 -5.18860806713459e-16 1.427399551341754e-05)
(0.812101359421243 -5.266004534519722e-16 1.427408006763925e-05)
(0.8121013594212436 -5.841213234636556e-16 1.427396637667259e-05)
(0.812101359421245 -6.260802383631408e-16 1.427406694879891e-05)
(0.8121013594212457 -6.07927597375855e-16 1.427393643225455e-05)
(0.8121013594212467 -5.42884001993415e-16 1.42740554672367e-05)
(0.8121013594212473 -6.08931554257824e-16 1.427390533291195e-05)
(0.8121013594212492 -3.708181587248731e-16 1.427404564896138e-05)
(0.8121013594212494 -4.221472616138779e-16 1.427387269755385e-05)
(0.8121013594212508 -3.671829499674799e-16 1.427403753888457e-05)
(0.8121013594212504 -4.409628337661246e-16 1.427383811518023e-05)
(0.8121013594212529 -3.339835911417153e-16 1.427403120924848e-05)
(0.8121013594212515 -4.014585712678029e-16 1.427380114918071e-05)
(0.8121013594212545 -3.270367342411333e-16 1.42740267677733e-05)
(0.8121013594212529 -3.985923894253863e-16 1.427376134183612e-05)
(0.8121013594212553 -1.271010927513397e-16 1.427402436518516e-05)
(0.8121013594212532 -1.062731026583725e-16 1.427371821917398e-05)
(0.8121013594212561 -1.745920905811535e-16 1.427402420154311e-05)
(0.8121013594212539 -2.524789851186738e-16 1.427367129620535e-05)
(0.8121013594212566 4.297169468804261e-17 1.427402653072632e-05)
(0.8121013594212539 -9.686479230533899e-17 1.427362008291434e-05)
(0.8121013594212575 1.827872123848131e-16 1.427403166243882e-05)