/*--------------------------------*- C++ -*----------------------------------*\
| =========                 |                                                 |
| \\      /  F ield         | OpenFOAM: The Open Source CFD Toolbox           |
|  \\    /   O peration     | Version:  v1812                                 |
|   \\  /    A nd           | Web:      www.OpenFOAM.com                      |
|    \\/     M anipulation  |                                                 |
\*---------------------------------------------------------------------------*/
FoamFile
{
    version     2.0;
    format      ascii;
    class       volVectorField;
    location    "10000";
    object      wallShearStress;
}
// * * * * * * * * * * * * * * * * * * * * * * * * * * * * * * * * * * * * * //

dimensions      [0 2 -2 0 0 0 0];


internalField   uniform (0 0 0);

boundaryField
{
    inlet
    {
        type            cyclic;
    }
    outlet
    {
        type            cyclic;
    }
    bottomWall
    {
        type            calculated;
        value           nonuniform List<vector> 
66
(
(-0.003645973891261155 6.372001875931299e-19 -6.298703490439939e-08)
(-0.003645973891261051 7.020752512840419e-19 -6.298794655092542e-08)
(-0.003645973891261125 1.192078869670603e-18 -6.298823016381393e-08)
(-0.003645973891261131 -4.822657507622217e-19 -6.298815323484242e-08)
(-0.003645973891261103 8.583380733244618e-19 -6.29882015027188e-08)
(-0.003645973891261104 3.328990344411798e-19 -6.298803867734064e-08)
(-0.003645973891261094 -6.747440483894455e-19 -6.298807840833353e-08)
(-0.00364597389126107 -7.349333470541751e-20 -6.298789024215119e-08)
(-0.003645973891261083 -5.738891331174441e-19 -6.298794638098414e-08)
(-0.003645973891261057 -1.415286927448542e-18 -6.298773941489339e-08)
(-0.003645973891261036 -7.465883126727451e-19 -6.298781926207481e-08)
(-0.003645973891261032 -1.880592404260296e-19 -6.298759221334064e-08)
(-0.00364597389126102 -7.300962641089632e-19 -6.298770016318947e-08)
(-0.003645973891260988 -9.333130602530421e-19 -6.298744956118825e-08)
(-0.003645973891260981 4.987384695445434e-20 -6.298758971882493e-08)
(-0.003645973891260961 -4.693067167627255e-19 -6.298731105695122e-08)
(-0.00364597389126097 -6.411410813879798e-19 -6.298748794131969e-08)
(-0.00364597389126096 3.400391854509097e-20 -6.298717590802401e-08)
(-0.003645973891260949 -1.849246078201464e-19 -6.298739470829527e-08)
(-0.003645973891260963 3.34003581897363e-19 -6.298704316982107e-08)
(-0.003645973891260963 -1.904491572554238e-19 -6.298730988772837e-08)
(-0.003645973891260953 3.782166027640821e-19 -6.298691179337211e-08)
(-0.003645973891260977 2.229435080610054e-19 -6.298723336350888e-08)
(-0.003645973891260969 -2.782696867618896e-19 -6.298678062214725e-08)
(-0.003645973891260961 4.685000215891453e-19 -6.298716503799538e-08)
(-0.003645973891260988 2.922461673006549e-19 -6.298664838076578e-08)
(-0.003645973891260984 -1.236537809407889e-19 -6.298710483470205e-08)
(-0.003645973891260989 -3.129919065516197e-19 -6.298651366776511e-08)
(-0.003645973891260994 -2.48808844624081e-19 -6.298705270680381e-08)
(-0.003645973891261008 4.310035616113713e-19 -6.298637495559405e-08)
(-0.003645973891261014 9.494261386413652e-19 -6.298700865212734e-08)
(-0.003645973891261031 1.02426675077734e-19 -6.298623059768064e-08)
(-0.003645973891261041 1.039511331075354e-18 -6.298697273279337e-08)
(-0.00364597389126107 6.899067249190273e-19 -6.29860788417871e-08)
(-0.003645973891261074 -6.743732976798563e-20 -6.298694509806898e-08)
(-0.003645973891261088 1.528415965012381e-19 -6.298591784877881e-08)
(-0.003645973891261092 -2.63618648993238e-19 -6.298692600753145e-08)
(-0.00364597389126109 5.537301443666078e-19 -6.298574571594344e-08)
(-0.003645973891261098 9.404942449324533e-19 -6.298691585275241e-08)
(-0.003645973891261106 2.811664728493973e-19 -6.298556050459919e-08)
(-0.003645973891261127 -1.061989395844732e-19 -6.298691517474152e-08)
(-0.003645973891261106 -1.015735391097591e-18 -6.298536027155507e-08)
(-0.003645973891261134 -4.48557747224554e-20 -6.298692467495493e-08)
(-0.003645973891261122 7.143228667915329e-19 -6.298514310469713e-08)
(-0.003645973891261155 1.118622910320195e-19 -6.298694521756333e-08)
(-0.003645973891261139 6.03258093668104e-19 -6.298490716272012e-08)
(-0.003645973891261167 6.143143308696291e-19 -6.298697782077055e-08)
(-0.003645973891261148 7.312997404270122e-19 -6.298465071964949e-08)
(-0.003645973891261165 -3.136195424938409e-19 -6.29870236350897e-08)
(-0.003645973891261134 -2.545513730530959e-19 -6.298437221473956e-08)
(-0.003645973891261184 5.846744205063141e-19 -6.298708390590735e-08)
(-0.003645973891261148 -5.200477327676e-19 -6.298407031137578e-08)
(-0.003645973891261171 -5.856259343215665e-19 -6.298715991279385e-08)
(-0.003645973891261112 4.427537850171941e-19 -6.298374397832222e-08)
(-0.003645973891261171 1.926488577804256e-19 -6.298725285818929e-08)
(-0.003645973891261109 -1.079260169184135e-18 -6.298339264676402e-08)
(-0.003645973891261135 3.327796845528817e-20 -6.298736360028562e-08)
(-0.003645973891261048 -7.654622494229259e-19 -6.298301665076534e-08)
(-0.003645973891261148 5.155777015363475e-19 -6.298749181940283e-08)
(-0.003645973891261045 -1.17150517851079e-18 -6.298261877771211e-08)
(-0.003645973891261112 -5.674266819685705e-19 -6.2987632954888e-08)
(-0.003645973891261009 -8.321965164888989e-19 -6.29822105116476e-08)
(-0.003645973891261124 1.854861928624231e-18 -6.298776609377063e-08)
(-0.003645973891261006 -1.212103724420536e-19 -6.298184309891867e-08)
(-0.003645973891261155 2.225961546538749e-18 -6.298781348358324e-08)
(-0.003645973891261014 2.366512170451409e-18 -6.298183180401885e-08)
)
;
    }
    topWall
    {
        type            calculated;
        value           nonuniform List<vector> 
66
(
(-0.00364597389126138 7.01441467173123e-18 -6.280511251133744e-08)
(-0.003645973891261157 -1.694171916215799e-18 -6.280674976331333e-08)
(-0.003645973891261388 -5.13561056467609e-18 -6.28063195151125e-08)
(-0.003645973891261314 1.668262857093036e-17 -6.280594096783984e-08)
(-0.003645973891261364 -3.824190906945982e-20 -6.280582454315286e-08)
(-0.003645973891261253 -1.141883475151201e-17 -6.280553327894019e-08)
(-0.00364597389126132 8.389179470363915e-18 -6.280548666490803e-08)
(-0.003645973891261223 5.934879343228507e-20 -6.280521263526011e-08)
(-0.003645973891261202 -9.673889275496185e-18 -6.280521282079037e-08)
(-0.003645973891261399 7.309707396930099e-18 -6.280493931608786e-08)
(-0.003645973891261272 4.451409370613236e-18 -6.280498064094989e-08)
(-0.00364597389126109 -4.930353496130069e-18 -6.280469759182908e-08)
(-0.00364597389126131 3.454725853581821e-18 -6.28047788490276e-08)
(-0.00364597389126121 -5.415618492832737e-21 -6.280447818848998e-08)
(-0.003645973891261114 -2.480121886334908e-18 -6.280460063802784e-08)
(-0.003645973891261205 6.099851994843686e-18 -6.280427504461516e-08)
(-0.003645973891261259 2.932575215243593e-18 -6.280444173090949e-08)
(-0.003645973891261139 -8.074169636797439e-18 -6.280408396874618e-08)
(-0.003645973891261276 -6.756558952502366e-18 -6.280429940222347e-08)
(-0.003645973891261212 3.733755087102147e-18 -6.280390188393568e-08)
(-0.003645973891261059 5.321881458926225e-18 -6.2804171903335e-08)
(-0.003645973891261125 -8.146957379499165e-19 -6.280372636255094e-08)
(-0.003645973891261033 -3.602796562393714e-18 -6.280405810826171e-08)
(-0.003645973891261137 3.072111008653917e-18 -6.280355533259815e-08)
(-0.003645973891261181 1.220532852344008e-17 -6.280395729549159e-08)
(-0.003645973891261209 -3.091128027999726e-18 -6.280338688996766e-08)
(-0.003645973891261022 -1.474741974025005e-17 -6.280386901330789e-08)
(-0.003645973891261231 -6.061859813055305e-18 -6.280321917654064e-08)
(-0.003645973891261129 4.938490041053341e-18 -6.280379300161764e-08)
(-0.00364597389126123 -7.209977951134692e-18 -6.280305030383623e-08)
(-0.003645973891261176 -6.669047685587107e-18 -6.280372914906584e-08)
(-0.003645973891261308 1.953176005751757e-17 -6.280287830510713e-08)
(-0.0036459738912613 1.302276307196682e-17 -6.280367747532566e-08)
(-0.003645973891261259 -7.949351459911717e-18 -6.280270110842851e-08)
(-0.003645973891261148 2.363221020502476e-18 -6.280363813063147e-08)
(-0.003645973891261385 4.91672190200562e-18 -6.280251652385279e-08)
(-0.00364597389126122 -9.083616544648505e-18 -6.280361140639225e-08)
(-0.003645973891261283 -1.209524549910676e-17 -6.280232224191109e-08)
(-0.003645973891261198 -1.391581807520346e-18 -6.280359775496128e-08)
(-0.003645973891261226 5.401635217655989e-18 -6.280211583734895e-08)
(-0.003645973891261307 2.570662753922338e-19 -6.280359781329039e-08)
(-0.003645973891261238 2.095536315849259e-18 -6.280189477805112e-08)
(-0.003645973891261434 3.636911825524623e-18 -6.280361243119644e-08)
(-0.003645973891261249 -1.607330364225676e-18 -6.280165643378641e-08)
(-0.00364597389126123 -5.424018870906219e-18 -6.280364270523643e-08)
(-0.003645973891261292 -6.608352062047386e-18 -6.28013980804505e-08)
(-0.003645973891261369 2.065208525785855e-18 -6.28036900171315e-08)
(-0.003645973891261238 4.828245476730252e-18 -6.280111689229298e-08)
(-0.003645973891261301 2.057969897186249e-18 -6.280375608956975e-08)
(-0.003645973891261236 -4.417540287964643e-18 -6.28008099074071e-08)
(-0.003645973891261368 4.172696491379454e-18 -6.280384307292582e-08)
(-0.003645973891261507 4.259141571424935e-18 -6.280047394521485e-08)
(-0.003645973891261354 -1.150285648346149e-17 -6.280395368849976e-08)
(-0.003645973891261254 -3.136460865518951e-18 -6.280010543212737e-08)
(-0.003645973891261338 -4.000777971419057e-18 -6.280409148671656e-08)
(-0.0036459738912613 3.772395093808711e-18 -6.279970007775178e-08)
(-0.003645973891261473 8.280712699853663e-18 -6.280426127775369e-08)
(-0.003645973891261421 1.099883090226938e-18 -6.279925233405506e-08)
(-0.003645973891261283 -1.354037720694923e-19 -6.280446977248418e-08)
(-0.00364597389126123 -4.218097810494182e-18 -6.279875472038253e-08)
(-0.003645973891261515 8.162156378080727e-18 -6.280472605667603e-08)
(-0.003645973891261235 -4.863552721649916e-18 -6.279819797576123e-08)
(-0.003645973891261415 -5.181890724492871e-18 -6.280503959724764e-08)
(-0.00364597389126133 1.16210363999728e-17 -6.279757286777367e-08)
(-0.003645973891261354 -9.491417887990698e-18 -6.280540379652814e-08)
(-0.00364597389126114 -3.982986405002173e-18 -6.279664167135446e-08)
)
;
    }
    left
    {
        type            cyclic;
    }
    right
    {
        type            cyclic;
    }
}


// ************************************************************************* //
